 *******************************************************************************
 ** Site#: 37037        For non-commercial use only           Version 21.153W **
 *******************************************************************************
 ** Cite this program as: MOPAC2016, Version: 21.153W, James J. P. Stewart,   **
 ** Stewart Computational Chemistry, web: HTTP://OpenMOPAC.net. Days left: 362**
 *******************************************************************************
 **                                                                           **
 **                                MOPAC2016                                  **
 **                                                                           **
 *******************************************************************************

                              PM7 CALCULATION RESULTS

 *******************************************************************************
 *  CALCULATION DONE:                                Sat Jun  5 17:28:29 2021  *
 *  GEO-OK     - OVERRIDE INTERATOMIC DISTANCE AND OTHER SAFETY CHECKS
 *  GEO_DAT    - DATA SET GEOMETRY IS IN FILE "Locate_TS bias=20.0 second.mop"
 *  GEO_REF    - REFERENCE GEOMETRY IS IN FILE "Locate_TS bias=20.0 first.mop"
 *               (NO BIAS TOWARDS THE REFERENCE GEOMETRY WILL BE APPLIED)
 *  SADDLE     - TRANSITION STATE TO BE OPTIMIZED
 *  T=         - A TIME OF 172800.0 SECONDS REQUESTED
 *  DUMP=N     - RESTART FILE WRITTEN EVERY 7200.0 SECONDS REQUESTED
 *  HTML       - WRITE HTML SCRIPT TO READ PDB FILE USING JSMOL
 *******************************************************************************
geo-ok geo_ref="Locate_TS bias=20.0 first.mop" geo_dat="Locate_TS bias=20.0 second.mop" saddle  HTML
 Transition state for Cyclobutadiene + ethylene <=> bicyclo[2,2,1]heptene

   ATOM                 CHEMICAL                   X               Y               Z
  NUMBER                 SYMBOL               (ANGSTROMS)     (ANGSTROMS)     (ANGSTROMS)
 
     1       C(HETATM    1  C1  HET A   1)    0.28460290  *  -1.35676266  *   1.28232838  *
     2       C(HETATM    2  C2  HET A   1)    1.61188030  *  -1.30658340  *   1.02236348  *
     3       C(HETATM    3  C3  HET A   1)    2.05081510  *   0.09232201  *   1.01667430  *
     4       C(HETATM    4  C4  HET A   1)    0.99038784  *   0.89307848  *   1.27155762  *
     5       C(HETATM    5  C5  HET A   1)    0.22379771  *   0.63976563  *  -1.50445201  *
     6       C(HETATM    6  C6  HET A   1)   -0.20770217  *  -0.64382707  *  -1.50771944  *
     7       C(HETATM    7  C7  HET A   1)   -1.62883242  *  -0.68101535  *  -1.14798459  *
     8       C(HETATM    8  C8  HET A   1)   -2.04606130  *   0.58695583  *  -0.92673469  *
     9       C(HETATM    9  C9  HET A   1)   -0.91176895  *   1.56334956  *  -1.13491454  *
    10       C(HETATM   10  C10 HET A   1)   -0.22340739  *   0.03931820  *   1.54516329  *
    11       H(HETATM   11  H1  HET A   1)   -0.36659226  *  -2.20345176  *   1.30322796  *
    12       H(HETATM   12  H2  HET A   1)    2.27162210  *  -2.13364556  *   0.86987521  *
    13       H(HETATM   13  H3  HET A   1)    3.06602962  *   0.39040677  *   0.86212442  *
    14       H(HETATM   14  H4  HET A   1)    0.95020852  *   1.95967662  *   1.29556843  *
    15       H(HETATM   15  H5  HET A   1)    1.19785996  *   1.00678117  *  -1.72723126  *
    16       H(HETATM   16  H6  HET A   1)    0.35814611  *  -1.51985155  *  -1.73432752  *
    17       H(HETATM   17  H7  HET A   1)   -2.18548223  *  -1.59395706  *  -1.06856015  *
    18       H(HETATM   18  H8  HET A   1)   -3.03008125  *   0.92835714  *  -0.71882491  *
    19       H(HETATM   19 1H9  HET A   1)   -0.71156862  *   2.17768075  *  -0.24279506  *
    20       H(HETATM   20 2H9  HET A   1)   -1.11146589  *   2.29420365  *  -1.93445851  *
    21       H(HETATM   21 1H10 HET A   1)   -1.09319739  *   0.29942086  *   0.95106182  *
    22       H(HETATM   22 2H10 HET A   1)   -0.57941195  *   0.15697968  *   2.57791459  *
 

                        After docking

                     Atoms that move a lot

                     Atom Label             GEO_REF Coordinates       Movement    Integral

            (HETATM    6  C6  HET A   1)  -0.136  -0.792  -0.747        0.77         0.77
            (HETATM    5  C5  HET A   1)   0.361   0.716  -0.745        0.77         1.53
            (HETATM    1  C1  HET A   1)   0.107  -1.253   0.758        0.57         2.11
            (HETATM    4  C4  HET A   1)   0.814   0.919   0.767        0.55         2.66
            (HETATM   18  H8  HET A   1)  -3.002   0.915  -1.375        0.53         3.19
            (HETATM   22 2H10 HET A   1)  -0.176   0.028   2.593        0.53         3.72
            (HETATM   21 1H10 HET A   1)  -1.281   0.389   1.285        0.41         4.13
            (HETATM   19 1H9  HET A   1)  -1.072   2.299  -0.296        0.40         4.52
            (HETATM   20 2H9  HET A   1)  -0.764   2.167  -2.006        0.29         4.81
            (HETATM   15  H5  HET A   1)   1.186   0.896  -1.464        0.25         5.07
            (HETATM   16  H6  HET A   1)   0.411  -1.425  -1.480        0.25         5.32
            (HETATM    8  C8  HET A   1)  -1.995   0.566  -1.241        0.23         5.55
            (HETATM   11  H1  HET A   1)  -0.412  -2.154   1.090        0.23         5.78
            (HETATM   14  H4  HET A   1)   0.923   1.948   1.114        0.20         5.98
            (HETATM    2  C2  HET A   1)   1.622  -1.255   0.933        0.18         6.16
            (HETATM    3  C3  HET A   1)   2.039   0.026   0.940        0.17         6.33
            (HETATM    7  C7  HET A   1)  -1.600  -0.700  -1.058        0.14         6.47

     Residues that move a lot and their (Movement in Angstroms, per atom)


   Difference between GEO_DAT and GEO_REF: 6.733 = total,  0.3061 = Average,  0.3784 = RMS, in Angstroms

 General Reference for PM7:
 "Optimization of Parameters for Semiempirical Methods VI: More Modifications to the 
 NDDO Approximations and Re-optimization of Parameters", J. J. P. Stewart, J. Mol. Mod., 1:32, 19 (2013)
 https://link.springer.com/article/10.1007/s00894-012-1667-x

           Empirical Formula: C10 H12  =    22 atoms



      MOLECULAR POINT GROUP   :   C1  


      RHF CALCULATION, NO. OF DOUBLY OCCUPIED LEVELS = 26



  CARTESIAN GEOMETRY OF FIRST SYSTEM


   1    C          0.10720      -1.25309       0.75780
   2    C          1.62211      -1.25483       0.93272
   3    C          2.03889       0.02597       0.93969
   4    C          0.81383       0.91868       0.76725
   5    C          0.36065       0.71573      -0.74461
   6    C         -0.13593      -0.79167      -0.74724
   7    C         -1.59968      -0.70032      -1.05818
   8    C         -1.99545       0.56564      -1.24110
   9    C         -0.88117       1.56507      -1.09093
  10    C         -0.26716       0.06467       1.50763
  11    H         -0.41221      -2.15408       1.09034
  12    H          2.19573      -2.15493       0.98585
  13    H          3.03088       0.41847       0.99749
  14    H          0.92342       1.94763       1.11352
  15    H          1.18578       0.89617      -1.46423
  16    H          0.41148      -1.42453      -1.47978
  17    H         -2.19301      -1.59313      -1.11663
  18    H         -3.00226       0.91482      -1.37464
  19    H         -1.07230       2.29936      -0.29618
  20    H         -0.76356       2.16737      -2.00618
  21    H         -1.28115       0.38868       1.28466
  22    H         -0.17629       0.02750       2.59260


  CARTESIAN GEOMETRY OF SECOND SYSTEM


   1    C          0.23370      -1.34164       1.31138
   2    C          1.56995      -1.29665       1.10118
   3    C          2.01154       0.10142       1.09505
   4    C          0.94381       0.90684       1.29988
   5    C          0.28216       0.62068      -1.49983
   6    C         -0.15143      -0.66220      -1.50377
   7    C         -1.58521      -0.69284      -1.19759
   8    C         -2.00800       0.57837      -1.00774
   9    C         -0.86474       1.55043      -1.18478
  10    C         -0.28113       0.05832       1.53779
  11    H         -0.41948      -2.18703       1.31796
  12    H          2.23336      -2.12651       0.98384
  13    H          3.03245       0.39606       0.97537
  14    H          0.90485       1.97371       1.30935
  15    H          1.26467       0.98348      -1.69009
  16    H          0.42085      -1.54179      -1.69813
  17    H         -2.14625      -1.60391      -1.12815
  18    H         -2.99850       0.92377      -0.84136
  19    H         -0.69718       2.17535      -0.29328
  20    H         -1.03264       2.27173      -2.00015
  21    H         -1.12734       0.31243       0.90810
  22    H         -0.67567       0.18916       2.55483


   "DISTANCE":     1.775029


  REACTION COORDINATE VECTOR


   1    C         -0.12650       0.08855      -0.55358
   2    C          0.05216       0.04182      -0.16846
   3    C          0.02735      -0.07545      -0.15535
   4    C         -0.12998       0.01185      -0.53263
   5    C          0.07848       0.09505       0.75523
   6    C          0.01550      -0.12946       0.75653
   7    C         -0.01448      -0.00747       0.13941
   8    C          0.01255      -0.01273      -0.23335
   9    C         -0.01644       0.01464       0.09384
  10    C          0.01397       0.00635      -0.03015
  11    H          0.00727       0.03295      -0.22762
  12    H         -0.03763      -0.02842       0.00201
  13    H         -0.00157       0.02241       0.02213
  14    H          0.01857      -0.02608      -0.19584
  15    H         -0.07889      -0.08730       0.22585
  16    H         -0.00937       0.11726       0.21835
  17    H         -0.04676       0.01077       0.01152
  18    H         -0.00376      -0.00895      -0.53328
  19    H         -0.37512       0.12401      -0.00290
  20    H          0.26908      -0.10437      -0.00604
  21    H         -0.15382       0.07625       0.37656
  22    H          0.49938      -0.16166       0.03777
 *+*+*+*+*+*+*+*+*+*+*+*+*+*+*+*+*+*+*+*+*+*+*+*+*+*+*+*+*+*+*+*+*+*+*+*+*+*+*+*+
            BAR SHORTENED BY       0.000 PERCENT
 GRADIENT CRITERION IN FLEPO =     1.000
           THERE HAVE BEEN 3 ATTEMPTS TO REDUCE THE GRADIENT.
           DURING THESE ATTEMPTS THE ENERGY DROPPED BY LESS THAN 0.3 KCAL/MOLE
           FURTHER CALCULATION IS NOT JUSTIFIED AT THIS TIME.
           TO CONTINUE, START AGAIN WITH THE WORD "PRECISE"


          FOR POINT    1 SECOND STRUCTURE
 DISTANCE A - B      1.775029
 HEAT               45.430908
 GRADIENT NORM      12.903220
 DIRECTION COSINE   -0.000000
 geo-ok HTML
 Transition state for Cyclobutadiene + ethylene <=> bicyclo[2,2,1]heptene

  C(HETATM    1  C1  HET A   1)   0.00000000 +0    0.0000000 +0    0.0000000 +0
  C(HETATM    2  C2  HET A   1)   1.52222984 +1    0.0000000 +0    0.0000000 +0     1     0     0
  C(HETATM    3  C3  HET A   1)   1.34557854 +1  107.9728706 +1    0.0000000 +0     2     1     0
  C(HETATM    4  C4  HET A   1)   1.52115986 +1  107.8377995 +1    0.0040043 +1     3     2     1
  C(HETATM    5  C5  HET A   1)   1.57529476 +1  105.4331594 +1  -70.9332221 +1     4     3     2
  C(HETATM    6  C6  HET A   1)   1.57921856 +1  105.4740424 +1   70.5487658 +1     1     2     3
  C(HETATM    7  C7  HET A   1)   1.50032487 +1  110.8847940 +1 -177.7532799 +1     6     1     2
  C(HETATM    8  C8  HET A   1)   1.34000517 +1  112.3853602 +1  108.0793419 +1     7     6     1
  C(HETATM    9  C9  HET A   1)   1.50620050 +1  112.6216610 +1    4.3414018 +1     8     7     6
  C(HETATM   10  C10 HET A   1)   1.56586144 +1  100.5346071 +1   33.0841952 +1     4     3     2
  H(HETATM   11  H1  HET A   1)   1.08875019 +1  116.8053068 +1 -159.6470679 +1     1     2     3
  H(HETATM   12  H2  HET A   1)   1.06695739 +1  122.2479377 +1 -178.5996131 +1     2     1     3
  H(HETATM   13  H3  HET A   1)   1.06846697 +1  129.8700685 +1 -178.5318639 +1     3     2     1
  H(HETATM   14  H4  HET A   1)   1.08846126 +1  116.3748210 +1  159.5517068 +1     4     3     2
  H(HETATM   15  H5  HET A   1)   1.09788541 +1  112.1887140 +1  -53.8299519 +1     5     4     3
  H(HETATM   16  H6  HET A   1)   1.10116940 +1  112.0280992 +1   55.1773771 +1     6     1     2
  H(HETATM   17  H7  HET A   1)   1.07459386 +1  120.0514331 +1  -69.6508635 +1     7     6     1
  H(HETATM   18  H8  HET A   1)   1.07282465 +1  127.5617588 +1 -174.1732662 +1     8     7     6
  H(HETATM   19 1H9  HET A   1)   1.10262974 +1  112.0921748 +1 -124.9054056 +1     9     8     7
  H(HETATM   20 2H9  HET A   1)   1.10253640 +1  110.7704299 +1  117.1136109 +1     9     8     7
  H(HETATM   21 1H10 HET A   1)   1.09580327 +1  113.0845282 +1 -165.7225701 +1    10     4     3
  H(HETATM   22 2H10 HET A   1)   1.08919856 +1  115.0450584 +1   70.6048429 +1    10     4     3
 
 TIME=     0.12
  REACTANTS AND PRODUCTS SWAPPED AROUND
 *+*+*+*+*+*+*+*+*+*+*+*+*+*+*+*+*+*+*+*+*+*+*+*+*+*+*+*+*+*+*+*+*+*+*+*+*+*+*+*+
            BAR SHORTENED BY       1.000 PERCENT
 GRADIENT CRITERION IN FLEPO =     9.903


          FOR POINT    2 FIRST  STRUCTURE
 DISTANCE A - B      1.757279
 HEAT               64.034382
 GRADIENT NORM      15.692532
 DIRECTION COSINE    0.324738
 geo-ok HTML
 Transition state for Cyclobutadiene + ethylene <=> bicyclo[2,2,1]heptene

  C(HETATM    1  C1  HET A   1)   0.00000000 +0    0.0000000 +0    0.0000000 +0
  C(HETATM    2  C2  HET A   1)   1.35525186 +1    0.0000000 +0    0.0000000 +0     1     0     0
  C(HETATM    3  C3  HET A   1)   1.46794169 +1  109.1345498 +1    0.0000000 +0     2     1     0
  C(HETATM    4  C4  HET A   1)   1.35517463 +1  108.9917522 +1    0.4034497 +1     3     2     1
  C(HETATM    5  C5  HET A   1)   2.95894205 +1   85.0073563 +1  -81.9041114 +1     4     3     2
  C(HETATM    6  C6  HET A   1)   1.35469666 +1  101.1212376 +1   71.8945514 +1     5     4     3
  C(HETATM    7  C7  HET A   1)   1.46435081 +1  109.1904312 +1   93.7968093 +1     6     5     4
  C(HETATM    8  C8  HET A   1)   1.35260512 +1  109.5714973 +1   -0.2556665 +1     7     6     5
  C(HETATM    9  C9  HET A   1)   1.50923968 +1   89.6040170 +1 -178.3789273 +1     5     4     3
  C(HETATM   10  C10 HET A   1)   1.50797878 +1  109.4797103 +1   -4.2239752 +1     1     2     3
  H(HETATM   11  H1  HET A   1)   1.06836691 +1  129.1092313 +1  174.0684900 +1     1     2     3
  H(HETATM   12  H2  HET A   1)   1.07042942 +1  128.0172513 +1  179.8449658 +1     2     1     3
  H(HETATM   13  H3  HET A   1)   1.06908744 +1  123.0206654 +1 -178.9277010 +1     3     2     1
  H(HETATM   14  H4  HET A   1)   1.06796258 +1  128.4572869 +1 -175.2502895 +1     4     3     2
  H(HETATM   15  H5  HET A   1)   1.06760789 +1   79.8176812 +1  -56.1601235 +1     5     4     3
  H(HETATM   16  H6  HET A   1)   1.06740941 +1  128.1182211 +1  -85.6130881 +1     6     5     4
  H(HETATM   17  H7  HET A   1)   1.06838482 +1  122.7144840 +1 -179.9970833 +1     7     6     5
  H(HETATM   18  H8  HET A   1)   1.06725992 +1  128.6959463 +1 -179.5845477 +1     8     7     6
  H(HETATM   19 1H9  HET A   1)   1.09686625 +1  112.9084772 +1   18.4661344 +1     9     5     4
  H(HETATM   20 2H9  HET A   1)   1.10425760 +1  111.6585992 +1  138.3758445 +1     9     5     4
  H(HETATM   21 1H10 HET A   1)   1.10459929 +1  113.5215900 +1  129.8445321 +1    10     1     2
  H(HETATM   22 2H10 HET A   1)   1.11253559 +1  110.4591402 +1 -110.9848365 +1    10     1     2
 
 TIME=     0.11
  REACTANTS AND PRODUCTS SWAPPED AROUND
 *+*+*+*+*+*+*+*+*+*+*+*+*+*+*+*+*+*+*+*+*+*+*+*+*+*+*+*+*+*+*+*+*+*+*+*+*+*+*+*+
            BAR SHORTENED BY       1.000 PERCENT
 GRADIENT CRITERION IN FLEPO =    10.000


          FOR POINT    3 SECOND STRUCTURE
 DISTANCE A - B      1.739706
 HEAT               45.513647
 GRADIENT NORM      23.486455
 DIRECTION COSINE    0.295528
 geo-ok HTML
 Transition state for Cyclobutadiene + ethylene <=> bicyclo[2,2,1]heptene

  C(HETATM    1  C1  HET A   1)   0.00000000 +0    0.0000000 +0    0.0000000 +0
  C(HETATM    2  C2  HET A   1)   1.51979204 +1    0.0000000 +0    0.0000000 +0     1     0     0
  C(HETATM    3  C3  HET A   1)   1.34680203 +1  107.9918163 +1    0.0000000 +0     2     1     0
  C(HETATM    4  C4  HET A   1)   1.51870738 +1  107.8584610 +1    0.0074842 +1     3     2     1
  C(HETATM    5  C5  HET A   1)   1.58906257 +1  105.2487705 +1  -71.0739917 +1     4     3     2
  C(HETATM    6  C6  HET A   1)   1.58308536 +1  102.6391331 +1   67.4834330 +1     5     4     3
  C(HETATM    7  C7  HET A   1)   1.49920177 +1  104.4086876 +1  115.2913226 +1     6     5     4
  C(HETATM    8  C8  HET A   1)   1.33985221 +1  112.3355177 +1   -1.9427881 +1     7     6     5
  C(HETATM    9  C9  HET A   1)   1.50620567 +1  112.6052590 +1    4.3189360 +1     8     7     6
  C(HETATM   10  C10 HET A   1)   1.56464769 +1  100.6779645 +1   32.8488519 +1     4     3     2
  H(HETATM   11  H1  HET A   1)   1.08801358 +1  117.0032840 +1 -159.8149584 +1     1     2     3
  H(HETATM   12  H2  HET A   1)   1.06654752 +1  122.2809243 +1 -178.5754660 +1     2     1     3
  H(HETATM   13  H3  HET A   1)   1.06798660 +1  129.8197549 +1 -178.4945142 +1     3     2     1
  H(HETATM   14  H4  HET A   1)   1.08775224 +1  116.5690614 +1  159.7127248 +1     4     3     2
  H(HETATM   15  H5  HET A   1)   1.09549161 +1  111.9278176 +1  -53.8209718 +1     5     4     3
  H(HETATM   16  H6  HET A   1)   1.09895820 +1  113.4321585 +1 -121.1331907 +1     6     5     4
  H(HETATM   17  H7  HET A   1)   1.07451143 +1  120.0827098 +1 -179.6853023 +1     7     6     5
  H(HETATM   18  H8  HET A   1)   1.07242110 +1  127.5595120 +1 -174.2192184 +1     8     7     6
  H(HETATM   19 1H9  HET A   1)   1.10208380 +1  112.1011449 +1 -124.8785678 +1     9     8     7
  H(HETATM   20 2H9  HET A   1)   1.10217984 +1  110.7990074 +1  117.1320967 +1     9     8     7
  H(HETATM   21 1H10 HET A   1)   1.09528648 +1  113.0706323 +1 -165.4273510 +1    10     4     3
  H(HETATM   22 2H10 HET A   1)   1.08875772 +1  115.0031407 +1   70.9631086 +1    10     4     3
 
 *+*+*+*+*+*+*+*+*+*+*+*+*+*+*+*+*+*+*+*+*+*+*+*+*+*+*+*+*+*+*+*+*+*+*+*+*+*+*+*+
            BAR SHORTENED BY       1.000 PERCENT
 GRADIENT CRITERION IN FLEPO =    10.000


          FOR POINT    4 SECOND STRUCTURE
 DISTANCE A - B      1.722309
 HEAT               45.816290
 GRADIENT NORM      26.972493
 DIRECTION COSINE    0.844259
 geo-ok HTML
 Transition state for Cyclobutadiene + ethylene <=> bicyclo[2,2,1]heptene

  C(HETATM    1  C1  HET A   1)   0.00000000 +0    0.0000000 +0    0.0000000 +0
  C(HETATM    2  C2  HET A   1)   1.51996154 +1    0.0000000 +0    0.0000000 +0     1     0     0
  C(HETATM    3  C3  HET A   1)   1.34508274 +1  108.0302636 +1    0.0000000 +0     2     1     0
  C(HETATM    4  C4  HET A   1)   1.51845168 +1  107.7917296 +1   -0.0409665 +1     3     2     1
  C(HETATM    5  C5  HET A   1)   1.59417380 +1  105.2894302 +1  -71.0411720 +1     4     3     2
  C(HETATM    6  C6  HET A   1)   1.58784263 +1  102.5996623 +1   67.2910581 +1     5     4     3
  C(HETATM    7  C7  HET A   1)   1.50326211 +1  103.9197082 +1  115.3831751 +1     6     5     4
  C(HETATM    8  C8  HET A   1)   1.34120528 +1  112.4810081 +1   -2.0546839 +1     7     6     5
  C(HETATM    9  C9  HET A   1)   1.50224998 +1  112.7425692 +1    4.7232506 +1     8     7     6
  C(HETATM   10  C10 HET A   1)   1.56218740 +1  100.4162872 +1  -32.8737825 +1     1     2     3
  H(HETATM   11  H1  HET A   1)   1.08894273 +1  116.6899610 +1 -159.6934441 +1     1     2     3
  H(HETATM   12  H2  HET A   1)   1.06966826 +1  122.3555094 +1 -177.9983217 +1     2     1     3
  H(HETATM   13  H3  HET A   1)   1.06882710 +1  129.7035288 +1 -177.7710641 +1     3     2     1
  H(HETATM   14  H4  HET A   1)   1.09158207 +1  116.5418429 +1  159.5820044 +1     4     3     2
  H(HETATM   15  H5  HET A   1)   1.09990138 +1  111.7062399 +1  -54.0778280 +1     5     4     3
  H(HETATM   16  H6  HET A   1)   1.09650319 +1  113.3297204 +1 -121.2258719 +1     6     5     4
  H(HETATM   17  H7  HET A   1)   1.07120698 +1  119.7890062 +1 -179.9583305 +1     7     6     5
  H(HETATM   18  H8  HET A   1)   1.07469193 +1  127.3602814 +1 -173.6015106 +1     8     7     6
  H(HETATM   19 1H9  HET A   1)   1.10465019 +1  112.0785801 +1 -124.5752797 +1     9     8     7
  H(HETATM   20 2H9  HET A   1)   1.09992955 +1  111.0739857 +1  117.3884783 +1     9     8     7
  H(HETATM   21 1H10 HET A   1)   1.09435254 +1  112.4157176 +1  165.6961663 +1    10     1     2
  H(HETATM   22 2H10 HET A   1)   1.09436972 +1  115.5541083 +1  -71.2855471 +1    10     1     2
 
 *+*+*+*+*+*+*+*+*+*+*+*+*+*+*+*+*+*+*+*+*+*+*+*+*+*+*+*+*+*+*+*+*+*+*+*+*+*+*+*+
            BAR SHORTENED BY       1.000 PERCENT
 GRADIENT CRITERION IN FLEPO =    10.000


          FOR POINT    5 SECOND STRUCTURE
 DISTANCE A - B      1.705086
 HEAT               46.294033
 GRADIENT NORM      24.501298
 DIRECTION COSINE    0.816411
 geo-ok HTML
 Transition state for Cyclobutadiene + ethylene <=> bicyclo[2,2,1]heptene

  C(HETATM    1  C1  HET A   1)   0.00000000 +0    0.0000000 +0    0.0000000 +0
  C(HETATM    2  C2  HET A   1)   1.51983940 +1    0.0000000 +0    0.0000000 +0     1     0     0
  C(HETATM    3  C3  HET A   1)   1.34597086 +1  107.9771119 +1    0.0000000 +0     2     1     0
  C(HETATM    4  C4  HET A   1)   1.52071921 +1  107.7863111 +1    0.0351347 +1     3     2     1
  C(HETATM    5  C5  HET A   1)   1.59115523 +1  105.2001358 +1  -71.0028257 +1     4     3     2
  C(HETATM    6  C6  HET A   1)   1.58241947 +1  102.7722107 +1   67.4305377 +1     5     4     3
  C(HETATM    7  C7  HET A   1)   1.50434447 +1  104.1759384 +1  115.9061584 +1     6     5     4
  C(HETATM    8  C8  HET A   1)   1.33952606 +1  112.4076064 +1   -3.0710164 +1     7     6     5
  C(HETATM    9  C9  HET A   1)   1.50565058 +1  112.5521345 +1    5.7952729 +1     8     7     6
  C(HETATM   10  C10 HET A   1)   1.56348926 +1  100.4977154 +1   33.0765403 +1     4     3     2
  H(HETATM   11  H1  HET A   1)   1.09222184 +1  116.4648421 +1 -158.8980859 +1     1     2     3
  H(HETATM   12  H2  HET A   1)   1.06671160 +1  122.4297045 +1 -177.2384180 +1     2     1     3
  H(HETATM   13  H3  HET A   1)   1.06740488 +1  129.7335350 +1 -176.7114007 +1     3     2     1
  H(HETATM   14  H4  HET A   1)   1.09334178 +1  116.2887712 +1  158.6907703 +1     4     3     2
  H(HETATM   15  H5  HET A   1)   1.10330183 +1  111.6524355 +1  -54.3778228 +1     5     4     3
  H(HETATM   16  H6  HET A   1)   1.10355851 +1  113.4920885 +1 -121.2111090 +1     6     5     4
  H(HETATM   17  H7  HET A   1)   1.07394965 +1  119.9821762 +1 -179.8641273 +1     7     6     5
  H(HETATM   18  H8  HET A   1)   1.08125940 +1  127.2783667 +1 -172.5179557 +1     8     7     6
  H(HETATM   19 1H9  HET A   1)   1.09980586 +1  112.2722479 +1 -125.0905560 +1     9     8     7
  H(HETATM   20 2H9  HET A   1)   1.10343568 +1  110.6327434 +1  117.1481182 +1     9     8     7
  H(HETATM   21 1H10 HET A   1)   1.09454728 +1  112.6838930 +1 -165.2348895 +1    10     4     3
  H(HETATM   22 2H10 HET A   1)   1.09393697 +1  115.6815847 +1   71.6696607 +1    10     4     3
 
 TIME=     0.08
  REACTANTS AND PRODUCTS SWAPPED AROUND
 *+*+*+*+*+*+*+*+*+*+*+*+*+*+*+*+*+*+*+*+*+*+*+*+*+*+*+*+*+*+*+*+*+*+*+*+*+*+*+*+
            BAR SHORTENED BY       0.000 PERCENT
 GRADIENT CRITERION IN FLEPO =    10.000


          FOR POINT    6 FIRST  STRUCTURE
 DISTANCE A - B      1.705086
 HEAT               64.355651
 GRADIENT NORM      17.285803
 DIRECTION COSINE    0.522334
 geo-ok HTML
 Transition state for Cyclobutadiene + ethylene <=> bicyclo[2,2,1]heptene

  C(HETATM    1  C1  HET A   1)   0.00000000 +0    0.0000000 +0    0.0000000 +0
  C(HETATM    2  C2  HET A   1)   1.35479444 +1    0.0000000 +0    0.0000000 +0     1     0     0
  C(HETATM    3  C3  HET A   1)   1.46489098 +1  109.1666201 +1    0.0000000 +0     2     1     0
  C(HETATM    4  C4  HET A   1)   1.35521840 +1  109.0806725 +1    0.3756202 +1     3     2     1
  C(HETATM    5  C5  HET A   1)   2.94320796 +1   85.3460836 +1  -81.7484566 +1     4     3     2
  C(HETATM    6  C6  HET A   1)   1.35563793 +1  101.2175408 +1   71.7099908 +1     5     4     3
  C(HETATM    7  C7  HET A   1)   1.46633693 +1  109.1440913 +1   93.9591274 +1     6     5     4
  C(HETATM    8  C8  HET A   1)   1.35128640 +1  109.4025807 +1   -0.0437588 +1     7     6     5
  C(HETATM    9  C9  HET A   1)   1.51030176 +1  109.3916604 +1    0.1972915 +1     8     7     6
  C(HETATM   10  C10 HET A   1)   1.50991913 +1  109.4504343 +1   -4.7303901 +1     1     2     3
  H(HETATM   11  H1  HET A   1)   1.06738758 +1  128.5631338 +1  179.5474632 +1     1     2     3
  H(HETATM   12  H2  HET A   1)   1.06906382 +1  127.7307545 +1 -179.4167984 +1     2     1     3
  H(HETATM   13  H3  HET A   1)   1.07124988 +1  123.1473589 +1 -178.6036205 +1     3     2     1
  H(HETATM   14  H4  HET A   1)   1.06868669 +1  128.7151491 +1 -177.1689812 +1     4     3     2
  H(HETATM   15  H5  HET A   1)   1.06638964 +1   80.1906420 +1  -56.0175077 +1     5     4     3
  H(HETATM   16  H6  HET A   1)   1.07155520 +1  127.9665186 +1  -86.5924971 +1     6     5     4
  H(HETATM   17  H7  HET A   1)   1.07753099 +1  122.6737051 +1 -179.7398497 +1     7     6     5
  H(HETATM   18  H8  HET A   1)   1.06911082 +1  128.6972443 +1 -179.9547001 +1     8     7     6
  H(HETATM   19 1H9  HET A   1)   1.10586617 +1  111.8847213 +1 -120.7681262 +1     9     8     7
  H(HETATM   20 2H9  HET A   1)   1.10062126 +1  112.7409483 +1  119.4411794 +1     9     8     7
  H(HETATM   21 1H10 HET A   1)   1.10308650 +1  113.1633159 +1  130.0000161 +1    10     1     2
  H(HETATM   22 2H10 HET A   1)   1.10734226 +1  110.4834207 +1 -110.5261102 +1    10     1     2
 
 TIME=     0.02
  REACTANTS AND PRODUCTS SWAPPED AROUND
 *+*+*+*+*+*+*+*+*+*+*+*+*+*+*+*+*+*+*+*+*+*+*+*+*+*+*+*+*+*+*+*+*+*+*+*+*+*+*+*+
            BAR SHORTENED BY       1.000 PERCENT
 GRADIENT CRITERION IN FLEPO =    10.000


          FOR POINT    7 SECOND STRUCTURE
 DISTANCE A - B      1.688035
 HEAT               46.674324
 GRADIENT NORM      29.600288
 DIRECTION COSINE    0.666857
 geo-ok HTML
 Transition state for Cyclobutadiene + ethylene <=> bicyclo[2,2,1]heptene

  C(HETATM    1  C1  HET A   1)   0.00000000 +0    0.0000000 +0    0.0000000 +0
  C(HETATM    2  C2  HET A   1)   1.51786497 +1    0.0000000 +0    0.0000000 +0     1     0     0
  C(HETATM    3  C3  HET A   1)   1.34445043 +1  108.1143474 +1    0.0000000 +0     2     1     0
  C(HETATM    4  C4  HET A   1)   1.51913094 +1  107.7676651 +1    0.1806679 +1     3     2     1
  C(HETATM    5  C5  HET A   1)   1.59377356 +1  104.8513234 +1  -71.5151425 +1     4     3     2
  C(HETATM    6  C6  HET A   1)   1.58122374 +1  102.8148035 +1   67.5673142 +1     5     4     3
  C(HETATM    7  C7  HET A   1)   1.50311544 +1  104.3767551 +1  115.6439966 +1     6     5     4
  C(HETATM    8  C8  HET A   1)   1.34340087 +1  112.3719540 +1   -2.7480115 +1     7     6     5
  C(HETATM    9  C9  HET A   1)   1.50374358 +1  112.3356870 +1    5.6946343 +1     8     7     6
  C(HETATM   10  C10 HET A   1)   1.56268088 +1  100.6179341 +1  -32.8581586 +1     1     2     3
  H(HETATM   11  H1  HET A   1)   1.08826059 +1  116.6258633 +1 -158.9435925 +1     1     2     3
  H(HETATM   12  H2  HET A   1)   1.06925882 +1  122.2612775 +1 -175.7125622 +1     2     1     3
  H(HETATM   13  H3  HET A   1)   1.06871276 +1  129.5801992 +1 -176.3689845 +1     3     2     1
  H(HETATM   14  H4  HET A   1)   1.08872293 +1  116.3586465 +1  158.4382760 +1     4     3     2
  H(HETATM   15  H5  HET A   1)   1.10199216 +1  111.8217427 +1  -54.2658922 +1     5     4     3
  H(HETATM   16  H6  HET A   1)   1.10179450 +1  113.9935525 +1 -120.8235876 +1     6     5     4
  H(HETATM   17  H7  HET A   1)   1.07372718 +1  120.1246294 +1  179.9547941 +1     7     6     5
  H(HETATM   18  H8  HET A   1)   1.07575691 +1  127.2869496 +1 -172.2696592 +1     8     7     6
  H(HETATM   19 1H9  HET A   1)   1.10314629 +1  112.4374387 +1 -124.8486917 +1     9     8     7
  H(HETATM   20 2H9  HET A   1)   1.10523248 +1  110.6717315 +1  117.4388383 +1     9     8     7
  H(HETATM   21 1H10 HET A   1)   1.09263119 +1  112.3330866 +1  165.0628735 +1    10     1     2
  H(HETATM   22 2H10 HET A   1)   1.09634760 +1  115.7235489 +1  -72.0112900 +1    10     1     2
 
 *+*+*+*+*+*+*+*+*+*+*+*+*+*+*+*+*+*+*+*+*+*+*+*+*+*+*+*+*+*+*+*+*+*+*+*+*+*+*+*+
            BAR SHORTENED BY       1.000 PERCENT
 GRADIENT CRITERION IN FLEPO =    10.000


          FOR POINT    8 SECOND STRUCTURE
 DISTANCE A - B      1.671155
 HEAT               47.109324
 GRADIENT NORM      31.708438
 DIRECTION COSINE    0.810866
 geo-ok HTML
 Transition state for Cyclobutadiene + ethylene <=> bicyclo[2,2,1]heptene

  C(HETATM    1  C1  HET A   1)   0.00000000 +0    0.0000000 +0    0.0000000 +0
  C(HETATM    2  C2  HET A   1)   1.51931270 +1    0.0000000 +0    0.0000000 +0     1     0     0
  C(HETATM    3  C3  HET A   1)   1.34608344 +1  108.0892464 +1    0.0000000 +0     2     1     0
  C(HETATM    4  C4  HET A   1)   1.51848661 +1  107.6759833 +1   -0.6344274 +1     3     2     1
  C(HETATM    5  C5  HET A   1)   1.59991602 +1  104.8323969 +1  -71.0283158 +1     4     3     2
  C(HETATM    6  C6  HET A   1)   1.58208041 +1  102.5900787 +1   67.6665152 +1     5     4     3
  C(HETATM    7  C7  HET A   1)   1.50506549 +1  104.2046211 +1  116.0394125 +1     6     5     4
  C(HETATM    8  C8  HET A   1)   1.33968166 +1  112.3770880 +1   -3.5653228 +1     7     6     5
  C(HETATM    9  C9  HET A   1)   1.50523110 +1  112.4750338 +1    6.4152386 +1     8     7     6
  C(HETATM   10  C10 HET A   1)   1.56180384 +1  100.7998091 +1  -32.1204527 +1     1     2     3
  H(HETATM   11  H1  HET A   1)   1.09010902 +1  116.5105417 +1 -158.1251464 +1     1     2     3
  H(HETATM   12  H2  HET A   1)   1.06819344 +1  122.4886215 +1 -177.8529014 +1     2     1     3
  H(HETATM   13  H3  HET A   1)   1.06771486 +1  129.5550593 +1 -176.2925108 +1     3     2     1
  H(HETATM   14  H4  HET A   1)   1.09118836 +1  116.2484384 +1  158.9272763 +1     4     3     2
  H(HETATM   15  H5  HET A   1)   1.09533665 +1  111.2461661 +1  -54.2330811 +1     5     4     3
  H(HETATM   16  H6  HET A   1)   1.10299068 +1  113.8518671 +1 -120.9108230 +1     6     5     4
  H(HETATM   17  H7  HET A   1)   1.08303987 +1  120.7205163 +1  174.3549689 +1     7     6     5
  H(HETATM   18  H8  HET A   1)   1.07373906 +1  127.3997129 +1 -171.7009587 +1     8     7     6
  H(HETATM   19 1H9  HET A   1)   1.10048096 +1  112.5363514 +1 -125.1412973 +1     9     8     7
  H(HETATM   20 2H9  HET A   1)   1.10583978 +1  110.3259429 +1  116.9417029 +1     9     8     7
  H(HETATM   21 1H10 HET A   1)   1.09422968 +1  112.0997660 +1  164.5277997 +1    10     1     2
  H(HETATM   22 2H10 HET A   1)   1.09436456 +1  116.0357259 +1  -72.7827573 +1    10     1     2
 
 *+*+*+*+*+*+*+*+*+*+*+*+*+*+*+*+*+*+*+*+*+*+*+*+*+*+*+*+*+*+*+*+*+*+*+*+*+*+*+*+
            BAR SHORTENED BY       1.000 PERCENT
 GRADIENT CRITERION IN FLEPO =    10.000


          FOR POINT    9 SECOND STRUCTURE
 DISTANCE A - B      1.654443
 HEAT               47.574736
 GRADIENT NORM      36.363528
 DIRECTION COSINE    0.933425
 geo-ok HTML
 Transition state for Cyclobutadiene + ethylene <=> bicyclo[2,2,1]heptene

  C(HETATM    1  C1  HET A   1)   0.00000000 +0    0.0000000 +0    0.0000000 +0
  C(HETATM    2  C2  HET A   1)   1.51766662 +1    0.0000000 +0    0.0000000 +0     1     0     0
  C(HETATM    3  C3  HET A   1)   1.34687107 +1  107.9378063 +1    0.0000000 +0     2     1     0
  C(HETATM    4  C4  HET A   1)   1.51604768 +1  107.7358577 +1   -0.1950566 +1     3     2     1
  C(HETATM    5  C5  HET A   1)   1.61198386 +1  104.5265089 +1  -71.3918268 +1     4     3     2
  C(HETATM    6  C6  HET A   1)   1.58036901 +1  102.5657935 +1   67.7478721 +1     5     4     3
  C(HETATM    7  C7  HET A   1)   1.50129549 +1  104.2325593 +1  116.0529229 +1     6     5     4
  C(HETATM    8  C8  HET A   1)   1.34060969 +1  112.4423146 +1   -3.9459733 +1     7     6     5
  C(HETATM    9  C9  HET A   1)   1.50518817 +1  112.3378080 +1    6.8182771 +1     8     7     6
  C(HETATM   10  C10 HET A   1)   1.55787567 +1  101.0065808 +1  -32.2743818 +1     1     2     3
  H(HETATM   11  H1  HET A   1)   1.08907322 +1  116.2482791 +1 -158.2358516 +1     1     2     3
  H(HETATM   12  H2  HET A   1)   1.06458551 +1  122.7383355 +1 -177.2068917 +1     2     1     3
  H(HETATM   13  H3  HET A   1)   1.06704959 +1  129.5168060 +1 -176.1441950 +1     3     2     1
  H(HETATM   14  H4  HET A   1)   1.08421460 +1  116.4242211 +1  158.7312934 +1     4     3     2
  H(HETATM   15  H5  HET A   1)   1.09956113 +1  111.0168621 +1  -54.3474051 +1     5     4     3
  H(HETATM   16  H6  HET A   1)   1.10512449 +1  113.8489249 +1 -120.6951523 +1     6     5     4
  H(HETATM   17  H7  HET A   1)   1.07832555 +1  120.7810730 +1  174.8245341 +1     7     6     5
  H(HETATM   18  H8  HET A   1)   1.07488574 +1  127.7229402 +1 -171.5864259 +1     8     7     6
  H(HETATM   19 1H9  HET A   1)   1.09948653 +1  112.8467927 +1 -125.5367187 +1     9     8     7
  H(HETATM   20 2H9  HET A   1)   1.10824742 +1  110.2561520 +1  116.6193939 +1     9     8     7
  H(HETATM   21 1H10 HET A   1)   1.09360245 +1  112.0979842 +1  164.4442485 +1    10     1     2
  H(HETATM   22 2H10 HET A   1)   1.09754445 +1  116.0720234 +1  -72.9186351 +1    10     1     2
 
 TIME=     0.09
  REACTANTS AND PRODUCTS SWAPPED AROUND
 *+*+*+*+*+*+*+*+*+*+*+*+*+*+*+*+*+*+*+*+*+*+*+*+*+*+*+*+*+*+*+*+*+*+*+*+*+*+*+*+
            BAR SHORTENED BY       0.000 PERCENT
 GRADIENT CRITERION IN FLEPO =    10.000


          FOR POINT   10 FIRST  STRUCTURE
 DISTANCE A - B      1.654443
 HEAT               63.899248
 GRADIENT NORM      13.595505
 DIRECTION COSINE    0.512054
 geo-ok HTML
 Transition state for Cyclobutadiene + ethylene <=> bicyclo[2,2,1]heptene

  C(HETATM    1  C1  HET A   1)   0.00000000 +0    0.0000000 +0    0.0000000 +0
  C(HETATM    2  C2  HET A   1)   1.35466184 +1    0.0000000 +0    0.0000000 +0     1     0     0
  C(HETATM    3  C3  HET A   1)   1.46814631 +1  109.2398756 +1    0.0000000 +0     2     1     0
  C(HETATM    4  C4  HET A   1)   1.35441197 +1  108.9821295 +1    0.6196544 +1     3     2     1
  C(HETATM    5  C5  HET A   1)   2.94601629 +1   84.6583863 +1  -82.2233137 +1     4     3     2
  C(HETATM    6  C6  HET A   1)   1.35115439 +1  101.2470827 +1   71.7902310 +1     5     4     3
  C(HETATM    7  C7  HET A   1)   1.46988033 +1  109.1892588 +1   94.0014877 +1     6     5     4
  C(HETATM    8  C8  HET A   1)   1.35405083 +1  109.1875046 +1    0.2625896 +1     7     6     5
  C(HETATM    9  C9  HET A   1)   1.51034900 +1   90.1010193 +1 -178.1617386 +1     5     4     3
  C(HETATM   10  C10 HET A   1)   1.50916326 +1  109.5695603 +1    3.1352135 +1     4     3     2
  H(HETATM   11  H1  HET A   1)   1.06588235 +1  128.9043809 +1  178.0807655 +1     1     2     3
  H(HETATM   12  H2  HET A   1)   1.07392386 +1  127.9054304 +1 -179.1772338 +1     2     1     3
  H(HETATM   13  H3  HET A   1)   1.07033563 +1  123.0108031 +1  179.5819848 +1     3     2     1
  H(HETATM   14  H4  HET A   1)   1.06838151 +1  128.5252203 +1 -176.7294784 +1     4     3     2
  H(HETATM   15  H5  HET A   1)   1.07059303 +1   79.7705692 +1  -55.9482646 +1     5     4     3
  H(HETATM   16  H6  HET A   1)   1.07137181 +1  128.0098598 +1  -86.3582312 +1     6     5     4
  H(HETATM   17  H7  HET A   1)   1.07216963 +1  122.7476788 +1 -179.6894667 +1     7     6     5
  H(HETATM   18  H8  HET A   1)   1.06662701 +1  128.7745207 +1 -179.8051810 +1     8     7     6
  H(HETATM   19 1H9  HET A   1)   1.10386419 +1  112.5121683 +1   18.5796409 +1     9     5     4
  H(HETATM   20 2H9  HET A   1)   1.10393663 +1  111.3241899 +1  137.7662346 +1     9     5     4
  H(HETATM   21 1H10 HET A   1)   1.10222794 +1  114.1368845 +1 -128.6209880 +1    10     4     3
  H(HETATM   22 2H10 HET A   1)   1.10751417 +1  110.0591349 +1  111.7890698 +1    10     4     3
 
 TIME=     0.03
  REACTANTS AND PRODUCTS SWAPPED AROUND
 *+*+*+*+*+*+*+*+*+*+*+*+*+*+*+*+*+*+*+*+*+*+*+*+*+*+*+*+*+*+*+*+*+*+*+*+*+*+*+*+
            BAR SHORTENED BY       1.000 PERCENT
 GRADIENT CRITERION IN FLEPO =    10.000


          FOR POINT   11 SECOND STRUCTURE
 DISTANCE A - B      1.637899
 HEAT               47.912234
 GRADIENT NORM      39.619202
 DIRECTION COSINE    0.533655
 geo-ok HTML
 Transition state for Cyclobutadiene + ethylene <=> bicyclo[2,2,1]heptene

  C(HETATM    1  C1  HET A   1)   0.00000000 +0    0.0000000 +0    0.0000000 +0
  C(HETATM    2  C2  HET A   1)   1.51834895 +1    0.0000000 +0    0.0000000 +0     1     0     0
  C(HETATM    3  C3  HET A   1)   1.34449096 +1  107.9893015 +1    0.0000000 +0     2     1     0
  C(HETATM    4  C4  HET A   1)   1.51501385 +1  107.7995220 +1   -0.0606327 +1     3     2     1
  C(HETATM    5  C5  HET A   1)   1.61588730 +1  104.4074631 +1  -71.7693972 +1     4     3     2
  C(HETATM    6  C6  HET A   1)   1.58097434 +1  102.4412385 +1   67.8828562 +1     5     4     3
  C(HETATM    7  C7  HET A   1)   1.50472648 +1  104.3102664 +1  116.0157904 +1     6     5     4
  C(HETATM    8  C8  HET A   1)   1.34208953 +1  112.2049407 +1   -4.2016031 +1     7     6     5
  C(HETATM    9  C9  HET A   1)   1.50550898 +1  112.4684338 +1    7.1685898 +1     8     7     6
  C(HETATM   10  C10 HET A   1)   1.56104408 +1  101.2693354 +1   32.4596657 +1     4     3     2
  H(HETATM   11  H1  HET A   1)   1.09030295 +1  116.4569850 +1 -158.2100524 +1     1     2     3
  H(HETATM   12  H2  HET A   1)   1.06744620 +1  122.5397598 +1 -176.5765630 +1     2     1     3
  H(HETATM   13  H3  HET A   1)   1.06819309 +1  129.3105879 +1 -174.2320140 +1     3     2     1
  H(HETATM   14  H4  HET A   1)   1.08991870 +1  116.2538687 +1  158.4731806 +1     4     3     2
  H(HETATM   15  H5  HET A   1)   1.09950782 +1  111.1205826 +1  -54.3327354 +1     5     4     3
  H(HETATM   16  H6  HET A   1)   1.10297472 +1  114.1314474 +1 -120.6916058 +1     6     5     4
  H(HETATM   17  H7  HET A   1)   1.07269893 +1  120.6847765 +1  175.4343509 +1     7     6     5
  H(HETATM   18  H8  HET A   1)   1.07561652 +1  127.3403812 +1 -171.1264068 +1     8     7     6
  H(HETATM   19 1H9  HET A   1)   1.09769838 +1  112.7883331 +1 -125.5032104 +1     9     8     7
  H(HETATM   20 2H9  HET A   1)   1.10353108 +1  110.1448674 +1  116.6150289 +1     9     8     7
  H(HETATM   21 1H10 HET A   1)   1.09199236 +1  112.3800839 +1 -163.8168447 +1    10     4     3
  H(HETATM   22 2H10 HET A   1)   1.09398720 +1  115.8822251 +1   73.1308329 +1    10     4     3
 
 *+*+*+*+*+*+*+*+*+*+*+*+*+*+*+*+*+*+*+*+*+*+*+*+*+*+*+*+*+*+*+*+*+*+*+*+*+*+*+*+
            BAR SHORTENED BY       1.000 PERCENT
 GRADIENT CRITERION IN FLEPO =    10.000
 

                    SINCE COS WAS JUST RESET,THE SEARCH IS BEING ENDED


          FOR POINT   12 SECOND STRUCTURE
 DISTANCE A - B      1.621520
 HEAT               48.782224
 GRADIENT NORM      45.855400
 DIRECTION COSINE    0.887871
 geo-ok HTML
 Transition state for Cyclobutadiene + ethylene <=> bicyclo[2,2,1]heptene

  C(HETATM    1  C1  HET A   1)   0.00000000 +0    0.0000000 +0    0.0000000 +0
  C(HETATM    2  C2  HET A   1)   1.51638612 +1    0.0000000 +0    0.0000000 +0     1     0     0
  C(HETATM    3  C3  HET A   1)   1.35070712 +1  107.9419486 +1    0.0000000 +0     2     1     0
  C(HETATM    4  C4  HET A   1)   1.51581088 +1  107.6457951 +1    0.2309673 +1     3     2     1
  C(HETATM    5  C5  HET A   1)   1.62601814 +1  104.1707197 +1  -71.9663194 +1     4     3     2
  C(HETATM    6  C6  HET A   1)   1.57488476 +1  102.5759542 +1   68.0412065 +1     5     4     3
  C(HETATM    7  C7  HET A   1)   1.50053357 +1  104.3970271 +1  115.9609510 +1     6     5     4
  C(HETATM    8  C8  HET A   1)   1.33953000 +1  112.3726020 +1   -4.3423622 +1     7     6     5
  C(HETATM    9  C9  HET A   1)   1.50550759 +1  112.2375863 +1    7.3263762 +1     8     7     6
  C(HETATM   10  C10 HET A   1)   1.55636850 +1  101.1128217 +1  -32.4219617 +1     1     2     3
  H(HETATM   11  H1  HET A   1)   1.08892625 +1  116.2109237 +1 -158.3740585 +1     1     2     3
  H(HETATM   12  H2  HET A   1)   1.06917759 +1  122.8701146 +1 -175.9491565 +1     2     1     3
  H(HETATM   13  H3  HET A   1)   1.06431698 +1  129.4363355 +1 -174.4678507 +1     3     2     1
  H(HETATM   14  H4  HET A   1)   1.08669589 +1  116.2801550 +1  158.1866160 +1     4     3     2
  H(HETATM   15  H5  HET A   1)   1.10108145 +1  110.6159819 +1  -54.4731362 +1     5     4     3
  H(HETATM   16  H6  HET A   1)   1.10778260 +1  114.2612876 +1 -120.4127176 +1     6     5     4
  H(HETATM   17  H7  HET A   1)   1.07748046 +1  120.7076748 +1  175.8219101 +1     7     6     5
  H(HETATM   18  H8  HET A   1)   1.07625487 +1  127.7570008 +1 -170.7253394 +1     8     7     6
  H(HETATM   19 1H9  HET A   1)   1.10238165 +1  113.0114400 +1 -125.3588348 +1     9     8     7
  H(HETATM   20 2H9  HET A   1)   1.10532945 +1  110.2859348 +1  116.7742266 +1     9     8     7
  H(HETATM   21 1H10 HET A   1)   1.09524563 +1  111.8548224 +1  163.9510482 +1    10     1     2
  H(HETATM   22 2H10 HET A   1)   1.09722194 +1  116.3884764 +1  -73.4758153 +1    10     1     2
 
 *+*+*+*+*+*+*+*+*+*+*+*+*+*+*+*+*+*+*+*+*+*+*+*+*+*+*+*+*+*+*+*+*+*+*+*+*+*+*+*+
            BAR SHORTENED BY       1.000 PERCENT
 GRADIENT CRITERION IN FLEPO =    10.000


          FOR POINT   13 SECOND STRUCTURE
 DISTANCE A - B      1.605304
 HEAT               49.394372
 GRADIENT NORM      45.302693
 DIRECTION COSINE    0.942585
 geo-ok HTML
 Transition state for Cyclobutadiene + ethylene <=> bicyclo[2,2,1]heptene

  C(HETATM    1  C1  HET A   1)   0.00000000 +0    0.0000000 +0    0.0000000 +0
  C(HETATM    2  C2  HET A   1)   1.51491086 +1    0.0000000 +0    0.0000000 +0     1     0     0
  C(HETATM    3  C3  HET A   1)   1.34728988 +1  107.9557766 +1    0.0000000 +0     2     1     0
  C(HETATM    4  C4  HET A   1)   1.51589782 +1  107.7135021 +1    0.2414036 +1     3     2     1
  C(HETATM    5  C5  HET A   1)   1.62421929 +1  103.9184385 +1  -72.2260376 +1     4     3     2
  C(HETATM    6  C6  HET A   1)   1.57588258 +1  102.6918106 +1   68.0737907 +1     5     4     3
  C(HETATM    7  C7  HET A   1)   1.50383505 +1  104.3844638 +1  116.0268235 +1     6     5     4
  C(HETATM    8  C8  HET A   1)   1.34073422 +1  112.2809433 +1   -4.5689667 +1     7     6     5
  C(HETATM    9  C9  HET A   1)   1.50597784 +1  112.2348541 +1    7.8521892 +1     8     7     6
  C(HETATM   10  C10 HET A   1)   1.55598419 +1  101.4287889 +1   31.9223269 +1     4     3     2
  H(HETATM   11  H1  HET A   1)   1.09158252 +1  116.4650808 +1 -158.0959389 +1     1     2     3
  H(HETATM   12  H2  HET A   1)   1.06776546 +1  122.6685890 +1 -175.7643921 +1     2     1     3
  H(HETATM   13  H3  HET A   1)   1.06823725 +1  129.3619343 +1 -175.3123510 +1     3     2     1
  H(HETATM   14  H4  HET A   1)   1.09191854 +1  116.2665873 +1  157.9369792 +1     4     3     2
  H(HETATM   15  H5  HET A   1)   1.10400663 +1  110.8902119 +1  -54.4630119 +1     5     4     3
  H(HETATM   16  H6  HET A   1)   1.10347100 +1  114.5581728 +1 -120.3913509 +1     6     5     4
  H(HETATM   17  H7  HET A   1)   1.07406438 +1  120.5599779 +1  176.7149203 +1     7     6     5
  H(HETATM   18  H8  HET A   1)   1.07465235 +1  127.6579429 +1 -170.2010074 +1     8     7     6
  H(HETATM   19 1H9  HET A   1)   1.09910815 +1  113.1012567 +1 -125.5235476 +1     9     8     7
  H(HETATM   20 2H9  HET A   1)   1.10689482 +1  110.0780477 +1  116.7166788 +1     9     8     7
  H(HETATM   21 1H10 HET A   1)   1.09906096 +1  111.3558630 +1 -162.0584986 +1    10     4     3
  H(HETATM   22 2H10 HET A   1)   1.09620628 +1  116.6598958 +1   74.7803154 +1    10     4     3
 
 TIME=     0.09
  REACTANTS AND PRODUCTS SWAPPED AROUND
 *+*+*+*+*+*+*+*+*+*+*+*+*+*+*+*+*+*+*+*+*+*+*+*+*+*+*+*+*+*+*+*+*+*+*+*+*+*+*+*+
            BAR SHORTENED BY       0.000 PERCENT
 GRADIENT CRITERION IN FLEPO =    10.000


          FOR POINT   14 FIRST  STRUCTURE
 DISTANCE A - B      1.605304
 HEAT               63.836040
 GRADIENT NORM      11.814018
 DIRECTION COSINE    0.694252
 geo-ok HTML
 Transition state for Cyclobutadiene + ethylene <=> bicyclo[2,2,1]heptene

  C(HETATM    1  C1  HET A   1)   0.00000000 +0    0.0000000 +0    0.0000000 +0
  C(HETATM    2  C2  HET A   1)   1.35432094 +1    0.0000000 +0    0.0000000 +0     1     0     0
  C(HETATM    3  C3  HET A   1)   1.46506601 +1  109.1176075 +1    0.0000000 +0     2     1     0
  C(HETATM    4  C4  HET A   1)   1.35365229 +1  109.2873831 +1    0.1192485 +1     3     2     1
  C(HETATM    5  C5  HET A   1)   2.94332740 +1   84.7743502 +1  -82.0025263 +1     4     3     2
  C(HETATM    6  C6  HET A   1)   1.35488101 +1  101.4163521 +1   71.6206911 +1     5     4     3
  C(HETATM    7  C7  HET A   1)   1.46600765 +1  109.1377336 +1   93.8334385 +1     6     5     4
  C(HETATM    8  C8  HET A   1)   1.35217792 +1  109.3784066 +1    0.4285951 +1     7     6     5
  C(HETATM    9  C9  HET A   1)   1.51205410 +1  109.4717239 +1   -0.1419367 +1     8     7     6
  C(HETATM   10  C10 HET A   1)   1.50867266 +1  109.4655890 +1   -3.8543879 +1     1     2     3
  H(HETATM   11  H1  HET A   1)   1.07029742 +1  128.8581241 +1  177.5169129 +1     1     2     3
  H(HETATM   12  H2  HET A   1)   1.07073760 +1  127.8176564 +1 -179.7686396 +1     2     1     3
  H(HETATM   13  H3  HET A   1)   1.07418826 +1  122.9786932 +1  179.6856786 +1     3     2     1
  H(HETATM   14  H4  HET A   1)   1.06792391 +1  128.9275071 +1 -176.8428789 +1     4     3     2
  H(HETATM   15  H5  HET A   1)   1.06623900 +1   78.8150068 +1  -56.0730659 +1     5     4     3
  H(HETATM   16  H6  HET A   1)   1.07076059 +1  127.8506086 +1  -85.1147195 +1     6     5     4
  H(HETATM   17  H7  HET A   1)   1.07247772 +1  122.6871437 +1 -179.4423329 +1     7     6     5
  H(HETATM   18  H8  HET A   1)   1.06934547 +1  128.9385482 +1  179.4970578 +1     8     7     6
  H(HETATM   19 1H9  HET A   1)   1.10666953 +1  111.8294570 +1 -120.8208158 +1     9     8     7
  H(HETATM   20 2H9  HET A   1)   1.10658479 +1  111.8118307 +1  119.7351028 +1     9     8     7
  H(HETATM   21 1H10 HET A   1)   1.10353552 +1  113.3456557 +1  128.7350994 +1    10     1     2
  H(HETATM   22 2H10 HET A   1)   1.10550963 +1  110.4060589 +1 -111.8145659 +1    10     1     2
 
 TIME=     0.03
  REACTANTS AND PRODUCTS SWAPPED AROUND
 *+*+*+*+*+*+*+*+*+*+*+*+*+*+*+*+*+*+*+*+*+*+*+*+*+*+*+*+*+*+*+*+*+*+*+*+*+*+*+*+
            BAR SHORTENED BY       1.000 PERCENT
 GRADIENT CRITERION IN FLEPO =     8.814


          FOR POINT   15 SECOND STRUCTURE
 DISTANCE A - B      1.589251
 HEAT               49.894540
 GRADIENT NORM      49.929121
 DIRECTION COSINE    0.633529
 geo-ok HTML
 Transition state for Cyclobutadiene + ethylene <=> bicyclo[2,2,1]heptene

  C(HETATM    1  C1  HET A   1)   0.00000000 +0    0.0000000 +0    0.0000000 +0
  C(HETATM    2  C2  HET A   1)   1.51690319 +1    0.0000000 +0    0.0000000 +0     1     0     0
  C(HETATM    3  C3  HET A   1)   1.34363894 +1  108.0252285 +1    0.0000000 +0     2     1     0
  C(HETATM    4  C4  HET A   1)   1.51366502 +1  107.9990321 +1   -0.0296207 +1     3     2     1
  C(HETATM    5  C5  HET A   1)   1.63383558 +1  103.8839354 +1  -72.0077189 +1     4     3     2
  C(HETATM    6  C6  HET A   1)   1.57801079 +1  102.5097910 +1   67.8698847 +1     5     4     3
  C(HETATM    7  C7  HET A   1)   1.50412347 +1  104.3283189 +1  116.1380587 +1     6     5     4
  C(HETATM    8  C8  HET A   1)   1.34397904 +1  112.1903759 +1   -4.9272079 +1     7     6     5
  C(HETATM    9  C9  HET A   1)   1.50355116 +1  112.1761504 +1    8.1342748 +1     8     7     6
  C(HETATM   10  C10 HET A   1)   1.55794706 +1  101.1983664 +1  -31.9005855 +1     1     2     3
  H(HETATM   11  H1  HET A   1)   1.09155894 +1  116.3964702 +1 -157.0327467 +1     1     2     3
  H(HETATM   12  H2  HET A   1)   1.07041779 +1  122.4115830 +1 -175.5288191 +1     2     1     3
  H(HETATM   13  H3  HET A   1)   1.06784730 +1  129.2286057 +1 -174.9488295 +1     3     2     1
  H(HETATM   14  H4  HET A   1)   1.09112301 +1  116.5201173 +1  157.4828588 +1     4     3     2
  H(HETATM   15  H5  HET A   1)   1.09631120 +1  110.6921500 +1  -54.5399912 +1     5     4     3
  H(HETATM   16  H6  HET A   1)   1.10116979 +1  114.6045743 +1 -120.1722955 +1     6     5     4
  H(HETATM   17  H7  HET A   1)   1.07092815 +1  120.2894310 +1  176.6844331 +1     7     6     5
  H(HETATM   18  H8  HET A   1)   1.07771200 +1  127.5468412 +1 -169.7363802 +1     8     7     6
  H(HETATM   19 1H9  HET A   1)   1.09883557 +1  113.0435573 +1 -125.6275089 +1     9     8     7
  H(HETATM   20 2H9  HET A   1)   1.10712373 +1  109.8875359 +1  116.7816667 +1     9     8     7
  H(HETATM   21 1H10 HET A   1)   1.09396473 +1  111.0942218 +1  162.2900491 +1    10     1     2
  H(HETATM   22 2H10 HET A   1)   1.09960135 +1  116.8814119 +1  -74.9776555 +1    10     1     2
 
 *+*+*+*+*+*+*+*+*+*+*+*+*+*+*+*+*+*+*+*+*+*+*+*+*+*+*+*+*+*+*+*+*+*+*+*+*+*+*+*+
            BAR SHORTENED BY       1.000 PERCENT
 GRADIENT CRITERION IN FLEPO =    10.000
 

                    SINCE COS WAS JUST RESET,THE SEARCH IS BEING ENDED


          FOR POINT   16 SECOND STRUCTURE
 DISTANCE A - B      1.573359
 HEAT               50.875672
 GRADIENT NORM      54.121526
 DIRECTION COSINE    0.926755
 geo-ok HTML
 Transition state for Cyclobutadiene + ethylene <=> bicyclo[2,2,1]heptene

  C(HETATM    1  C1  HET A   1)   0.00000000 +0    0.0000000 +0    0.0000000 +0
  C(HETATM    2  C2  HET A   1)   1.51440691 +1    0.0000000 +0    0.0000000 +0     1     0     0
  C(HETATM    3  C3  HET A   1)   1.34971660 +1  108.0020396 +1    0.0000000 +0     2     1     0
  C(HETATM    4  C4  HET A   1)   1.51209307 +1  107.7070090 +1   -0.0116908 +1     3     2     1
  C(HETATM    5  C5  HET A   1)   1.64548111 +1  103.6410205 +1  -72.2393151 +1     4     3     2
  C(HETATM    6  C6  HET A   1)   1.57601562 +1  102.4794924 +1   68.1675377 +1     5     4     3
  C(HETATM    7  C7  HET A   1)   1.50028344 +1  104.2127446 +1  116.1188978 +1     6     5     4
  C(HETATM    8  C8  HET A   1)   1.34142391 +1  112.5147910 +1   -5.0587759 +1     7     6     5
  C(HETATM    9  C9  HET A   1)   1.50615855 +1  112.0632822 +1    8.2942994 +1     8     7     6
  C(HETATM   10  C10 HET A   1)   1.55498565 +1  101.7934666 +1   31.5759862 +1     4     3     2
  H(HETATM   11  H1  HET A   1)   1.08902347 +1  116.3113987 +1 -157.2638809 +1     1     2     3
  H(HETATM   12  H2  HET A   1)   1.06682078 +1  122.7151130 +1 -175.6454619 +1     2     1     3
  H(HETATM   13  H3  HET A   1)   1.06765122 +1  129.2888293 +1 -175.1236232 +1     3     2     1
  H(HETATM   14  H4  HET A   1)   1.09079112 +1  116.3708266 +1  157.7514868 +1     4     3     2
  H(HETATM   15  H5  HET A   1)   1.10056895 +1  110.4545426 +1  -54.4417141 +1     5     4     3
  H(HETATM   16  H6  HET A   1)   1.10385743 +1  114.5814638 +1 -119.9627900 +1     6     5     4
  H(HETATM   17  H7  HET A   1)   1.07631210 +1  120.1996311 +1  176.8263633 +1     7     6     5
  H(HETATM   18  H8  HET A   1)   1.07348598 +1  127.8332712 +1 -169.3579765 +1     8     7     6
  H(HETATM   19 1H9  HET A   1)   1.09810166 +1  113.2927553 +1 -125.4542098 +1     9     8     7
  H(HETATM   20 2H9  HET A   1)   1.10689145 +1  109.9658759 +1  116.7520368 +1     9     8     7
  H(HETATM   21 1H10 HET A   1)   1.09148291 +1  111.8690911 +1 -161.8256005 +1    10     4     3
  H(HETATM   22 2H10 HET A   1)   1.09924604 +1  116.3006763 +1   75.4991796 +1    10     4     3
 
 *+*+*+*+*+*+*+*+*+*+*+*+*+*+*+*+*+*+*+*+*+*+*+*+*+*+*+*+*+*+*+*+*+*+*+*+*+*+*+*+
            BAR SHORTENED BY       1.000 PERCENT
 GRADIENT CRITERION IN FLEPO =    10.000


          FOR POINT   17 SECOND STRUCTURE
 DISTANCE A - B      1.557625
 HEAT               51.673176
 GRADIENT NORM      55.367663
 DIRECTION COSINE    0.970594
 geo-ok HTML
 Transition state for Cyclobutadiene + ethylene <=> bicyclo[2,2,1]heptene

  C(HETATM    1  C1  HET A   1)   0.00000000 +0    0.0000000 +0    0.0000000 +0
  C(HETATM    2  C2  HET A   1)   1.51293366 +1    0.0000000 +0    0.0000000 +0     1     0     0
  C(HETATM    3  C3  HET A   1)   1.34658435 +1  107.9504991 +1    0.0000000 +0     2     1     0
  C(HETATM    4  C4  HET A   1)   1.51038690 +1  107.9354505 +1   -0.1051629 +1     3     2     1
  C(HETATM    5  C5  HET A   1)   1.64809609 +1  103.6436866 +1  -72.1466787 +1     4     3     2
  C(HETATM    6  C6  HET A   1)   1.57383396 +1  102.5800793 +1   67.9523824 +1     5     4     3
  C(HETATM    7  C7  HET A   1)   1.50464002 +1  104.4009708 +1  116.0735371 +1     6     5     4
  C(HETATM    8  C8  HET A   1)   1.34123430 +1  112.1753484 +1   -5.1278727 +1     7     6     5
  C(HETATM    9  C9  HET A   1)   1.50591938 +1  112.1876573 +1    8.5802130 +1     8     7     6
  C(HETATM   10  C10 HET A   1)   1.55374912 +1  101.5836437 +1  -31.5154170 +1     1     2     3
  H(HETATM   11  H1  HET A   1)   1.09311905 +1  116.4498101 +1 -157.1886336 +1     1     2     3
  H(HETATM   12  H2  HET A   1)   1.06891631 +1  122.6265985 +1 -175.3230093 +1     2     1     3
  H(HETATM   13  H3  HET A   1)   1.06770858 +1  129.1597834 +1 -174.6836662 +1     3     2     1
  H(HETATM   14  H4  HET A   1)   1.09266189 +1  116.4804407 +1  157.0414485 +1     4     3     2
  H(HETATM   15  H5  HET A   1)   1.09885081 +1  110.4024459 +1  -54.9867569 +1     5     4     3
  H(HETATM   16  H6  HET A   1)   1.10185346 +1  114.9994877 +1 -119.7239925 +1     6     5     4
  H(HETATM   17  H7  HET A   1)   1.07217734 +1  120.3777241 +1  176.8704171 +1     7     6     5
  H(HETATM   18  H8  HET A   1)   1.07589700 +1  127.7584793 +1 -167.9593349 +1     8     7     6
  H(HETATM   19 1H9  HET A   1)   1.09840281 +1  113.1827452 +1 -125.4169074 +1     9     8     7
  H(HETATM   20 2H9  HET A   1)   1.10821999 +1  109.8918242 +1  116.9038653 +1     9     8     7
  H(HETATM   21 1H10 HET A   1)   1.09523345 +1  111.0935549 +1  162.0143771 +1    10     1     2
  H(HETATM   22 2H10 HET A   1)   1.09622017 +1  117.0414090 +1  -75.7706754 +1    10     1     2
 
 TIME=     0.11
  REACTANTS AND PRODUCTS SWAPPED AROUND
 *+*+*+*+*+*+*+*+*+*+*+*+*+*+*+*+*+*+*+*+*+*+*+*+*+*+*+*+*+*+*+*+*+*+*+*+*+*+*+*+
            BAR SHORTENED BY       0.000 PERCENT
 GRADIENT CRITERION IN FLEPO =    10.000


          FOR POINT   18 FIRST  STRUCTURE
 DISTANCE A - B      1.557625
 HEAT               64.188022
 GRADIENT NORM      11.723548
 DIRECTION COSINE    0.649670
 geo-ok HTML
 Transition state for Cyclobutadiene + ethylene <=> bicyclo[2,2,1]heptene

  C(HETATM    1  C1  HET A   1)   0.00000000 +0    0.0000000 +0    0.0000000 +0
  C(HETATM    2  C2  HET A   1)   1.35432094 +1    0.0000000 +0    0.0000000 +0     1     0     0
  C(HETATM    3  C3  HET A   1)   1.46506601 +1  109.1176075 +1    0.0000000 +0     2     1     0
  C(HETATM    4  C4  HET A   1)   1.35365229 +1  109.2873831 +1    0.1192485 +1     3     2     1
  C(HETATM    5  C5  HET A   1)   2.94332740 +1   84.7743502 +1  -82.0025263 +1     4     3     2
  C(HETATM    6  C6  HET A   1)   1.35488101 +1  101.4163521 +1   71.6206911 +1     5     4     3
  C(HETATM    7  C7  HET A   1)   1.46600765 +1  109.1377336 +1   93.8334385 +1     6     5     4
  C(HETATM    8  C8  HET A   1)   1.35217792 +1  109.3784066 +1    0.4285951 +1     7     6     5
  C(HETATM    9  C9  HET A   1)   1.51205410 +1  109.4717239 +1   -0.1419367 +1     8     7     6
  C(HETATM   10  C10 HET A   1)   1.50867266 +1  109.4655890 +1   -3.8543879 +1     1     2     3
  H(HETATM   11  H1  HET A   1)   1.07029742 +1  128.8581241 +1  177.5169129 +1     1     2     3
  H(HETATM   12  H2  HET A   1)   1.07073760 +1  127.8176564 +1 -179.7686396 +1     2     1     3
  H(HETATM   13  H3  HET A   1)   1.07418826 +1  122.9786932 +1  179.6856786 +1     3     2     1
  H(HETATM   14  H4  HET A   1)   1.06792391 +1  128.9275071 +1 -176.8428789 +1     4     3     2
  H(HETATM   15  H5  HET A   1)   1.06623900 +1   78.8150068 +1  -56.0730659 +1     5     4     3
  H(HETATM   16  H6  HET A   1)   1.07076059 +1  127.8506086 +1  -85.1147195 +1     6     5     4
  H(HETATM   17  H7  HET A   1)   1.07247772 +1  122.6871437 +1 -179.4423329 +1     7     6     5
  H(HETATM   18  H8  HET A   1)   1.06934547 +1  128.9385482 +1  179.4970578 +1     8     7     6
  H(HETATM   19 1H9  HET A   1)   1.10666953 +1  111.8294570 +1 -120.8208158 +1     9     8     7
  H(HETATM   20 2H9  HET A   1)   1.10658479 +1  111.8118307 +1  119.7351028 +1     9     8     7
  H(HETATM   21 1H10 HET A   1)   1.10353552 +1  113.3456557 +1  128.7350994 +1    10     1     2
  H(HETATM   22 2H10 HET A   1)   1.10550963 +1  110.4060589 +1 -111.8145659 +1    10     1     2
 
 TIME=     0.02
  REACTANTS AND PRODUCTS SWAPPED AROUND
 *+*+*+*+*+*+*+*+*+*+*+*+*+*+*+*+*+*+*+*+*+*+*+*+*+*+*+*+*+*+*+*+*+*+*+*+*+*+*+*+
            BAR SHORTENED BY       1.000 PERCENT
 GRADIENT CRITERION IN FLEPO =     8.724


          FOR POINT   19 SECOND STRUCTURE
 DISTANCE A - B      1.542049
 HEAT               52.570442
 GRADIENT NORM      60.910365
 DIRECTION COSINE    0.644659
 geo-ok HTML
 Transition state for Cyclobutadiene + ethylene <=> bicyclo[2,2,1]heptene

  C(HETATM    1  C1  HET A   1)   0.00000000 +0    0.0000000 +0    0.0000000 +0
  C(HETATM    2  C2  HET A   1)   1.51064856 +1    0.0000000 +0    0.0000000 +0     1     0     0
  C(HETATM    3  C3  HET A   1)   1.34776890 +1  107.9681720 +1    0.0000000 +0     2     1     0
  C(HETATM    4  C4  HET A   1)   1.50812059 +1  107.9574826 +1   -0.1030575 +1     3     2     1
  C(HETATM    5  C5  HET A   1)   1.66100817 +1  103.4749186 +1  -72.2641927 +1     4     3     2
  C(HETATM    6  C6  HET A   1)   1.57164015 +1  102.5464424 +1   68.0040037 +1     5     4     3
  C(HETATM    7  C7  HET A   1)   1.50339273 +1  104.4590259 +1  115.8545362 +1     6     5     4
  C(HETATM    8  C8  HET A   1)   1.34119371 +1  112.1331184 +1   -5.0867289 +1     7     6     5
  C(HETATM    9  C9  HET A   1)   1.50591203 +1  112.1723239 +1    8.5079789 +1     8     7     6
  C(HETATM   10  C10 HET A   1)   1.55271224 +1  101.7126348 +1  -31.2904259 +1     1     2     3
  H(HETATM   11  H1  HET A   1)   1.09239428 +1  116.6411978 +1 -157.3544092 +1     1     2     3
  H(HETATM   12  H2  HET A   1)   1.06865436 +1  122.6609768 +1 -175.3298100 +1     2     1     3
  H(HETATM   13  H3  HET A   1)   1.06750894 +1  129.1057905 +1 -174.7050631 +1     3     2     1
  H(HETATM   14  H4  HET A   1)   1.09185345 +1  116.6777632 +1  157.2109355 +1     4     3     2
  H(HETATM   15  H5  HET A   1)   1.09665353 +1  110.1362580 +1  -54.9740860 +1     5     4     3
  H(HETATM   16  H6  HET A   1)   1.09989302 +1  115.1646430 +1 -119.4679933 +1     6     5     4
  H(HETATM   17  H7  HET A   1)   1.07209643 +1  120.3938766 +1  176.8980181 +1     7     6     5
  H(HETATM   18  H8  HET A   1)   1.07569371 +1  127.7638422 +1 -168.0759022 +1     8     7     6
  H(HETATM   19 1H9  HET A   1)   1.09814244 +1  113.1810107 +1 -125.3745774 +1     9     8     7
  H(HETATM   20 2H9  HET A   1)   1.10796967 +1  109.9239417 +1  116.9250779 +1     9     8     7
  H(HETATM   21 1H10 HET A   1)   1.09487817 +1  111.0948115 +1  161.7421472 +1    10     1     2
  H(HETATM   22 2H10 HET A   1)   1.09589157 +1  116.9791095 +1  -76.0860509 +1    10     1     2
 
 *+*+*+*+*+*+*+*+*+*+*+*+*+*+*+*+*+*+*+*+*+*+*+*+*+*+*+*+*+*+*+*+*+*+*+*+*+*+*+*+
            BAR SHORTENED BY       1.000 PERCENT
 GRADIENT CRITERION IN FLEPO =    10.000


          FOR POINT   20 SECOND STRUCTURE
 DISTANCE A - B      1.526629
 HEAT               53.466104
 GRADIENT NORM      62.668346
 DIRECTION COSINE    0.983160
 geo-ok HTML
 Transition state for Cyclobutadiene + ethylene <=> bicyclo[2,2,1]heptene

  C(HETATM    1  C1  HET A   1)   0.00000000 +0    0.0000000 +0    0.0000000 +0
  C(HETATM    2  C2  HET A   1)   1.50971768 +1    0.0000000 +0    0.0000000 +0     1     0     0
  C(HETATM    3  C3  HET A   1)   1.34471889 +1  108.1484642 +1    0.0000000 +0     2     1     0
  C(HETATM    4  C4  HET A   1)   1.51194706 +1  107.8810098 +1   -0.0666014 +1     3     2     1
  C(HETATM    5  C5  HET A   1)   1.66622218 +1  103.3075373 +1  -72.3886975 +1     4     3     2
  C(HETATM    6  C6  HET A   1)   1.56729315 +1  102.5151539 +1   67.9929929 +1     5     4     3
  C(HETATM    7  C7  HET A   1)   1.50529416 +1  104.5117435 +1  115.7084925 +1     6     5     4
  C(HETATM    8  C8  HET A   1)   1.34193005 +1  112.1935687 +1   -5.4311108 +1     7     6     5
  C(HETATM    9  C9  HET A   1)   1.50438011 +1  111.9563340 +1    9.0105602 +1     8     7     6
  C(HETATM   10  C10 HET A   1)   1.55359295 +1  101.7680084 +1   31.2832035 +1     4     3     2
  H(HETATM   11  H1  HET A   1)   1.09041315 +1  116.5498981 +1 -157.0135073 +1     1     2     3
  H(HETATM   12  H2  HET A   1)   1.06784555 +1  122.9003275 +1 -174.9128379 +1     2     1     3
  H(HETATM   13  H3  HET A   1)   1.06876606 +1  129.2930454 +1 -174.3015412 +1     3     2     1
  H(HETATM   14  H4  HET A   1)   1.09123400 +1  116.6219542 +1  157.1326826 +1     4     3     2
  H(HETATM   15  H5  HET A   1)   1.09676605 +1  110.2191539 +1  -55.2421618 +1     5     4     3
  H(HETATM   16  H6  HET A   1)   1.10117524 +1  115.4403730 +1 -119.5958200 +1     6     5     4
  H(HETATM   17  H7  HET A   1)   1.07647210 +1  120.4809367 +1  177.0449114 +1     7     6     5
  H(HETATM   18  H8  HET A   1)   1.07627924 +1  127.7391477 +1 -168.0121667 +1     8     7     6
  H(HETATM   19 1H9  HET A   1)   1.09741584 +1  113.1936805 +1 -125.5195437 +1     9     8     7
  H(HETATM   20 2H9  HET A   1)   1.10881449 +1  110.0151416 +1  116.8521063 +1     9     8     7
  H(HETATM   21 1H10 HET A   1)   1.09130719 +1  111.6651426 +1 -161.0569600 +1    10     4     3
  H(HETATM   22 2H10 HET A   1)   1.09900308 +1  116.6811433 +1   76.7619150 +1    10     4     3
 
 *+*+*+*+*+*+*+*+*+*+*+*+*+*+*+*+*+*+*+*+*+*+*+*+*+*+*+*+*+*+*+*+*+*+*+*+*+*+*+*+
            BAR SHORTENED BY       1.000 PERCENT
 GRADIENT CRITERION IN FLEPO =    10.000


          FOR POINT   21 SECOND STRUCTURE
 DISTANCE A - B      1.511362
 HEAT               54.445631
 GRADIENT NORM      67.301325
 DIRECTION COSINE    0.997758
 geo-ok HTML
 Transition state for Cyclobutadiene + ethylene <=> bicyclo[2,2,1]heptene

  C(HETATM    1  C1  HET A   1)   0.00000000 +0    0.0000000 +0    0.0000000 +0
  C(HETATM    2  C2  HET A   1)   1.50747626 +1    0.0000000 +0    0.0000000 +0     1     0     0
  C(HETATM    3  C3  HET A   1)   1.34592187 +1  108.1640098 +1    0.0000000 +0     2     1     0
  C(HETATM    4  C4  HET A   1)   1.50967939 +1  107.9036661 +1   -0.0655901 +1     3     2     1
  C(HETATM    5  C5  HET A   1)   1.67895795 +1  103.1429758 +1  -72.5013216 +1     4     3     2
  C(HETATM    6  C6  HET A   1)   1.56516504 +1  102.4836178 +1   68.0424471 +1     5     4     3
  C(HETATM    7  C7  HET A   1)   1.50405510 +1  104.5685005 +1  115.4946461 +1     6     5     4
  C(HETATM    8  C8  HET A   1)   1.34189650 +1  112.1523677 +1   -5.3861945 +1     7     6     5
  C(HETATM    9  C9  HET A   1)   1.50439453 +1  111.9421835 +1    8.9331606 +1     8     7     6
  C(HETATM   10  C10 HET A   1)   1.55263495 +1  101.8911645 +1   31.0563819 +1     4     3     2
  H(HETATM   11  H1  HET A   1)   1.08970803 +1  116.7410907 +1 -157.1811549 +1     1     2     3
  H(HETATM   12  H2  HET A   1)   1.06761621 +1  122.9330486 +1 -174.9252252 +1     2     1     3
  H(HETATM   13  H3  HET A   1)   1.06857164 +1  129.2369671 +1 -174.3277558 +1     3     2     1
  H(HETATM   14  H4  HET A   1)   1.09044282 +1  116.8173218 +1  157.3028228 +1     4     3     2
  H(HETATM   15  H5  HET A   1)   1.09463430 +1  109.9513029 +1  -55.2285454 +1     5     4     3
  H(HETATM   16  H6  HET A   1)   1.09926632 +1  115.6011528 +1 -119.3369262 +1     6     5     4
  H(HETATM   17  H7  HET A   1)   1.07635140 +1  120.4965982 +1  177.0707072 +1     7     6     5
  H(HETATM   18  H8  HET A   1)   1.07607834 +1  127.7451300 +1 -168.1284441 +1     8     7     6
  H(HETATM   19 1H9  HET A   1)   1.09718554 +1  113.1911468 +1 -125.4753981 +1     9     8     7
  H(HETATM   20 2H9  HET A   1)   1.10857354 +1  110.0451203 +1  116.8745888 +1     9     8     7
  H(HETATM   21 1H10 HET A   1)   1.09101353 +1  111.6657319 +1 -160.7876295 +1    10     4     3
  H(HETATM   22 2H10 HET A   1)   1.09867730 +1  116.6214802 +1   77.0697919 +1    10     4     3
 
 TIME=     0.05
  REACTANTS AND PRODUCTS SWAPPED AROUND
 *+*+*+*+*+*+*+*+*+*+*+*+*+*+*+*+*+*+*+*+*+*+*+*+*+*+*+*+*+*+*+*+*+*+*+*+*+*+*+*+
            BAR SHORTENED BY       0.000 PERCENT
 GRADIENT CRITERION IN FLEPO =    10.000


          FOR POINT   22 FIRST  STRUCTURE
 DISTANCE A - B      1.511362
 HEAT               64.188022
 GRADIENT NORM      11.723548
 DIRECTION COSINE    0.646475
 geo-ok HTML
 Transition state for Cyclobutadiene + ethylene <=> bicyclo[2,2,1]heptene

  C(HETATM    1  C1  HET A   1)   0.00000000 +0    0.0000000 +0    0.0000000 +0
  C(HETATM    2  C2  HET A   1)   1.35432094 +1    0.0000000 +0    0.0000000 +0     1     0     0
  C(HETATM    3  C3  HET A   1)   1.46506601 +1  109.1176075 +1    0.0000000 +0     2     1     0
  C(HETATM    4  C4  HET A   1)   1.35365229 +1  109.2873831 +1    0.1192485 +1     3     2     1
  C(HETATM    5  C5  HET A   1)   2.94332740 +1   84.7743502 +1  -82.0025263 +1     4     3     2
  C(HETATM    6  C6  HET A   1)   1.35488101 +1  101.4163521 +1   71.6206911 +1     5     4     3
  C(HETATM    7  C7  HET A   1)   1.46600765 +1  109.1377336 +1   93.8334385 +1     6     5     4
  C(HETATM    8  C8  HET A   1)   1.35217792 +1  109.3784066 +1    0.4285951 +1     7     6     5
  C(HETATM    9  C9  HET A   1)   1.51205410 +1  109.4717239 +1   -0.1419367 +1     8     7     6
  C(HETATM   10  C10 HET A   1)   1.50867266 +1  109.4655890 +1   -3.8543879 +1     1     2     3
  H(HETATM   11  H1  HET A   1)   1.07029742 +1  128.8581241 +1  177.5169129 +1     1     2     3
  H(HETATM   12  H2  HET A   1)   1.07073760 +1  127.8176564 +1 -179.7686396 +1     2     1     3
  H(HETATM   13  H3  HET A   1)   1.07418826 +1  122.9786932 +1  179.6856786 +1     3     2     1
  H(HETATM   14  H4  HET A   1)   1.06792391 +1  128.9275071 +1 -176.8428789 +1     4     3     2
  H(HETATM   15  H5  HET A   1)   1.06623900 +1   78.8150068 +1  -56.0730659 +1     5     4     3
  H(HETATM   16  H6  HET A   1)   1.07076059 +1  127.8506086 +1  -85.1147195 +1     6     5     4
  H(HETATM   17  H7  HET A   1)   1.07247772 +1  122.6871437 +1 -179.4423329 +1     7     6     5
  H(HETATM   18  H8  HET A   1)   1.06934547 +1  128.9385482 +1  179.4970578 +1     8     7     6
  H(HETATM   19 1H9  HET A   1)   1.10666953 +1  111.8294570 +1 -120.8208158 +1     9     8     7
  H(HETATM   20 2H9  HET A   1)   1.10658479 +1  111.8118307 +1  119.7351028 +1     9     8     7
  H(HETATM   21 1H10 HET A   1)   1.10353552 +1  113.3456557 +1  128.7350994 +1    10     1     2
  H(HETATM   22 2H10 HET A   1)   1.10550963 +1  110.4060589 +1 -111.8145659 +1    10     1     2
 
 TIME=     0.02
  REACTANTS AND PRODUCTS SWAPPED AROUND
 *+*+*+*+*+*+*+*+*+*+*+*+*+*+*+*+*+*+*+*+*+*+*+*+*+*+*+*+*+*+*+*+*+*+*+*+*+*+*+*+
            BAR SHORTENED BY       1.000 PERCENT
 GRADIENT CRITERION IN FLEPO =     8.724


          FOR POINT   23 SECOND STRUCTURE
 DISTANCE A - B      1.496249
 HEAT               55.401100
 GRADIENT NORM      68.657384
 DIRECTION COSINE    0.667290
 geo-ok HTML
 Transition state for Cyclobutadiene + ethylene <=> bicyclo[2,2,1]heptene

  C(HETATM    1  C1  HET A   1)   0.00000000 +0    0.0000000 +0    0.0000000 +0
  C(HETATM    2  C2  HET A   1)   1.50900027 +1    0.0000000 +0    0.0000000 +0     1     0     0
  C(HETATM    3  C3  HET A   1)   1.34895711 +1  107.8801399 +1    0.0000000 +0     2     1     0
  C(HETATM    4  C4  HET A   1)   1.51176503 +1  107.8519554 +1   -0.0904908 +1     3     2     1
  C(HETATM    5  C5  HET A   1)   1.68347425 +1  103.0351994 +1  -72.7877702 +1     4     3     2
  C(HETATM    6  C6  HET A   1)   1.56752471 +1  102.2924645 +1   68.3462662 +1     5     4     3
  C(HETATM    7  C7  HET A   1)   1.50109484 +1  104.4767544 +1  115.3812227 +1     6     5     4
  C(HETATM    8  C8  HET A   1)   1.34157384 +1  112.2857136 +1   -5.7422343 +1     7     6     5
  C(HETATM    9  C9  HET A   1)   1.50877738 +1  111.8471381 +1    9.4055938 +1     8     7     6
  C(HETATM   10  C10 HET A   1)   1.54818061 +1  101.9734450 +1   31.1114845 +1     4     3     2
  H(HETATM   11  H1  HET A   1)   1.09209524 +1  116.6213696 +1 -157.1683515 +1     1     2     3
  H(HETATM   12  H2  HET A   1)   1.06805880 +1  123.0682250 +1 -174.6645126 +1     2     1     3
  H(HETATM   13  H3  HET A   1)   1.06850581 +1  128.8331416 +1 -174.0433673 +1     3     2     1
  H(HETATM   14  H4  HET A   1)   1.09463328 +1  116.1577059 +1  157.5242172 +1     4     3     2
  H(HETATM   15  H5  HET A   1)   1.09785320 +1  110.0121949 +1  -54.9255562 +1     5     4     3
  H(HETATM   16  H6  HET A   1)   1.10141323 +1  115.5353673 +1 -119.4403164 +1     6     5     4
  H(HETATM   17  H7  HET A   1)   1.07410937 +1  120.5323658 +1  177.1047058 +1     7     6     5
  H(HETATM   18  H8  HET A   1)   1.07587742 +1  127.8988341 +1 -167.4568475 +1     8     7     6
  H(HETATM   19 1H9  HET A   1)   1.09719632 +1  113.1155808 +1 -125.3973865 +1     9     8     7
  H(HETATM   20 2H9  HET A   1)   1.10858691 +1  109.8714932 +1  116.8932878 +1     9     8     7
  H(HETATM   21 1H10 HET A   1)   1.09266271 +1  111.2047022 +1 -160.7263087 +1    10     4     3
  H(HETATM   22 2H10 HET A   1)   1.10039753 +1  117.0481215 +1   77.6692978 +1    10     4     3
 
 *+*+*+*+*+*+*+*+*+*+*+*+*+*+*+*+*+*+*+*+*+*+*+*+*+*+*+*+*+*+*+*+*+*+*+*+*+*+*+*+
            BAR SHORTENED BY       1.000 PERCENT
 GRADIENT CRITERION IN FLEPO =    10.000


          FOR POINT   24 SECOND STRUCTURE
 DISTANCE A - B      1.481286
 HEAT               56.401182
 GRADIENT NORM      70.860476
 DIRECTION COSINE    0.976252
 geo-ok HTML
 Transition state for Cyclobutadiene + ethylene <=> bicyclo[2,2,1]heptene

  C(HETATM    1  C1  HET A   1)   0.00000000 +0    0.0000000 +0    0.0000000 +0
  C(HETATM    2  C2  HET A   1)   1.50544288 +1    0.0000000 +0    0.0000000 +0     1     0     0
  C(HETATM    3  C3  HET A   1)   1.34716918 +1  108.1199188 +1    0.0000000 +0     2     1     0
  C(HETATM    4  C4  HET A   1)   1.50787165 +1  108.0004228 +1   -0.0964388 +1     3     2     1
  C(HETATM    5  C5  HET A   1)   1.68748275 +1  102.7642757 +1  -72.6647382 +1     4     3     2
  C(HETATM    6  C6  HET A   1)   1.56120439 +1  102.7745157 +1   68.0644577 +1     5     4     3
  C(HETATM    7  C7  HET A   1)   1.50179305 +1  104.7458704 +1  115.2572105 +1     6     5     4
  C(HETATM    8  C8  HET A   1)   1.34479219 +1  112.0018699 +1   -5.6021156 +1     7     6     5
  C(HETATM    9  C9  HET A   1)   1.50337080 +1  111.8847165 +1    9.7042106 +1     8     7     6
  C(HETATM   10  C10 HET A   1)   1.55202890 +1  102.0424174 +1  -30.7267260 +1     1     2     3
  H(HETATM   11  H1  HET A   1)   1.08797036 +1  116.8333609 +1 -157.0328874 +1     1     2     3
  H(HETATM   12  H2  HET A   1)   1.06823165 +1  123.0010048 +1 -174.6678278 +1     2     1     3
  H(HETATM   13  H3  HET A   1)   1.06898297 +1  129.0419201 +1 -174.0630568 +1     3     2     1
  H(HETATM   14  H4  HET A   1)   1.09127656 +1  116.6902494 +1  157.2795758 +1     4     3     2
  H(HETATM   15  H5  HET A   1)   1.10024867 +1  109.7764396 +1  -55.4110541 +1     5     4     3
  H(HETATM   16  H6  HET A   1)   1.10267182 +1  116.0957801 +1 -119.0972565 +1     6     5     4
  H(HETATM   17  H7  HET A   1)   1.07447610 +1  120.7092217 +1  177.2668887 +1     7     6     5
  H(HETATM   18  H8  HET A   1)   1.07778753 +1  127.5873938 +1 -167.4399721 +1     8     7     6
  H(HETATM   19 1H9  HET A   1)   1.09829942 +1  113.3055415 +1 -125.5708200 +1     9     8     7
  H(HETATM   20 2H9  HET A   1)   1.10977190 +1  109.9557210 +1  116.6775787 +1     9     8     7
  H(HETATM   21 1H10 HET A   1)   1.09290336 +1  110.7113122 +1  160.4067310 +1    10     1     2
  H(HETATM   22 2H10 HET A   1)   1.10012895 +1  117.5911763 +1  -77.8397152 +1    10     1     2
 
 *+*+*+*+*+*+*+*+*+*+*+*+*+*+*+*+*+*+*+*+*+*+*+*+*+*+*+*+*+*+*+*+*+*+*+*+*+*+*+*+
            BAR SHORTENED BY       1.000 PERCENT
 GRADIENT CRITERION IN FLEPO =    10.000


          FOR POINT   25 SECOND STRUCTURE
 DISTANCE A - B      1.466473
 HEAT               57.410338
 GRADIENT NORM      73.832897
 DIRECTION COSINE    0.969776
 geo-ok HTML
 Transition state for Cyclobutadiene + ethylene <=> bicyclo[2,2,1]heptene

  C(HETATM    1  C1  HET A   1)   0.00000000 +0    0.0000000 +0    0.0000000 +0
  C(HETATM    2  C2  HET A   1)   1.50524133 +1    0.0000000 +0    0.0000000 +0     1     0     0
  C(HETATM    3  C3  HET A   1)   1.35102022 +1  107.9002524 +1    0.0000000 +0     2     1     0
  C(HETATM    4  C4  HET A   1)   1.50409868 +1  107.9912442 +1   -0.1193306 +1     3     2     1
  C(HETATM    5  C5  HET A   1)   1.69773097 +1  102.8795625 +1  -72.8265567 +1     4     3     2
  C(HETATM    6  C6  HET A   1)   1.56414299 +1  102.4639496 +1   68.3113038 +1     5     4     3
  C(HETATM    7  C7  HET A   1)   1.49902248 +1  104.6567289 +1  115.3862104 +1     6     5     4
  C(HETATM    8  C8  HET A   1)   1.34207736 +1  112.2891027 +1   -6.0182520 +1     7     6     5
  C(HETATM    9  C9  HET A   1)   1.50868186 +1  111.6944514 +1    9.8258788 +1     8     7     6
  C(HETATM   10  C10 HET A   1)   1.55189874 +1  102.3259496 +1  -30.6024047 +1     1     2     3
  H(HETATM   11  H1  HET A   1)   1.09319616 +1  116.8476938 +1 -157.0440189 +1     1     2     3
  H(HETATM   12  H2  HET A   1)   1.06756167 +1  123.0774320 +1 -174.3395226 +1     2     1     3
  H(HETATM   13  H3  HET A   1)   1.06453396 +1  128.7880821 +1 -173.7095511 +1     3     2     1
  H(HETATM   14  H4  HET A   1)   1.09113302 +1  116.7955696 +1  157.1093535 +1     4     3     2
  H(HETATM   15  H5  HET A   1)   1.09288184 +1  109.5755180 +1  -55.1053192 +1     5     4     3
  H(HETATM   16  H6  HET A   1)   1.10088434 +1  115.7847016 +1 -118.8746505 +1     6     5     4
  H(HETATM   17  H7  HET A   1)   1.07446968 +1  120.5437340 +1  177.1731222 +1     7     6     5
  H(HETATM   18  H8  HET A   1)   1.07435530 +1  127.8585733 +1 -167.0227349 +1     8     7     6
  H(HETATM   19 1H9  HET A   1)   1.09323022 +1  113.3957866 +1 -125.5836530 +1     9     8     7
  H(HETATM   20 2H9  HET A   1)   1.10768178 +1  109.5920289 +1  116.6759914 +1     9     8     7
  H(HETATM   21 1H10 HET A   1)   1.09754739 +1  110.1842081 +1  159.8138723 +1    10     1     2
  H(HETATM   22 2H10 HET A   1)   1.10363265 +1  117.4746695 +1  -78.4742144 +1    10     1     2
 
 TIME=     0.08
  REACTANTS AND PRODUCTS SWAPPED AROUND
 *+*+*+*+*+*+*+*+*+*+*+*+*+*+*+*+*+*+*+*+*+*+*+*+*+*+*+*+*+*+*+*+*+*+*+*+*+*+*+*+
            BAR SHORTENED BY       0.000 PERCENT
 GRADIENT CRITERION IN FLEPO =    10.000


          FOR POINT   26 FIRST  STRUCTURE
 DISTANCE A - B      1.466473
 HEAT               64.188022
 GRADIENT NORM      11.723548
 DIRECTION COSINE    0.657840
 geo-ok HTML
 Transition state for Cyclobutadiene + ethylene <=> bicyclo[2,2,1]heptene

  C(HETATM    1  C1  HET A   1)   0.00000000 +0    0.0000000 +0    0.0000000 +0
  C(HETATM    2  C2  HET A   1)   1.35432094 +1    0.0000000 +0    0.0000000 +0     1     0     0
  C(HETATM    3  C3  HET A   1)   1.46506601 +1  109.1176075 +1    0.0000000 +0     2     1     0
  C(HETATM    4  C4  HET A   1)   1.35365229 +1  109.2873831 +1    0.1192485 +1     3     2     1
  C(HETATM    5  C5  HET A   1)   2.94332740 +1   84.7743502 +1  -82.0025263 +1     4     3     2
  C(HETATM    6  C6  HET A   1)   1.35488101 +1  101.4163521 +1   71.6206911 +1     5     4     3
  C(HETATM    7  C7  HET A   1)   1.46600765 +1  109.1377336 +1   93.8334385 +1     6     5     4
  C(HETATM    8  C8  HET A   1)   1.35217792 +1  109.3784066 +1    0.4285951 +1     7     6     5
  C(HETATM    9  C9  HET A   1)   1.51205410 +1  109.4717239 +1   -0.1419367 +1     8     7     6
  C(HETATM   10  C10 HET A   1)   1.50867266 +1  109.4655890 +1   -3.8543879 +1     1     2     3
  H(HETATM   11  H1  HET A   1)   1.07029742 +1  128.8581241 +1  177.5169129 +1     1     2     3
  H(HETATM   12  H2  HET A   1)   1.07073760 +1  127.8176564 +1 -179.7686396 +1     2     1     3
  H(HETATM   13  H3  HET A   1)   1.07418826 +1  122.9786932 +1  179.6856786 +1     3     2     1
  H(HETATM   14  H4  HET A   1)   1.06792391 +1  128.9275071 +1 -176.8428789 +1     4     3     2
  H(HETATM   15  H5  HET A   1)   1.06623900 +1   78.8150068 +1  -56.0730659 +1     5     4     3
  H(HETATM   16  H6  HET A   1)   1.07076059 +1  127.8506086 +1  -85.1147195 +1     6     5     4
  H(HETATM   17  H7  HET A   1)   1.07247772 +1  122.6871437 +1 -179.4423329 +1     7     6     5
  H(HETATM   18  H8  HET A   1)   1.06934547 +1  128.9385482 +1  179.4970578 +1     8     7     6
  H(HETATM   19 1H9  HET A   1)   1.10666953 +1  111.8294570 +1 -120.8208158 +1     9     8     7
  H(HETATM   20 2H9  HET A   1)   1.10658479 +1  111.8118307 +1  119.7351028 +1     9     8     7
  H(HETATM   21 1H10 HET A   1)   1.10353552 +1  113.3456557 +1  128.7350994 +1    10     1     2
  H(HETATM   22 2H10 HET A   1)   1.10550963 +1  110.4060589 +1 -111.8145659 +1    10     1     2
 
 TIME=     0.02
  REACTANTS AND PRODUCTS SWAPPED AROUND
 *+*+*+*+*+*+*+*+*+*+*+*+*+*+*+*+*+*+*+*+*+*+*+*+*+*+*+*+*+*+*+*+*+*+*+*+*+*+*+*+
            BAR SHORTENED BY       1.000 PERCENT
 GRADIENT CRITERION IN FLEPO =     8.724


          FOR POINT   27 SECOND STRUCTURE
 DISTANCE A - B      1.451809
 HEAT               58.426321
 GRADIENT NORM      74.779756
 DIRECTION COSINE    0.649928
 geo-ok HTML
 Transition state for Cyclobutadiene + ethylene <=> bicyclo[2,2,1]heptene

  C(HETATM    1  C1  HET A   1)   0.00000000 +0    0.0000000 +0    0.0000000 +0
  C(HETATM    2  C2  HET A   1)   1.50505351 +1    0.0000000 +0    0.0000000 +0     1     0     0
  C(HETATM    3  C3  HET A   1)   1.34903851 +1  107.9862829 +1    0.0000000 +0     2     1     0
  C(HETATM    4  C4  HET A   1)   1.50441212 +1  108.0004382 +1   -0.0656339 +1     3     2     1
[...]
  H(HETATM   14  H4  HET A   1)   1.06909756 +1  125.4462139 +1  173.3938375 +1     4     3     2
  H(HETATM   15  H5  HET A   1)   1.07294828 +1   92.8168829 +1  -56.8567995 +1     5     4     3
  H(HETATM   16  H6  HET A   1)   1.07497259 +1  124.3457586 +1 -100.1660705 +1     6     5     4
  H(HETATM   17  H7  HET A   1)   1.07359485 +1  121.8857236 +1 -179.4520033 +1     7     6     5
  H(HETATM   18  H8  HET A   1)   1.07193978 +1  128.4423889 +1 -177.5707338 +1     8     7     6
  H(HETATM   19 1H9  HET A   1)   1.10197506 +1  112.3662167 +1 -124.7609838 +1     9     8     7
  H(HETATM   20 2H9  HET A   1)   1.10781604 +1  111.2460363 +1  116.2334354 +1     9     8     7
  H(HETATM   21 1H10 HET A   1)   1.09940819 +1  113.9291804 +1  151.6027712 +1    10     1     2
  H(HETATM   22 2H10 HET A   1)   1.10713197 +1  112.0030035 +1  -88.1378522 +1    10     1     2
 
 TIME=     0.02
  REACTANTS AND PRODUCTS SWAPPED AROUND
 *+*+*+*+*+*+*+*+*+*+*+*+*+*+*+*+*+*+*+*+*+*+*+*+*+*+*+*+*+*+*+*+*+*+*+*+*+*+*+*+
            BAR SHORTENED BY       1.000 PERCENT
 GRADIENT CRITERION IN FLEPO =    10.000


          FOR POINT  317 FIRST  STRUCTURE
 DISTANCE A - B      0.100201
 HEAT               89.045502
 GRADIENT NORM      29.713036
 DIRECTION COSINE    0.902266
 geo-ok HTML
 Transition state for Cyclobutadiene + ethylene <=> bicyclo[2,2,1]heptene

  C(HETATM    1  C1  HET A   1)   0.00000000 +0    0.0000000 +0    0.0000000 +0
  C(HETATM    2  C2  HET A   1)   1.39511579 +1    0.0000000 +0    0.0000000 +0     1     0     0
  C(HETATM    3  C3  HET A   1)   1.41746970 +1  108.7942742 +1    0.0000000 +0     2     1     0
  C(HETATM    4  C4  HET A   1)   1.39688111 +1  108.7346107 +1   -0.4373642 +1     3     2     1
  C(HETATM    5  C5  HET A   1)   2.15379471 +1   95.4278789 +1  -75.8347236 +1     4     3     2
  C(HETATM    6  C6  HET A   1)   1.40271941 +1  102.3243350 +1   69.3555255 +1     5     4     3
  C(HETATM    7  C7  HET A   1)   1.46954816 +1  108.2582478 +1  107.4998118 +1     6     5     4
  C(HETATM    8  C8  HET A   1)   1.35156235 +1  109.8814121 +1    0.9450184 +1     7     6     5
  C(HETATM    9  C9  HET A   1)   1.51086688 +1  110.2770110 +1    0.6206214 +1     8     7     6
  C(HETATM   10  C10 HET A   1)   1.51514329 +1  107.7324397 +1  -17.0147218 +1     1     2     3
  H(HETATM   11  H1  HET A   1)   1.06919178 +1  127.3224425 +1 -178.2314453 +1     1     2     3
  H(HETATM   12  H2  HET A   1)   1.07106285 +1  126.0139018 +1 -175.6069232 +1     2     1     3
  H(HETATM   13  H3  HET A   1)   1.07189619 +1  125.1404726 +1 -176.0132741 +1     3     2     1
  H(HETATM   14  H4  HET A   1)   1.06825997 +1  126.7943023 +1  177.1674386 +1     4     3     2
  H(HETATM   15  H5  HET A   1)   1.07298684 +1   89.6102641 +1  -56.9320644 +1     5     4     3
  H(HETATM   16  H6  HET A   1)   1.07487845 +1  125.4960096 +1  -96.6309547 +1     6     5     4
  H(HETATM   17  H7  HET A   1)   1.07327033 +1  122.5062228 +1 -179.9293100 +1     7     6     5
  H(HETATM   18  H8  HET A   1)   1.06937791 +1  128.5346649 +1 -179.5115600 +1     8     7     6
  H(HETATM   19 1H9  HET A   1)   1.10050014 +1  112.4184485 +1 -124.6928950 +1     9     8     7
  H(HETATM   20 2H9  HET A   1)   1.10898055 +1  111.2729169 +1  116.2398195 +1     9     8     7
  H(HETATM   21 1H10 HET A   1)   1.09950053 +1  115.2620118 +1  150.1821882 +1    10     1     2
  H(HETATM   22 2H10 HET A   1)   1.11196930 +1  110.3657191 +1  -90.2851211 +1    10     1     2
 
 TIME=     0.02
  REACTANTS AND PRODUCTS SWAPPED AROUND
 *+*+*+*+*+*+*+*+*+*+*+*+*+*+*+*+*+*+*+*+*+*+*+*+*+*+*+*+*+*+*+*+*+*+*+*+*+*+*+*+
            BAR SHORTENED BY       1.000 PERCENT
 AT END OF STEPWISE ASCENT OF REACTION BARRIER

 -------------------------------------------------------------------------------
 geo-ok HTML
 Transition state for Cyclobutadiene + ethylene <=> bicyclo[2,2,1]heptene



     TRANSITION STATE LOCATED USING THE "SADDLE" TECHNIQUE    
     SCF FIELD WAS ACHIEVED                                   


                              PM7 CALCULATION
                                                       MOPAC2016 (Version: 21.153W)
                                                       Sat Jun  5 17:28:37 2021
                                                       No. of days remaining = 362




          FINAL H.O.F PLUS STRESS =         89.04550 KCAL/MOL =     372.56639 KJ/MOL
          FINAL STRESS            =          0.00000 KCAL/MOL =       0.00000 KJ/MOL
          FINAL HEAT OF FORMATION =         89.04550 KCAL/MOL =     372.56639 KJ/MOL
          TOTAL DISTORTION        =          0.00278 Angstroms
          AVERAGE DISTORTION      =          0.00013 Angstroms per atom (all atoms)
          RMS DISTORTION          =          0.00021 Angstroms per atom (all atoms)


          TOTAL ENERGY            =      -1386.98263 EV
          ELECTRONIC ENERGY       =      -7933.53908 EV  POINT GROUP:     C1  
          CORE-CORE REPULSION     =       6546.55644 EV
          COSMO AREA              =        166.43 SQUARE ANGSTROMS
          COSMO VOLUME            =        175.94 CUBIC ANGSTROMS

          GRADIENT NORM           =          7.52555 = 1.60445 PER ATOM
          IONIZATION POTENTIAL    =          8.356161 EV
          HOMO LUMO ENERGIES (EV) =         -8.356  0.196
          NO. OF FILLED LEVELS    =         26
          MOLECULAR WEIGHT        =        132.2048

          MOLECULAR DIMENSIONS (Angstroms)

            Atom       Atom       Distance
            H    18    H    13     6.48112
            H    20    H    11     5.07141
            H    22    H    16     4.24579


          SCF CALCULATIONS        =       1267
 
          WALL-CLOCK TIME         =          7.281 SECONDS
          COMPUTATION TIME        =         28.938 SECONDS



       FINAL  POINT  AND  DERIVATIVES

   PARAMETER     ATOM    TYPE            VALUE        GRADIENT
      1          1  C    CARTESIAN X     0.167863     -1.504766  KCAL/ANGSTROM
      2          1  C    CARTESIAN Y    -1.327747      0.258914  KCAL/ANGSTROM
      3          1  C    CARTESIAN Z     1.027611      0.333701  KCAL/ANGSTROM
      4          2  C    CARTESIAN X     1.561013      2.330394  KCAL/ANGSTROM
      5          2  C    CARTESIAN Y    -1.308038     -0.022950  KCAL/ANGSTROM
      6          2  C    CARTESIAN Z     0.951339      0.063645  KCAL/ANGSTROM
      7          3  C    CARTESIAN X     2.000182      1.597742  KCAL/ANGSTROM
      8          3  C    CARTESIAN Y     0.039327     -1.181183  KCAL/ANGSTROM
      9          3  C    CARTESIAN Z     0.968081      0.274531  KCAL/ANGSTROM
     10          4  C    CARTESIAN X     0.882825     -1.339770  KCAL/ANGSTROM
     11          4  C    CARTESIAN Y     0.874563      0.903258  KCAL/ANGSTROM
     12          4  C    CARTESIAN Z     1.044987      1.969216  KCAL/ANGSTROM
     13          5  C    CARTESIAN X     0.306189      0.617154  KCAL/ANGSTROM
     14          5  C    CARTESIAN Y     0.634478      3.786822  KCAL/ANGSTROM
     15          5  C    CARTESIAN Z    -1.015230     -1.150095  KCAL/ANGSTROM
     16          6  C    CARTESIAN X    -0.127297     -0.677464  KCAL/ANGSTROM
     17          6  C    CARTESIAN Y    -0.699430     -3.169626  KCAL/ANGSTROM
     18          6  C    CARTESIAN Z    -1.051399     -0.274582  KCAL/ANGSTROM
     19          7  C    CARTESIAN X    -1.591888      0.123843  KCAL/ANGSTROM
     20          7  C    CARTESIAN Y    -0.704312     -0.178762  KCAL/ANGSTROM
     21          7  C    CARTESIAN Z    -1.172397      0.117750  KCAL/ANGSTROM
     22          8  C    CARTESIAN X    -2.052618     -0.398989  KCAL/ANGSTROM
     23          8  C    CARTESIAN Y     0.564929      0.447030  KCAL/ANGSTROM
     24          8  C    CARTESIAN Z    -1.230908     -0.400664  KCAL/ANGSTROM
     25          9  C    CARTESIAN X    -0.902704     -0.625983  KCAL/ANGSTROM
     26          9  C    CARTESIAN Y     1.542875      0.342233  KCAL/ANGSTROM
     27          9  C    CARTESIAN Z    -1.167425      0.806932  KCAL/ANGSTROM
     28         10  C    CARTESIAN X    -0.286519      0.795708  KCAL/ANGSTROM
     29         10  C    CARTESIAN Y     0.031983     -0.331775  KCAL/ANGSTROM
     30         10  C    CARTESIAN Z     1.517892     -1.678901  KCAL/ANGSTROM
     31         11  H    CARTESIAN X    -0.467137     -0.219299  KCAL/ANGSTROM
     32         11  H    CARTESIAN Y    -2.187195     -0.233208  KCAL/ANGSTROM
     33         11  H    CARTESIAN Z     1.063361      0.211088  KCAL/ANGSTROM
     34         12  H    CARTESIAN X     2.196704      0.025696  KCAL/ANGSTROM
     35         12  H    CARTESIAN Y    -2.160536      0.203133  KCAL/ANGSTROM
     36         12  H    CARTESIAN Z     0.823630     -0.067080  KCAL/ANGSTROM
     37         13  H    CARTESIAN X     3.017908      0.217896  KCAL/ANGSTROM
     38         13  H    CARTESIAN Y     0.358032      0.068286  KCAL/ANGSTROM
     39         13  H    CARTESIAN Z     0.860341     -0.078767  KCAL/ANGSTROM
     40         14  H    CARTESIAN X     0.884694      0.108719  KCAL/ANGSTROM
     41         14  H    CARTESIAN Y     1.940340     -0.498584  KCAL/ANGSTROM
     42         14  H    CARTESIAN Z     1.117699     -0.588218  KCAL/ANGSTROM
     43         15  H    CARTESIAN X     1.274558     -0.395814  KCAL/ANGSTROM
     44         15  H    CARTESIAN Y     0.982018     -0.079667  KCAL/ANGSTROM
     45         15  H    CARTESIAN Z    -1.319767      0.465027  KCAL/ANGSTROM
     46         16  H    CARTESIAN X     0.465952      0.033001  KCAL/ANGSTROM
     47         16  H    CARTESIAN Y    -1.540073     -0.150765  KCAL/ANGSTROM
     48         16  H    CARTESIAN Z    -1.362378     -0.225934  KCAL/ANGSTROM
     49         17  H    CARTESIAN X    -2.163680     -0.343627  KCAL/ANGSTROM
     50         17  H    CARTESIAN Y    -1.611410     -0.137947  KCAL/ANGSTROM
     51         17  H    CARTESIAN Z    -1.218681     -0.005694  KCAL/ANGSTROM
     52         18  H    CARTESIAN X    -3.063704     -0.285800  KCAL/ANGSTROM
     53         18  H    CARTESIAN Y     0.903559      0.035669  KCAL/ANGSTROM
     54         18  H    CARTESIAN Z    -1.312502      0.195060  KCAL/ANGSTROM
     55         19  H    CARTESIAN X    -1.016737      0.436153  KCAL/ANGSTROM
     56         19  H    CARTESIAN Y     2.272384     -0.835022  KCAL/ANGSTROM
     57         19  H    CARTESIAN Z    -0.351370     -0.508264  KCAL/ANGSTROM
     58         20  H    CARTESIAN X    -0.824335     -0.085494  KCAL/ANGSTROM
     59         20  H    CARTESIAN Y     2.133051      0.817523  KCAL/ANGSTROM
     60         20  H    CARTESIAN Z    -2.103034     -0.928728  KCAL/ANGSTROM
     61         21  H    CARTESIAN X    -1.276767     -0.117762  KCAL/ANGSTROM
     62         21  H    CARTESIAN Y     0.351705     -0.093891  KCAL/ANGSTROM
     63         21  H    CARTESIAN Z     1.162806     -0.267533  KCAL/ANGSTROM
     64         22  H    CARTESIAN X    -0.348533     -0.479994  KCAL/ANGSTROM
     65         22  H    CARTESIAN Y     0.042500      0.041569  KCAL/ANGSTROM
     66         22  H    CARTESIAN Z     2.628032      1.317481  KCAL/ANGSTROM




   ATOM                 CHEMICAL                   X               Y               Z
  NUMBER                 SYMBOL               (ANGSTROMS)     (ANGSTROMS)     (ANGSTROMS)
 
     1       C(HETATM    1  C1  HET A   1)    0.16786320  *  -1.32774735  *   1.02761138  *
     2       C(HETATM    2  C2  HET A   1)    1.56101314  *  -1.30803809  *   0.95133892  *
     3       C(HETATM    3  C3  HET A   1)    2.00018212  *   0.03932685  *   0.96808138  *
     4       C(HETATM    4  C4  HET A   1)    0.88282546  *   0.87456346  *   1.04498690  *
     5       C(HETATM    5  C5  HET A   1)    0.30618860  *   0.63447771  *  -1.01522958  *
     6       C(HETATM    6  C6  HET A   1)   -0.12729658  *  -0.69942977  *  -1.05139869  *
     7       C(HETATM    7  C7  HET A   1)   -1.59188763  *  -0.70431174  *  -1.17239720  *
     8       C(HETATM    8  C8  HET A   1)   -2.05261755  *   0.56492932  *  -1.23090828  *
     9       C(HETATM    9  C9  HET A   1)   -0.90270395  *   1.54287549  *  -1.16742541  *
    10       C(HETATM   10  C10 HET A   1)   -0.28651876  *   0.03198262  *   1.51789205  *
    11       H(HETATM   11  H1  HET A   1)   -0.46713681  *  -2.18719471  *   1.06336137  *
    12       H(HETATM   12  H2  HET A   1)    2.19670428  *  -2.16053638  *   0.82362995  *
    13       H(HETATM   13  H3  HET A   1)    3.01790803  *   0.35803181  *   0.86034086  *
    14       H(HETATM   14  H4  HET A   1)    0.88469389  *   1.94034040  *   1.11769937  *
    15       H(HETATM   15  H5  HET A   1)    1.27455794  *   0.98201787  *  -1.31976746  *
    16       H(HETATM   16  H6  HET A   1)    0.46595237  *  -1.54007348  *  -1.36237755  *
    17       H(HETATM   17  H7  HET A   1)   -2.16367959  *  -1.61141034  *  -1.21868117  *
    18       H(HETATM   18  H8  HET A   1)   -3.06370434  *   0.90355866  *  -1.31250228  *
    19       H(HETATM   19 1H9  HET A   1)   -1.01673683  *   2.27238368  *  -0.35136956  *
    20       H(HETATM   20 2H9  HET A   1)   -0.82433513  *   2.13305147  *  -2.10303359  *
    21       H(HETATM   21 1H10 HET A   1)   -1.27676664  *   0.35170498  *   1.16280604  *
    22       H(HETATM   22 2H10 HET A   1)   -0.34853282  *   0.04249968  *   2.62803242  *

                             CARTESIAN COORDINATES

   1    C        0.167863200    -1.327747348     1.027611379
   2    C        1.561013137    -1.308038095     0.951338922
   3    C        2.000182120     0.039326850     0.968081380
   4    C        0.882825458     0.874563463     1.044986901
   5    C        0.306188604     0.634477713    -1.015229580
   6    C       -0.127296583    -0.699429771    -1.051398687
   7    C       -1.591887632    -0.704311742    -1.172397203
   8    C       -2.052617551     0.564929319    -1.230908278
   9    C       -0.902703951     1.542875487    -1.167425414
  10    C       -0.286518763     0.031982616     1.517892053
  11    H       -0.467136809    -2.187194714     1.063361366
  12    H        2.196704275    -2.160536375     0.823629949
  13    H        3.017908032     0.358031814     0.860340862
  14    H        0.884693886     1.940340400     1.117699374
  15    H        1.274557938     0.982017869    -1.319767462
  16    H        0.465952370    -1.540073484    -1.362377548
  17    H       -2.163679589    -1.611410337    -1.218681172
  18    H       -3.063704341     0.903558665    -1.312502284
  19    H       -1.016736832     2.272383682    -0.351369556
  20    H       -0.824335126     2.133051467    -2.103033592
  21    H       -1.276766640     0.351704978     1.162806035
  22    H       -0.348532821     0.042499684     2.628032420


           Empirical Formula: C10 H12  =    22 atoms



      MOLECULAR POINT GROUP   :   C1  


                  EIGENVALUES  
 -31.55828 -29.54091 -24.83467 -24.25177 -23.84260 -23.42178 -19.05009 -18.83111
 -18.21524 -18.00417 -17.37676 -17.04214 -15.86266 -13.88680 -13.33917 -13.05248
 -12.90690 -12.82702 -12.52995 -12.52019 -12.31740 -12.11197 -11.22626 -10.47596
  -8.76708  -8.35616   0.19581   0.57491   1.50012   2.48090   3.87449   3.94763
   4.41228   4.43490   4.86422   4.98715   5.52919   5.58314   5.77319   5.87298
   6.08480   6.14346   6.15770   6.19044   6.30299   6.36369   6.46877   6.49058
   6.51725   6.59367   6.60673   6.64959


              NET ATOMIC CHARGES AND DIPOLE CONTRIBUTIONS

  ATOM NO.                 TYPE                        CHARGE      No. of ELECS.   s-Pop       p-Pop       
    1          C(HETATM    1  C1  HET A   1)          -0.090800        4.0908     1.10912     2.98168
    2          C(HETATM    2  C2  HET A   1)          -0.201771        4.2018     1.08641     3.11536
    3          C(HETATM    3  C3  HET A   1)          -0.190478        4.1905     1.08792     3.10256
    4          C(HETATM    4  C4  HET A   1)          -0.113067        4.1131     1.10762     3.00544
    5          C(HETATM    5  C5  HET A   1)          -0.125745        4.1257     1.10582     3.01993
    6          C(HETATM    6  C6  HET A   1)          -0.170637        4.1706     1.09584     3.07479
    7          C(HETATM    7  C7  HET A   1)          -0.160974        4.1610     1.09246     3.06851
    8          C(HETATM    8  C8  HET A   1)          -0.174421        4.1744     1.09640     3.07802
    9          C(HETATM    9  C9  HET A   1)          -0.291252        4.2913     1.06044     3.23081
   10          C(HETATM   10  C10 HET A   1)          -0.297525        4.2975     1.06499     3.23253
   11          H(HETATM   11  H1  HET A   1)           0.141039        0.8590     0.85896
   12          H(HETATM   12  H2  HET A   1)           0.149647        0.8504     0.85035
   13          H(HETATM   13  H3  HET A   1)           0.148659        0.8513     0.85134
   14          H(HETATM   14  H4  HET A   1)           0.137947        0.8621     0.86205
   15          H(HETATM   15  H5  HET A   1)           0.144042        0.8560     0.85596
   16          H(HETATM   16  H6  HET A   1)           0.151133        0.8489     0.84887
   17          H(HETATM   17  H7  HET A   1)           0.147278        0.8527     0.85272
   18          H(HETATM   18  H8  HET A   1)           0.145318        0.8547     0.85468
   19          H(HETATM   19 1H9  HET A   1)           0.158499        0.8415     0.84150
   20          H(HETATM   20 2H9  HET A   1)           0.161906        0.8381     0.83809
   21          H(HETATM   21 1H10 HET A   1)           0.166041        0.8340     0.83396
   22          H(HETATM   22 2H10 HET A   1)           0.165159        0.8348     0.83484

          NET CHARGE ON RESIDUES

      Residue         Charge  Anion or
                              Cation?
      HET A   1       +0.000
 


 DIPOLE           X         Y         Z       TOTAL
 POINT-CHG.    -0.509     0.655     0.149     0.843
 HYBRID        -0.092     0.134     0.071     0.177
 SUM           -0.600     0.789     0.220     1.015


          ATOMIC ORBITAL ELECTRON POPULATIONS

                   Atom                  s        px        py        pz   
   C(HETATM    1  C1  HET A   1)   1.10912   1.01076   1.02312   0.94779
   C(HETATM    2  C2  HET A   1)   1.08641   1.01508   1.04063   1.05965
   C(HETATM    3  C3  HET A   1)   1.08792   1.05323   1.00076   1.04857
   C(HETATM    4  C4  HET A   1)   1.10762   0.98744   1.04963   0.96837
   C(HETATM    5  C5  HET A   1)   1.10582   1.03156   0.99371   0.99465
   C(HETATM    6  C6  HET A   1)   1.09584   1.00266   1.04087   1.03126
   C(HETATM    7  C7  HET A   1)   1.09246   1.01454   1.04415   1.00982
   C(HETATM    8  C8  HET A   1)   1.09640   1.04753   0.99749   1.03300
   C(HETATM    9  C9  HET A   1)   1.06044   1.01244   1.06874   1.14963
   C(HETATM   10  C10 HET A   1)   1.06499   1.09151   1.02063   1.12039
   H(HETATM   11  H1  HET A   1)   0.85896
   H(HETATM   12  H2  HET A   1)   0.85035
   H(HETATM   13  H3  HET A   1)   0.85134
   H(HETATM   14  H4  HET A   1)   0.86205
   H(HETATM   15  H5  HET A   1)   0.85596
   H(HETATM   16  H6  HET A   1)   0.84887
   H(HETATM   17  H7  HET A   1)   0.85272
   H(HETATM   18  H8  HET A   1)   0.85468
   H(HETATM   19 1H9  HET A   1)   0.84150
   H(HETATM   20 2H9  HET A   1)   0.83809
   H(HETATM   21 1H10 HET A   1)   0.83396
   H(HETATM   22 2H10 HET A   1)   0.83484

 **********************
 *                    *
 * JOB ENDED NORMALLY *
 *                    *
 **********************



 TOTAL JOB TIME:             7.33 SECONDS

 == MOPAC DONE ==
