 *******************************************************************************
 ** Site#: 10005        For non-commercial use only     Version 15.310W 64BITS**
 *******************************************************************************
 ** Cite this work as:                                                        **
 **                                                                           **
 ** (a) MOPAC2012, James J. P. Stewart, Stewart Computational Chemistry,      **
 **  Version 15.310W web: HTTP://OpenMOPAC.net         Days remaining: 365    **
 **                                                                           **
 **                                 AND                                       **
 **                                                                           **
 ** (b) Maia, J.D.C., et al., J. Chem. Theory Comput. 2012, 8, 3072-3081.     **
 **                DOI: 10.1021/ct3004645.                                    **
 *******************************************************************************
 **                                                                           **
 **                                MOPAC2012                                  **
 **                                                                           **
 *******************************************************************************

                              PM7 CALCULATION RESULTS


 *******************************************************************************
 *  CALCULATION DONE:                                Fri Nov 06 15:50:01 2015  *
 *  IRC=N      - INTRINSIC REACTION COORDINATE  1 DEFINED
 *  T=         - A TIME OF 172800.0 SECONDS REQUESTED
 *  DUMP=N     - RESTART FILE WRITTEN EVERY  7200.000 SECONDS
 *  X-PRIOR    - GEOMETRY CHANGES TAKE PRIORITY IN DRC
 *******************************************************************************
 IRC=1* HTML X-priority=0.2
      hc9 - Two cyclopentadiene TS
      h=15.2+"Two cyclobutadiene molecules" hr=eh2005
   ATOM   CHEMICAL          X               Y               Z
  NUMBER   SYMBOL      (ANGSTROMS)     (ANGSTROMS)     (ANGSTROMS)
 
     1       C          0.00000000      0.00000000      0.00000000   
     2       C          1.40400000      0.00000000      0.00000000   
     3       C          1.85679976      1.33179955      0.00000000   
     4       C          0.74049976      2.18979964     -0.01220000   
     5       C          0.26349975      1.92389964     -2.03239987   
     6       C         -0.17050026      0.57919957     -2.06920003   
     7       C         -1.62870033      0.57139951     -2.25909995   
     8       C         -2.09060023      1.83689921     -2.35279983   
     9       C         -0.94670048      2.82069892     -2.26309987   
    10       C         -0.45060006      1.37240017      0.46130002   
    11       H         -0.64529992     -0.85209994      0.02710001   
    12       H          2.02860010     -0.86750024     -0.07800002   
    13       H          2.88050034      1.63989968     -0.07150003   
    14       H          0.76069971      3.25739930      0.05959998   
    15       H          1.23540005      2.26479982     -2.34090003   
    16       H          0.43699994     -0.25930075     -2.35720001   
    17       H         -2.19370040     -0.33940053     -2.30909990   
    18       H         -3.09890072      2.17149930     -2.47860001   
    19       H         -1.09830054      3.56889933     -1.46899967   
    20       H         -0.83630054      3.38849891     -3.20679982   
    21       H         -1.42610035      1.69480023      0.07089990   
    22       H         -0.53840010      1.40850009      1.56540036   
 


          CARTESIAN COORDINATES 

    NO.       ATOM         X         Y         Z

     1         C        0.0000    0.0000    0.0000
     2         C        1.4040    0.0000    0.0000
     3         C        1.8568    1.3318    0.0000
     4         C        0.7405    2.1898   -0.0122
     5         C        0.2635    1.9239   -2.0324
     6         C       -0.1705    0.5792   -2.0692
     7         C       -1.6287    0.5714   -2.2591
     8         C       -2.0906    1.8369   -2.3528
     9         C       -0.9467    2.8207   -2.2631
    10         C       -0.4506    1.3724    0.4613
    11         H       -0.6453   -0.8521    0.0271
    12         H        2.0286   -0.8675   -0.0780
    13         H        2.8805    1.6399   -0.0715
    14         H        0.7607    3.2574    0.0596
    15         H        1.2354    2.2648   -2.3409
    16         H        0.4370   -0.2593   -2.3572
    17         H       -2.1937   -0.3394   -2.3091
    18         H       -3.0989    2.1715   -2.4786
    19         H       -1.0983    3.5689   -1.4690
    20         H       -0.8363    3.3885   -3.2068
    21         H       -1.4261    1.6948    0.0709
    22         H       -0.5384    1.4085    1.5654

     ===================== shared-memory parallel CPU Section ======================
     **                                                                           **
     **  MOPAC calculations will run in shared-memory parallel CPUs               **
     **                                                                           **
     **  Number of Threads =  4                                                   **
     **                                                                           **
     **                                                                           **
     **  For information on this work, see:                                       **
     **                                                                           **
     **  Maia, J.D.C., et al., J. Chem. Theory Comput. 2012, 8, 3072-3081.        **
     **        DOI: 10.1021/ct3004645.                                            **
     **                                                                           **
     ===================== shared-memory parallel CPU Section ======================
      


 General Reference for PM7:
 "Optimization of Parameters for Semiempirical Methods VI: More Modifications to the 
 NDDO Approximations and Re-optimization of Parameters", J. J. P. Stewart, J. Mol. Mod., 1:32, 19 (2013)
 http://www.springerlink.com/openurl.asp?genre=article&id=doi:10.1007/s00894-012-1667-x

           Empirical Formula: C10 H12  =    22 atoms



      MOLECULAR POINT GROUP   :   C1  


      RHF CALCULATION, NO. OF DOUBLY OCCUPIED LEVELS =   26



          HEAT OF FORMATION =      89.755457 KCALS/MOLE


          GRADIENT NORM =   0.29111


          TIME FOR SCF CALCULATION =    0.02

          TIME FOR DERIVATIVES     =    0.00

          MOLECULAR WEIGHT =  132.20


          ESTIMATED TIME TO COMPLETE CALCULATION =        2.06 SECONDS

    FOR POINT-GROUP C1   THERE ARE   1 UNIQUE SYMMETRY FUNCTIONS.

 STEP:   1 TIME =     0.02 SECS, INTEGRAL =      0.02 TIME LEFT: 172799.97
 STEP:   2 TIME =     0.00 SECS, INTEGRAL =      0.02 TIME LEFT: 172799.97
 STEP:   3 TIME =     0.02 SECS, INTEGRAL =      0.03 TIME LEFT: 172799.95
 STEP:   4 TIME =     0.02 SECS, INTEGRAL =      0.05 TIME LEFT: 172799.94
 STEP:   5 TIME =     0.00 SECS, INTEGRAL =      0.05 TIME LEFT: 172799.94
 STEP:   6 TIME =     0.02 SECS, INTEGRAL =      0.06 TIME LEFT: 172799.92
 STEP:   7 TIME =     0.02 SECS, INTEGRAL =      0.08 TIME LEFT: 172799.91
 STEP:   8 TIME =     0.02 SECS, INTEGRAL =      0.09 TIME LEFT: 172799.89
 STEP:   9 TIME =     0.00 SECS, INTEGRAL =      0.09 TIME LEFT: 172799.89
 STEP:  10 TIME =     0.02 SECS, INTEGRAL =      0.11 TIME LEFT: 172799.88
 STEP:  11 TIME =     0.02 SECS, INTEGRAL =      0.12 TIME LEFT: 172799.86
 STEP:  12 TIME =     0.00 SECS, INTEGRAL =      0.12 TIME LEFT: 172799.86
 STEP:  13 TIME =     0.02 SECS, INTEGRAL =      0.14 TIME LEFT: 172799.84
 STEP:  14 TIME =     0.02 SECS, INTEGRAL =      0.16 TIME LEFT: 172799.83
 STEP:  15 TIME =     0.00 SECS, INTEGRAL =      0.16 TIME LEFT: 172799.83
 STEP:  16 TIME =     0.02 SECS, INTEGRAL =      0.17 TIME LEFT: 172799.81
 STEP:  17 TIME =     0.02 SECS, INTEGRAL =      0.19 TIME LEFT: 172799.80
 STEP:  18 TIME =     0.00 SECS, INTEGRAL =      0.19 TIME LEFT: 172799.80
 STEP:  19 TIME =     0.02 SECS, INTEGRAL =      0.20 TIME LEFT: 172799.78
 STEP:  20 TIME =     0.00 SECS, INTEGRAL =      0.20 TIME LEFT: 172799.78
 STEP:  21 TIME =     0.02 SECS, INTEGRAL =      0.22 TIME LEFT: 172799.77
 STEP:  22 TIME =     0.02 SECS, INTEGRAL =      0.23 TIME LEFT: 172799.75
 STEP:  23 TIME =     0.00 SECS, INTEGRAL =      0.23 TIME LEFT: 172799.75
 STEP:  24 TIME =     0.02 SECS, INTEGRAL =      0.25 TIME LEFT: 172799.73
 STEP:  25 TIME =     0.02 SECS, INTEGRAL =      0.27 TIME LEFT: 172799.72
 STEP:  26 TIME =     0.00 SECS, INTEGRAL =      0.27 TIME LEFT: 172799.72
 STEP:  27 TIME =     0.02 SECS, INTEGRAL =      0.28 TIME LEFT: 172799.70
 STEP:  28 TIME =     0.02 SECS, INTEGRAL =      0.30 TIME LEFT: 172799.69
 STEP:  29 TIME =     0.00 SECS, INTEGRAL =      0.30 TIME LEFT: 172799.69
 STEP:  30 TIME =     0.02 SECS, INTEGRAL =      0.31 TIME LEFT: 172799.67
 STEP:  31 TIME =     0.02 SECS, INTEGRAL =      0.33 TIME LEFT: 172799.66
 STEP:  32 TIME =     0.00 SECS, INTEGRAL =      0.33 TIME LEFT: 172799.66
 STEP:  33 TIME =     0.02 SECS, INTEGRAL =      0.34 TIME LEFT: 172799.64
 STEP:  34 TIME =     0.02 SECS, INTEGRAL =      0.36 TIME LEFT: 172799.62
 STEP:  35 TIME =     0.00 SECS, INTEGRAL =      0.36 TIME LEFT: 172799.62
 STEP:  36 TIME =     0.02 SECS, INTEGRAL =      0.38 TIME LEFT: 172799.61
 STEP:  37 TIME =     0.02 SECS, INTEGRAL =      0.39 TIME LEFT: 172799.59
 STEP:  38 TIME =     0.00 SECS, INTEGRAL =      0.39 TIME LEFT: 172799.59
 STEP:  39 TIME =     0.02 SECS, INTEGRAL =      0.41 TIME LEFT: 172799.58
 STEP:  40 TIME =     0.02 SECS, INTEGRAL =      0.42 TIME LEFT: 172799.56
 STEP:  41 TIME =     0.00 SECS, INTEGRAL =      0.42 TIME LEFT: 172799.56
 STEP:  42 TIME =     0.02 SECS, INTEGRAL =      0.44 TIME LEFT: 172799.55
 STEP:  43 TIME =     0.02 SECS, INTEGRAL =      0.45 TIME LEFT: 172799.53
 STEP:  44 TIME =     0.00 SECS, INTEGRAL =      0.45 TIME LEFT: 172799.53
 STEP:  45 TIME =     0.02 SECS, INTEGRAL =      0.47 TIME LEFT: 172799.52
 STEP:  46 TIME =     0.02 SECS, INTEGRAL =      0.48 TIME LEFT: 172799.50
 STEP:  47 TIME =     0.02 SECS, INTEGRAL =      0.50 TIME LEFT: 172799.48
 STEP:  48 TIME =     0.02 SECS, INTEGRAL =      0.52 TIME LEFT: 172799.47
 STEP:  49 TIME =     0.00 SECS, INTEGRAL =      0.52 TIME LEFT: 172799.47
 STEP:  50 TIME =     0.02 SECS, INTEGRAL =      0.53 TIME LEFT: 172799.45
 STEP:  51 TIME =     0.02 SECS, INTEGRAL =      0.55 TIME LEFT: 172799.44
 STEP:  52 TIME =     0.02 SECS, INTEGRAL =      0.56 TIME LEFT: 172799.42
 STEP:  53 TIME =     0.00 SECS, INTEGRAL =      0.56 TIME LEFT: 172799.42
 STEP:  54 TIME =     0.02 SECS, INTEGRAL =      0.58 TIME LEFT: 172799.41
 STEP:  55 TIME =     0.02 SECS, INTEGRAL =      0.59 TIME LEFT: 172799.39
 STEP:  56 TIME =     0.02 SECS, INTEGRAL =      0.61 TIME LEFT: 172799.38
 STEP:  57 TIME =     0.00 SECS, INTEGRAL =      0.61 TIME LEFT: 172799.38
 STEP:  58 TIME =     0.02 SECS, INTEGRAL =      0.62 TIME LEFT: 172799.36
 STEP:  59 TIME =     0.02 SECS, INTEGRAL =      0.64 TIME LEFT: 172799.34
 STEP:  60 TIME =     0.02 SECS, INTEGRAL =      0.66 TIME LEFT: 172799.33
 STEP:  61 TIME =     0.02 SECS, INTEGRAL =      0.67 TIME LEFT: 172799.31
 STEP:  62 TIME =     0.02 SECS, INTEGRAL =      0.69 TIME LEFT: 172799.30
 STEP:  63 TIME =     0.00 SECS, INTEGRAL =      0.69 TIME LEFT: 172799.30
 STEP:  64 TIME =     0.02 SECS, INTEGRAL =      0.70 TIME LEFT: 172799.28
 STEP:  65 TIME =     0.02 SECS, INTEGRAL =      0.72 TIME LEFT: 172799.27
 STEP:  66 TIME =     0.00 SECS, INTEGRAL =      0.72 TIME LEFT: 172799.27
           INITIAL VELOCITY IN DRC (Angstroms/Femtosecond)
        -0.02484         0.02528        -0.10524
         0.02582         0.01559        -0.01103
         0.00528        -0.02401        -0.00232
        -0.03844         0.00343        -0.10859
         0.02172         0.02019         0.11554
        -0.00413        -0.03750         0.10993
         0.00073        -0.00188         0.00702
         0.01164        -0.00290        -0.00514
         0.00728        -0.00035         0.00936
        -0.00743         0.00287        -0.00273
         0.00122         0.00503        -0.01950
        -0.00343        -0.00728         0.02822
        -0.00358         0.01444         0.04043
         0.00044        -0.00178        -0.00812
        -0.01129        -0.02607        -0.05445
         0.00061         0.01767        -0.05474
        -0.00204         0.00064        -0.01419
         0.01326        -0.00020        -0.02379
        -0.02503         0.01946        -0.01429
         0.03479        -0.02408         0.00087
        -0.02552         0.00831         0.04336
         0.04883        -0.01455        -0.00486

 GEOMETRY PRIORITY, STEP = 0.2000 ANGSTROMS



     POINT   POTENTIAL  +  ENERGY LOST   =   TOTAL      ERROR    REF%   MOVEMENT
       1      89.75543      0.00000         89.75543   0.00000     1   %  0.0000
       6      89.30404      0.37682         89.68086   0.01342     2   %  0.1502
      13      87.60087      2.08101         89.68188   0.01444     3   %  0.3218
      20      84.34866      5.20422         89.55288  -0.11456     4   %  0.5211
      26      80.17316      9.30200         89.47516  -0.19228     5   %  0.7204
      33      75.51215     13.92133         89.43348  -0.23396     6   %  0.9188
      40      70.72058     18.68977         89.41035  -0.25709     7   %  1.1141
      47      66.04700     23.34703         89.39402  -0.27342     8   %  1.3051
      53      61.63568     27.74558         89.38125  -0.28618     9   %  1.4931
      60      57.60202     31.76686         89.36888  -0.29856    10   %  1.6787
      66      54.01677     35.33855         89.35533  -0.31211    11   %  1.8636
      72      50.95600     38.38522         89.34122  -0.32622    12   %  2.0485
      78      48.48322     40.84251         89.32573  -0.34170    13   %  2.2333
      85      46.63013     42.67926         89.30939  -0.35804    14   %  2.4189
      91      45.41367     43.87966         89.29333  -0.37410    15   %  2.6021
      97      44.74987     44.52946         89.27933  -0.38811    16   %  2.7764
     103      44.47274     44.79881         89.27155  -0.39589    17   %  2.9080
     111      44.36461     45.20167         89.56628  -0.10116    18   %  2.9813
     119      44.31054     45.63747         89.94801   0.28057    19   %  3.0196
     127      44.27078     46.08680         90.35758   0.69014    20   %  3.0497
     137      44.23148     46.66759         90.89907   1.23163    21   %  3.0820
     148      44.19002     47.33060         91.52062   1.85318    22   %  3.1131
     158      44.16380     47.94746         92.11126   2.44383    23   %  3.1363
     168      44.14189     48.58367         92.72556   3.05812    24   %  3.1571
     178      44.12362     49.24174         93.36535   3.69792    25   %  3.1763
     189      44.12515     49.97764         94.10279   4.43535    26   %  3.1952
     200      44.09344     50.71883         94.81227   5.14483    27   %  3.2132
     210      44.08318     51.40939         95.49257   5.82513    28   %  3.2280
     222      44.07286     52.27564         96.34850   6.68106    29   %  3.2445
     233      44.09604     53.11768         97.21371   7.54628    30   %  3.2589
     245      44.09467     54.05947         98.15414   8.48670    31   %  3.2735
     257      44.09508     55.07445         99.16953   9.50209    32   %  3.2873
     269      44.09945     56.18835        100.28780  10.62036    33   %  3.3005
     281      44.11371     57.52501        101.63873  11.97129    34   %  3.3136
     293      44.12871     59.19071        103.31942  13.65198    35   %  3.3269
     306      44.07072     61.60274        105.67346  16.00602    36   %  3.3411
     319      44.03562     62.80023        106.83585  17.16841    37   %  3.3501
     332      44.08163     63.97532        108.05695  18.38951    38   %  3.3568
     345      44.03957     65.27718        109.31675  19.64931    39   %  3.3636


           POTENTIAL ENERGY HAS STOPPED DROPPING

           INITIAL VELOCITY IN DRC (Angstroms/Femtosecond)
         0.02484        -0.02528         0.10524
        -0.02582        -0.01559         0.01103
        -0.00528         0.02401         0.00232
         0.03844        -0.00343         0.10859
        -0.02172        -0.02019        -0.11554
         0.00413         0.03750        -0.10993
        -0.00073         0.00188        -0.00702
        -0.01164         0.00290         0.00514
        -0.00728         0.00035        -0.00936
         0.00743        -0.00287         0.00273
        -0.00122        -0.00503         0.01950
         0.00343         0.00728        -0.02822
         0.00358        -0.01444        -0.04043
        -0.00044         0.00178         0.00812
         0.01129         0.02607         0.05445
        -0.00061        -0.01767         0.05474
         0.00204        -0.00064         0.01419
        -0.01326         0.00020         0.02379
         0.02503        -0.01946         0.01429
        -0.03479         0.02408        -0.00087
         0.02552        -0.00831        -0.04336
        -0.04883         0.01455         0.00486

 GEOMETRY PRIORITY, STEP = 0.2000 ANGSTROMS



     POINT   POTENTIAL  +  ENERGY LOST   =   TOTAL      ERROR    REF%   MOVEMENT
       1      89.75546      0.00000         89.75546   0.00000     1   %  0.0000
       6      89.39006      0.31267         89.70272   0.03177     2   %  0.1447
      13      88.49796      1.39373         89.89169   0.22074     3   %  0.2783
      19      86.95991      2.94433         89.90424   0.23328     4   %  0.4456
      25      84.99584      4.86909         89.86494   0.19398     5   %  0.6377
      32      83.01526      6.82488         89.84014   0.16918     6   %  0.8352
      38      81.14283      8.68093         89.82376   0.15280     7   %  1.0323
      44      79.40061     10.41170         89.81231   0.14135     8   %  1.2278
      51      77.82000     11.98444         89.80443   0.13348     9   %  1.4169
      57      76.39302     13.40534         89.79836   0.12740    10   %  1.5983
      63      75.10201     14.69136         89.79337   0.12241    11   %  1.7720
      69      73.92165     15.86729         89.78894   0.11798    12   %  1.9400
      76      72.83789     16.94704         89.78493   0.11397    13   %  2.1035
      82      71.84237     17.93893         89.78130   0.11034    14   %  2.2640
      88      70.92409     18.85397         89.77806   0.10710    15   %  2.4244
      94      70.07781     19.69727         89.77507   0.10411    16   %  2.5887
     100      69.35408     20.44216         89.79624   0.12528    17   %  2.7475
     106      68.79121     21.15129         89.94250   0.27154    18   %  2.8845
     112      68.30343     21.82263         90.12607   0.45511    19   %  3.0131
     118      67.86268     22.46905         90.33173   0.66077    20   %  3.1372
     124      67.46116     23.09289         90.55404   0.88309    21   %  3.2573
     130      67.09521     23.69832         90.79353   1.12257    22   %  3.3728
     136      66.75963     24.28785         91.04748   1.37653    23   %  3.4843
     142      66.45114     24.86381         91.31495   1.64399    24   %  3.5916
     149      66.16574     25.42555         91.59129   1.92033    25   %  3.6953
     155      65.90296     25.97768         91.88065   2.20969    26   %  3.7947
     161      65.65908     26.52094         92.18002   2.50907    27   %  3.8908
     168      65.43504     27.05731         92.49235   2.82139    28   %  3.9833
     174      65.22577     27.58536         92.81113   3.14017    29   %  4.0737
     181      65.03035     28.10669         93.13704   3.46608    30   %  4.1606
     187      64.84883     28.62286         93.47169   3.80073    31   %  4.2437
     194      64.67893     29.13310         93.81203   4.14107    32   %  4.3252
     200      64.52146     29.64238         94.16384   4.49288    33   %  4.4041
     207      64.37324     30.14603         94.51927   4.84832    34   %  4.4794
     214      64.23389     30.64609         94.87998   5.20902    35   %  4.5530
     220      64.10365     31.14509         95.24874   5.57778    36   %  4.6254
     227      63.98174     31.64085         95.62259   5.95163    37   %  4.6935
     234      63.86650     32.13332         95.99983   6.32887    38   %  4.7614
     241      63.75814     32.62437         96.38251   6.71155    39   %  4.8270
     248      63.65563     33.11489         96.77052   7.09957    40   %  4.8891
     254      63.55961     33.60212         97.16173   7.49078    41   %  4.9523
     261      63.46705     34.08880         97.55585   7.88489    42   %  5.0110
     268      63.38265     34.57490         97.95756   8.28660    43   %  5.0706
     275      63.30070     35.06080         98.36151   8.69055    44   %  5.1257
     282      63.22459     35.54577         98.77036   9.09941    45   %  5.1824
     289      63.14953     36.02926         99.17879   9.50783    46   %  5.2347
     296      63.08143     36.51307         99.59449   9.92354    47   %  5.2886
     303      63.01512     36.99765        100.01277  10.34181    48   %  5.3377
     311      62.95284     37.48106        100.43390  10.76294    49   %  5.3893
     318      62.89239     37.96385        100.85625  11.18529    50   %  5.4368
     325      62.83599     38.44610        101.28209  11.61113    51   %  5.4844
     332      62.78080     38.92774        101.70855  12.03759    52   %  5.5317
     339      62.73039     39.40919        102.13958  12.46862    53   %  5.5758
     347      62.67906     39.89329        102.57234  12.90139    54   %  5.6217
     354      62.63158     40.37833        103.00991  13.33895    55   %  5.6652
     361      62.58755     40.86404        103.45159  13.78063    56   %  5.7065
     369      62.54316     41.35060        103.89376  14.22280    57   %  5.7498
     376      62.50140     41.83813        104.33953  14.66857    58   %  5.7910
     384      62.46125     42.32705        104.78830  15.11734    59   %  5.8293
     391      62.42349     42.81554        105.23902  15.56807    60   %  5.8692
     399      62.38450     43.30615        105.69065  16.01969    61   %  5.9094
     406      62.34901     43.79944        106.14845  16.47749    62   %  5.9472
     414      62.31673     44.29479        106.61153  16.94057    63   %  5.9835
     421      62.28448     44.79083        107.07531  17.40435    64   %  6.0196
     429      62.25190     45.29043        107.54233  17.87137    65   %  6.0563
     437      62.22032     45.79133        108.01165  18.34069    66   %  6.0928
     444      62.18970     46.29480        108.48451  18.81355    67   %  6.1287
     452      62.16169     46.80020        108.96188  19.29093    68   %  6.1632
     460      62.13428     47.30463        109.43891  19.76795    69   %  6.1971
     468      62.10723     47.81480        109.92203  20.25107    70   %  6.2301
     476      62.08156     48.32870        110.41026  20.73930    71   %  6.2629
     484      62.05638     48.84476        110.90114  21.23018    72   %  6.2954
     492      62.03176     49.36594        111.39771  21.72675    73   %  6.3275
     500      62.01457     49.84399        111.85857  22.18761    74   %  6.3549
     508      61.99321     50.36141        112.35462  22.68366    75   %  6.3857
     517      61.96101     50.94313        112.90414  23.23319    76   %  6.4224
     525      61.93993     51.46551        113.40544  23.73448    77   %  6.4522
     533      61.91985     51.98697        113.90682  24.23586    78   %  6.4817
     542      61.90789     52.57334        114.48123  24.81027    79   %  6.5113
     550      61.88983     53.09909        114.98891  25.31795    80   %  6.5397
     559      61.85866     53.67935        115.53801  25.86706    81   %  6.5740
     568      61.84524     54.26271        116.10795  26.43699    82   %  6.6022
     576      61.82212     54.82361        116.64573  26.97478    83   %  6.6339
     585      61.80485     55.34562        117.15048  27.47952    84   %  6.6605
     594      61.78831     55.95226        117.74057  28.06961    85   %  6.6904
     603      61.77077     56.49358        118.26436  28.59340    86   %  6.7178
     612      61.76061     57.06977        118.83038  29.15942    87   %  6.7421
     621      61.73805     57.64746        119.38551  29.71455    88   %  6.7730
     630      61.73119     58.23114        119.96232  30.29136    89   %  6.7964
     639      61.70645     58.81306        120.51951  30.84855    90   %  6.8265
     648      61.70373     59.39897        121.10270  31.43174    91   %  6.8495
     658      61.68846     60.05353        121.74200  32.07104    92   %  6.8784
     667      61.66316     60.63206        122.29522  32.62426    93   %  6.9077
     676      61.65936     61.21334        122.87269  33.20173    94   %  6.9290
     686      61.64543     61.85481        123.50024  33.82928    95   %  6.9562
     695      61.62356     62.42988        124.05344  34.38248    96   %  6.9843
     705      61.61039     63.07112        124.68151  35.01055    97   %  7.0109
     714      61.60862     63.65262        125.26124  35.59028    98   %  7.0304
     724      61.59664     64.29138        125.88803  36.21707    99   %  7.0561
     733      61.57562     64.86689        126.44251  36.77155   100   %  7.0832
     743      61.56326     65.51830        127.08156  37.41060   101   %  7.1081
     752      61.56520     66.11260        127.67780  38.00684   102   %  7.1262
     761      61.54231     66.70058        128.24289  38.57193   103   %  7.1525
     771      61.53138     67.35102        128.88240  39.21144   104   %  7.1769
     780      61.53824     67.94895        129.48719  39.81623   105   %  7.1940
     789      61.51164     68.54418        130.05582  40.38487   106   %  7.2201
     799      61.50107     69.21559        130.71666  41.04570   107   %  7.2439
     808      61.50970     69.82547        131.33517  41.66421   108   %  7.2607
     817      61.48316     70.42506        131.90823  42.23727   109   %  7.2861
     826      61.49444     71.04112        132.53556  42.86461   110   %  7.3024
     835      61.46582     71.64798        133.11380  43.44284   111   %  7.3276
     845      61.45665     72.32322        133.77987  44.10892   112   %  7.3504
     854      61.47150     72.95643        134.42793  44.75697   113   %  7.3661
     863      61.44024     73.58990        135.03014  45.35919   114   %  7.3910
     872      61.45915     74.25013        135.70928  46.03832   115   %  7.4071
     881      61.42448     74.89839        136.32287  46.65192   116   %  7.4322
     890      61.44229     75.54965        136.99194  47.32099   117   %  7.4477
     899      61.40954     76.19423        137.60377  47.93281   118   %  7.4722
     908      61.43189     76.87364        138.30553  48.63457   119   %  7.4874
     917      61.39502     77.53460        138.92962  49.25866   120   %  7.5123
     926      61.41540     78.20386        139.61926  49.94831   121   %  7.5271
     935      61.38121     78.86355        140.24476  50.57380   122   %  7.5514
     945      61.37379     79.62630        141.00009  51.32913   123   %  7.5731
     954      61.39885     80.31554        141.71439  52.04343   124   %  7.5875
     963      61.36083     81.00146        142.36229  52.69133   125   %  7.6118
     972      61.39122     81.73507        143.12629  53.45533   126   %  7.6262
     981      61.34861     82.46505        143.81367  54.14271   127   %  7.6510
     990      61.38591     83.26073        144.64664  54.97568   128   %  7.6659
     999      61.33863     84.09885        145.43748  55.76652   129   %  7.6913
    1008      61.38357     85.03452        146.41809  56.74713   130   %  7.7081
    1017      61.32737     85.97878        147.30616  57.63520   131   %  7.7351
    1027      61.32296     87.17255        148.49551  58.82455   132   %  7.7605
    1036      61.37811     88.36238        149.74049  60.06953   133   %  7.7800
    1045      61.31193     89.47844        150.79037  61.11942   134   %  7.8082
    1055      61.30987     90.96171        152.27158  62.60063   135   %  7.8355
    1064      61.38128     92.55448        153.93576  64.26480   136   %  7.8577
    1073      61.30224     94.19889        155.50112  65.83017   137   %  7.8896


 IRC CALCULATION COMPLETE 

 **********************
 *                    *
 * JOB ENDED NORMALLY *
 *                    *
 **********************



 TOTAL JOB TIME:             8.92 SECONDS

 == MOPAC DONE ==
