 *******************************************************************************
 ** Site#: 37037        For non-commercial use only           Version 21.138W **
 *******************************************************************************
 ** Cite this program as: MOPAC2016, Version: 21.138W, James J. P. Stewart,   **
 ** Stewart Computational Chemistry, web: HTTP://OpenMOPAC.net. Days left: 356**
 *******************************************************************************
 **                                                                           **
 **                                MOPAC2016                                  **
 **                                                                           **
 *******************************************************************************

                              PM7 CALCULATION RESULTS

 *******************************************************************************
 *  CALCULATION DONE:                                Thu May 27 10:41:58 2021  *
 *  GEO_DAT    - DATA SET GEOMETRY IS IN FILE "Ring-opening cyclobutene saddle.arc"
 *  IRC=N      - INTRINSIC REACTION COORDINATE  1 DEFINED
 *  DRC        - DYNAMIC REACTION COORDINATE CALCULATION
 *  T=         - A TIME OF 172800.0 SECONDS REQUESTED
 *  DUMP=N     - RESTART FILE WRITTEN EVERY 7200.0 SECONDS REQUESTED
 *  CYCLES=    - DO A MAXIMUM OF 200 STEPS
 *  GNORM      - EXIT WHEN GRADIENT NORM DROPS BELOW 0.000
 *  HTML       - WRITE HTML SCRIPT TO GENERATE ANIMATION USING JSMOL
 *             - TO DISPLAY IN PDB FORMAT, ADD "PDBOUT"
 *  T-PRIOR    - TIME TAKES PRIORITY IN DRC
 *******************************************************************************
GEO_DAT="Ring-opening cyclobutene saddle.arc"   IRC=1* DRC HTML T-priority=0.5 gnorm=0 cycles=200
 Dynamic reaction coordinate path for the reaction Cyclobutene <=> butadiene

   ATOM                 CHEMICAL                   X               Y               Z
  NUMBER                 SYMBOL               (ANGSTROMS)     (ANGSTROMS)     (ANGSTROMS)
 
     1       C(HETATM    1  C1  HET A   1)    0.23715326     -0.18034442     -0.07942959   
     2       C(HETATM    2  C2  HET A   1)    2.35038690     -0.16175424     -0.03110746   
     3       C(HETATM    3  C3  HET A   1)    0.60425129      1.17819912      0.06221211   
     4       C(HETATM    4  C4  HET A   1)    1.94659588      1.11668882      0.42037464   
     5       H(HETATM    5  H1  HET A   1)    0.00128198      2.03132591     -0.16362925   
     6       H(HETATM    6 1H2  HET A   1)   -0.40925877     -0.51010315     -0.87478043   
     7       H(HETATM    7 2H2  HET A   1)    0.31060513     -0.89131011      0.73000826   
     8       H(HETATM    8  H3  HET A   1)    2.52828490      1.80792272      0.99129508   
     9       H(HETATM    9 1H4  HET A   1)    3.00915908     -0.78328492      0.54982857   
    10       H(HETATM   10 2H4  HET A   1)    2.29107310     -0.45760283     -1.06774670   
 

 General Reference for PM7:
 "Optimization of Parameters for Semiempirical Methods VI: More Modifications to the 
 NDDO Approximations and Re-optimization of Parameters", J. J. P. Stewart, J. Mol. Mod., 1:32, 19 (2013)
 https://link.springer.com/article/10.1007/s00894-012-1667-x

           Empirical Formula: C4 H6  =    10 atoms



      MOLECULAR POINT GROUP   :   C2  


      RHF CALCULATION, NO. OF DOUBLY OCCUPIED LEVELS = 11



          HEAT OF FORMATION =      70.758821 KCALS/MOLE


          GRADIENT NORM =   1.45862


          TIME FOR SCF CALCULATION =    0.02

          TIME FOR DERIVATIVES     =    0.00

          MOLECULAR WEIGHT =   54.09


          ESTIMATED TIME TO COMPLETE CALCULATION =        0.94 SECONDS

    FOR POINT-GROUP C2   THERE ARE   2 UNIQUE SYMMETRY FUNCTIONS.

 STEP:   1 TIME =     0.00 SECS, INTEGRAL =      0.00 TIME LEFT: 172799.98
 STEP:   2 TIME =     0.00 SECS, INTEGRAL =      0.00 TIME LEFT: 172799.98
 STEP:   3 TIME =     0.00 SECS, INTEGRAL =      0.00 TIME LEFT: 172799.98
 STEP:   4                       INTEGRAL =      0.00 TIME LEFT: 172799.98
 STEP:   5                       INTEGRAL =      0.00 TIME LEFT: 172799.98
 STEP:   6                       INTEGRAL =      0.00 TIME LEFT: 172799.98
 STEP:   7 TIME =     0.02 SECS, INTEGRAL =      0.02 TIME LEFT: 172799.97
 STEP:   8 TIME =     0.00 SECS, INTEGRAL =      0.02 TIME LEFT: 172799.97
 STEP:   9 TIME =     0.00 SECS, INTEGRAL =      0.02 TIME LEFT: 172799.97
 STEP:  10                       INTEGRAL =      0.02 TIME LEFT: 172799.97
 STEP:  11                       INTEGRAL =      0.02 TIME LEFT: 172799.97
 STEP:  12                       INTEGRAL =      0.02 TIME LEFT: 172799.97
 STEP:  13 TIME =     0.00 SECS, INTEGRAL =      0.02 TIME LEFT: 172799.97
 STEP:  14 TIME =     0.00 SECS, INTEGRAL =      0.02 TIME LEFT: 172799.97
 STEP:  15 TIME =     0.00 SECS, INTEGRAL =      0.02 TIME LEFT: 172799.97
 STEP:  16 TIME =     0.00 SECS, INTEGRAL =      0.02 TIME LEFT: 172799.97
 STEP:  17 TIME =     0.00 SECS, INTEGRAL =      0.02 TIME LEFT: 172799.97
 STEP:  18 TIME =     0.02 SECS, INTEGRAL =      0.03 TIME LEFT: 172799.95
 STEP:  19 TIME =     0.00 SECS, INTEGRAL =      0.03 TIME LEFT: 172799.95
 STEP:  20 TIME =     0.00 SECS, INTEGRAL =      0.03 TIME LEFT: 172799.95
 STEP:  21 TIME =     0.00 SECS, INTEGRAL =      0.03 TIME LEFT: 172799.95
 STEP:  22                       INTEGRAL =      0.03 TIME LEFT: 172799.95
 STEP:  23                       INTEGRAL =      0.03 TIME LEFT: 172799.95
 STEP:  24                       INTEGRAL =      0.03 TIME LEFT: 172799.95
 STEP:  25                       INTEGRAL =      0.03 TIME LEFT: 172799.95
 STEP:  26                       INTEGRAL =      0.03 TIME LEFT: 172799.95
 STEP:  27                       INTEGRAL =      0.03 TIME LEFT: 172799.95
 STEP:  28                       INTEGRAL =      0.03 TIME LEFT: 172799.95
 STEP:  29                       INTEGRAL =      0.03 TIME LEFT: 172799.95
 STEP:  30                       INTEGRAL =      0.03 TIME LEFT: 172799.95
           INITIAL VELOCITY IN DRC (Angstroms/Femtosecond)
         0.07960        -0.03036         0.00096
        -0.07956        -0.02925        -0.00836
         0.01204         0.02719         0.01332
        -0.01208         0.02962        -0.00627
        -0.04105         0.00143         0.05989
         0.15357        -0.05194        -0.05556
        -0.09796         0.05699         0.07915
         0.04101         0.01605        -0.05770
        -0.15350        -0.06402         0.04116
         0.09794         0.07471        -0.06285
 THE VIBRATIONAL FREQUENCY (  -685.86CM(-1)) IS TOO SMALL
 FOR ONE QUANTUM TO BE USED
 INSTEAD 0.3KCAL/MOLE WILL BE USED TO START THE IRC

 TIME PRIORITY, INTERVAL = 0.50 FEMTOSECONDS



 FEMTOSECONDS  POINT  POTENTIAL + KINETIC  =   TOTAL     ERROR    REF%   MOVEMENT
     0.000       1    70.75883    0.30000    71.05883   0.00000     1   %  0.0000
     0.500       1    70.76208    0.27521    71.03729  -0.02154     2   %  0.0140
     1.000       1    70.76194    0.26341    71.02536  -0.03347     3   %  0.0278
     1.500       1    70.75842    0.26459    71.02302  -0.03581     4   %  0.0416
     2.000       1    70.75152    0.27876    71.03028  -0.02855     5   %  0.0553
     2.500       1    70.74123    0.30591    71.04714  -0.01169     6   %  0.0689
     3.000       3    70.72677    0.33729    71.06406   0.00523     7   %  0.0828
     3.500       3    70.70669    0.35961    71.06630   0.00747     8   %  0.0977
     4.000       4    70.68226    0.37853    71.06079   0.00196     9   %  0.1131
     4.500       5    70.65171    0.40917    71.06087   0.00205    10   %  0.1290
     5.000       5    70.61461    0.45189    71.06650   0.00768    11   %  0.1456
     5.500       6    70.57043    0.49231    71.06274   0.00391    12   %  0.1631
     6.000       6    70.51750    0.54069    71.05819  -0.00064    13   %  0.1815
     6.500       7    70.45503    0.60923    71.06426   0.00543    14   %  0.2009
     7.000       8    70.38120    0.68340    71.06460   0.00577    15   %  0.2216
     7.500       8    70.29482    0.76286    71.05768  -0.00114    16   %  0.2436
     8.000       9    70.19373    0.87007    71.06380   0.00497    17   %  0.2670
     8.500      10    70.07546    0.98724    71.06270   0.00388    18   %  0.2921
     9.000      10    69.93720    1.12074    71.05794  -0.00088    19   %  0.3191
     9.500      11    69.77702    1.28778    71.06481   0.00598    20   %  0.3479
    10.000      12    69.59072    1.46949    71.06021   0.00138    21   %  0.3789
    10.500      13    69.37460    1.68739    71.06199   0.00317    22   %  0.4122
    11.000      14    69.12458    1.93719    71.06177   0.00295    23   %  0.4479
    11.500      15    68.83585    2.22460    71.06045   0.00163    24   %  0.4864
    12.000      16    68.50389    2.55775    71.06164   0.00282    25   %  0.5278
    12.500      17    68.12295    2.93700    71.05995   0.00113    26   %  0.5722
    13.000      18    67.68798    3.37260    71.06058   0.00176    27   %  0.6199
    13.500      18    67.19290    3.86673    71.05963   0.00081    28   %  0.6711
    14.000      19    66.63200    4.42747    71.05947   0.00065    29   %  0.7259
    14.500      20    65.99971    5.05941    71.05912   0.00031    30   %  0.7846
    15.000      21    65.29074    5.76790    71.05863  -0.00018    31   %  0.8473
    15.500      22    64.50065    6.55801    71.05866  -0.00015    32   %  0.9143
    16.000      23    63.62582    7.43242    71.05824  -0.00057    33   %  0.9856
    16.500      24    62.66406    8.39451    71.05857  -0.00024    34   %  1.0614
    17.000      25    61.61473    9.44391    71.05864  -0.00016    35   %  1.1417
    17.500      26    60.47926   10.58004    71.05930   0.00051    36   %  1.2267
    18.000      27    59.26147   11.79872    71.06019   0.00140    37   %  1.3163
    18.500      28    57.96827   13.09330    71.06157   0.00278    38   %  1.4105
    19.000      29    56.61017   14.45288    71.06305   0.00427    39   %  1.5092
    19.500      29    55.19634   15.86775    71.06408   0.00531    40   %  1.6124
    20.000      30    53.74313   17.32148    71.06461   0.00584    41   %  1.7198
    20.500      31    52.26944   18.79410    71.06354   0.00477    42   %  1.8311
    21.000      32    50.79525   20.26702    71.06228   0.00352    43   %  1.9461
    21.500      33    49.34366   21.71732    71.06097   0.00222    44   %  2.0644
    22.000      35    47.93883   23.12024    71.05908   0.00033    45   %  2.1856
    22.500      36    46.60910   24.44987    71.05897   0.00024    46   %  2.3091
    23.000      38    45.38320   25.67564    71.05884   0.00012    47   %  2.4345
    23.500      41    44.29281   26.76602    71.05883   0.00012    48   %  2.5612
    24.000      43    43.37086   27.68800    71.05885   0.00015    49   %  2.6886
    24.500      46    42.65287   28.40598    71.05885   0.00016    50   %  2.8159
    25.000      50    42.17572   28.88311    71.05884   0.00015    51   %  2.9425
    25.500      54    41.97773   29.08108    71.05881   0.00013    52   %  3.0677
    26.000      59    42.09720   28.96158    71.05878   0.00012    53   %  3.1907
    26.500      64    42.57022   28.48858    71.05880   0.00014    54   %  3.3107
    27.000      69    43.42690   27.63190    71.05880   0.00015    55   %  3.4270
    27.500      74    44.68596   26.37283    71.05879   0.00015    56   %  3.5388
    28.000      79    46.34759   24.71117    71.05877   0.00014    57   %  3.6452
    28.500      84    48.38514   22.67359    71.05873   0.00011    58   %  3.7456
    29.000      89    50.73691   20.32177    71.05868   0.00007    59   %  3.8392
    29.500      94    53.30011   17.75852    71.05863   0.00002    60   %  3.9254
    30.000      99    55.92951   15.12907    71.05857  -0.00003    61   %  4.0035
    30.500     104    58.44365   12.61488    71.05853  -0.00006    62   %  4.0731
    31.000     109    60.64003   10.41849    71.05851  -0.00008    63   %  4.1336
    31.500     114    62.31879    8.73973    71.05852  -0.00006    64   %  4.1849
    32.000     118    63.31169    7.74685    71.05854  -0.00005    65   %  4.2269
    32.500     122    63.51027    7.54839    71.05866   0.00007    66   %  4.2596
    33.000     125    62.88632    8.17262    71.05894   0.00036    67   %  4.2832
    33.500     129    61.49982    9.55891    71.05873   0.00015    68   %  4.2982
    34.000     134    59.48952   11.56923    71.05874   0.00017    69   %  4.3051
    34.500     139    57.05172   14.00703    71.05875   0.00018    70   %  4.3048
    35.000     144    54.40988   16.64886    71.05873   0.00017    71   %  4.2981
    35.500     149    51.78387   19.27484    71.05870   0.00015    72   %  4.2861
    36.000     154    49.36393   21.69473    71.05866   0.00011    73   %  4.2696
    36.500     159    47.29322   23.76539    71.05862   0.00008    74   %  4.2498
    37.000     164    45.65991   25.39867    71.05857   0.00004    75   %  4.2276
    37.500     169    44.49783   26.56070    71.05853   0.00001    76   %  4.2039
    38.000     174    43.79372   27.26478    71.05850  -0.00001    77   %  4.1794
    38.500     179    43.49833   27.56015    71.05848  -0.00003    78   %  4.1548
    39.000     184    43.53947   27.51899    71.05846  -0.00003    79   %  4.1308
    39.500     189    43.83489   27.22356    71.05845  -0.00003    80   %  4.1079
    40.000     194    44.30386   26.75455    71.05842  -0.00006    81   %  4.0865
    40.500     198    44.87608   26.18229    71.05837  -0.00010    82   %  4.0673
    41.000     201    45.49813   25.56020    71.05833  -0.00013    83   %  4.0508
    41.500     204    46.13614   24.92218    71.05831  -0.00014    84   %  4.0374
    42.000     206    46.77559   24.28272    71.05830  -0.00014    85   %  4.0276
    42.500     209    47.41785   23.64044    71.05828  -0.00015    86   %  4.0220
    43.000     211    48.07470   22.98354    71.05824  -0.00018    87   %  4.0209
    43.500     214    48.76144   22.29675    71.05819  -0.00023    88   %  4.0246
    44.000     218    49.49079   21.56738    71.05817  -0.00024    89   %  4.0332
    44.500     221    50.26826   20.78989    71.05815  -0.00025    90   %  4.0466
    45.000     225    51.09055   19.96759    71.05814  -0.00026    91   %  4.0648
    45.500     228    51.94737   19.11078    71.05815  -0.00024    92   %  4.0875
    46.000     232    52.82579   18.23239    71.05818  -0.00020    93   %  4.1145
    46.500     236    53.71600   17.34223    71.05823  -0.00015    94   %  4.1454
    47.000     240    54.61613   16.44213    71.05826  -0.00011    95   %  4.1800
    47.500     244    55.53449   15.52378    71.05828  -0.00009    96   %  4.2179
    48.000     249    56.48795   14.57032    71.05827  -0.00009    97   %  4.2589
    48.500     254    57.49651   13.56175    71.05826  -0.00010    98   %  4.3027
    49.000     259    58.57554   12.48269    71.05823  -0.00012    99   %  4.3491
    49.500     264    59.72770   11.33050    71.05819  -0.00015   100   %  4.3978
    50.000     269    60.93681   10.12135    71.05816  -0.00018   101   %  4.4484
    50.500     274    62.16543    8.89270    71.05813  -0.00021   102   %  4.5006
    51.000     278    63.35696    7.70110    71.05806  -0.00028   103   %  4.5540
    51.500     283    64.44211    6.61583    71.05794  -0.00040   104   %  4.6084
    52.000     286    65.34803    5.70975    71.05778  -0.00055   105   %  4.6633
    52.500     289    66.00873    5.04892    71.05765  -0.00068   106   %  4.7185
    53.000     292    66.37514    4.68248    71.05761  -0.00072   107   %  4.7739
    53.500     294    66.42221    4.63547    71.05769  -0.00064   108   %  4.8292
    54.000     296    66.15214    4.90571    71.05785  -0.00048   109   %  4.8845
    54.500     298    65.59361    5.46457    71.05818  -0.00015   110   %  4.9399
    55.000     302    64.79534    6.26282    71.05816  -0.00017   111   %  4.9955
    55.500     306    63.81902    7.23919    71.05821  -0.00011   112   %  5.0514
    56.000     311    62.72847    8.32977    71.05824  -0.00008   113   %  5.1079
    56.500     316    61.58151    9.47674    71.05825  -0.00007   114   %  5.1649
    57.000     321    60.42410   10.63416    71.05826  -0.00005   115   %  5.2228
    57.500     326    59.28838   11.76988    71.05827  -0.00004   116   %  5.2814
    58.000     331    58.19449   12.86378    71.05827  -0.00003   117   %  5.3408
    58.500     335    57.15503   13.90325    71.05828  -0.00002   118   %  5.4009
    59.000     340    56.18032   14.87796    71.05829  -0.00001   119   %  5.4613
    59.500     344    55.28267   15.77563    71.05830   0.00001   120   %  5.5219
    60.000     347    54.47792   16.58039    71.05831   0.00003   121   %  5.5823
    60.500     351    53.78422   17.27409    71.05831   0.00004   122   %  5.6420
    61.000     355    53.21862   17.83969    71.05831   0.00004   123   %  5.7005
    61.500     358    52.79243   18.26587    71.05830   0.00004   124   %  5.7573
    62.000     362    52.50750   18.55080    71.05830   0.00004   125   %  5.8117
    62.500     365    52.35397   18.70434    71.05831   0.00006   126   %  5.8632
    63.000     369    52.31063   18.74771    71.05834   0.00010   127   %  5.9110
    63.500     372    52.34723   18.71115    71.05838   0.00014   128   %  5.9547
    64.000     375    52.42888   18.62955    71.05843   0.00020   129   %  5.9935
    64.500     378    52.52127   18.53723    71.05849   0.00027   130   %  6.0271
    65.000     381    52.59575   18.46283    71.05858   0.00036   131   %  6.0550
    65.500     384    52.63392   18.42475    71.05867   0.00045   132   %  6.0767
    66.000     387    52.63074   18.42798    71.05872   0.00052   133   %  6.0922
    66.500     390    52.59580   18.46290    71.05870   0.00050   134   %  6.1012
    67.000     393    52.55212   18.50646    71.05859   0.00039   135   %  6.1035
    67.500     396    52.53338   18.52507    71.05845   0.00026   136   %  6.0993
    68.000     400    52.57903   18.47929    71.05833   0.00015   137   %  6.0884
    68.500     405    52.72922   18.32903    71.05824   0.00007   138   %  6.0709
    69.000     410    53.01905   18.03916    71.05820   0.00004   139   %  6.0468
    69.500     415    53.47362   17.58455    71.05817   0.00001   140   %  6.0162
    70.000     420    54.10395   16.95418    71.05813  -0.00002   141   %  5.9790
    70.500     425    54.90366   16.15443    71.05810  -0.00005   142   %  5.9353
    71.000     430    55.84653   15.21153    71.05806  -0.00008   143   %  5.8852
    71.500     435    56.88491   14.17311    71.05802  -0.00011   144   %  5.8286
    72.000     440    57.94983   13.10816    71.05799  -0.00014   145   %  5.7657
    72.500     445    58.95380   12.10417    71.05796  -0.00017   146   %  5.6968
    73.000     450    59.79757   11.26038    71.05795  -0.00018   147   %  5.6220
    73.500     455    60.38109   10.67685    71.05794  -0.00018   148   %  5.5417
    74.000     460    60.61761   10.44035    71.05796  -0.00016   149   %  5.4565
    74.500     464    60.44805   10.60988    71.05793  -0.00018   150   %  5.3669
    75.000     468    59.85222   11.20578    71.05800  -0.00011   151   %  5.2734
    75.500     473    58.85345   12.20460    71.05806  -0.00005   152   %  5.1767
    76.000     478    57.51482   13.54325    71.05807  -0.00004   153   %  5.0774
    76.500     483    55.92804   15.13002    71.05805  -0.00004   154   %  4.9762
    77.000     488    54.19818   16.85985    71.05803  -0.00006   155   %  4.8736
    77.500     493    52.42840   18.62959    71.05799  -0.00009   156   %  4.7705
    78.000     498    50.70843   20.34953    71.05796  -0.00012   157   %  4.6673
    78.500     503    49.10881   21.94912    71.05793  -0.00014   158   %  4.5647
    79.000     508    47.68084   23.37706    71.05791  -0.00016   159   %  4.4634
    79.500     513    46.46035   24.59754    71.05789  -0.00016   160   %  4.3638
    80.000     518    45.47230   25.58558    71.05788  -0.00016   161   %  4.2666
    80.500     523    44.73388   26.32400    71.05788  -0.00016   162   %  4.1722
    81.000     528    44.25478   26.80309    71.05787  -0.00016   163   %  4.0809
    81.500     533    44.03507   27.02280    71.05787  -0.00015   164   %  3.9930
    82.000     538    44.06239   26.99548    71.05787  -0.00014   165   %  3.9086
    82.500     543    44.31060   26.74727    71.05787  -0.00013   166   %  3.8279
    83.000     547    44.74152   26.31634    71.05786  -0.00013   167   %  3.7506
    83.500     552    45.30998   25.74787    71.05785  -0.00013   168   %  3.6768
    84.000     556    45.97081   25.08704    71.05785  -0.00012   169   %  3.6064
    84.500     559    46.68644   24.37144    71.05788  -0.00008   170   %  3.5391
    85.000     562    47.43175   23.62618    71.05793  -0.00002   171   %  3.4748
    85.500     565    48.19612   22.86187    71.05798   0.00003   172   %  3.4136
    86.000     568    48.98142   22.07656    71.05798   0.00004   173   %  3.3551
    86.500     570    49.79740   21.26052    71.05792  -0.00001   174   %  3.2995
    87.000     573    50.65611   20.40172    71.05783  -0.00010   175   %  3.2465
    87.500     576    51.56641   19.49130    71.05772  -0.00020   176   %  3.1962
    88.000     579    52.53012   18.52747    71.05759  -0.00032   177   %  3.1485
    88.500     581    53.54000   17.51744    71.05744  -0.00047   178   %  3.1034
    89.000     584    54.57984   16.47742    71.05726  -0.00064   179   %  3.0609
    89.500     586    55.62561   15.43145    71.05706  -0.00083   180   %  3.0211
    90.000     589    56.64956   14.40733    71.05689  -0.00100   181   %  2.9841
    90.500     591    57.62289   13.43397    71.05685  -0.00103   182   %  2.9499
    91.000     593    58.52157   12.53554    71.05712  -0.00077   183   %  2.9186
    91.500     595    59.32988   11.72777    71.05764  -0.00023   184   %  2.8904
    92.000     598    60.04264   11.01546    71.05810   0.00023   185   %  2.8654
    92.500     600    60.66517   10.39308    71.05825   0.00038   186   %  2.8436
    93.000     603    61.20976    9.84845    71.05820   0.00034   187   %  2.8253
    93.500     606    61.69057    9.36754    71.05811   0.00025   188   %  2.8106
    94.000     610    62.11726    8.94076    71.05801   0.00015   189   %  2.7994
    94.500     613    62.49030    8.56762    71.05792   0.00006   190   %  2.7920
    95.000     615    62.79921    8.25859    71.05781  -0.00005   191   %  2.7882
    95.500     618    63.02451    8.03317    71.05768  -0.00017   192   %  2.7879
    96.000     620    63.14268    7.91489    71.05757  -0.00028   193   %  2.7910
    96.500     622    63.13310    7.92443    71.05753  -0.00032   194   %  2.7971
    97.000     624    62.98407    8.07352    71.05759  -0.00025   195   %  2.8059
    97.500     625    62.69661    8.36106    71.05767  -0.00017   196   %  2.8170
    98.000     628    62.28387    8.77382    71.05770  -0.00014   197   %  2.8299
    98.500     631    61.76956    9.28811    71.05767  -0.00016   198   %  2.8443
    99.000     634    61.18127    9.87640    71.05767  -0.00016   199   %  2.8597
    99.500     638    60.54519   10.51251    71.05770  -0.00013   200   %  2.8756


           INITIAL VELOCITY IN DRC (Angstroms/Femtosecond)
        -0.07960         0.03036        -0.00096
         0.07956         0.02925         0.00836
        -0.01204        -0.02719        -0.01332
         0.01208        -0.02962         0.00627
         0.04105        -0.00143        -0.05989
        -0.15357         0.05194         0.05556
         0.09796        -0.05699        -0.07915
        -0.04101        -0.01605         0.05770
         0.15350         0.06402        -0.04116
        -0.09794        -0.07471         0.06285
 THE VIBRATIONAL FREQUENCY (  -685.86CM(-1)) IS TOO SMALL
 FOR ONE QUANTUM TO BE USED
 INSTEAD 0.3KCAL/MOLE WILL BE USED TO START THE IRC

 TIME PRIORITY, INTERVAL = 0.50 FEMTOSECONDS



 FEMTOSECONDS  POINT  POTENTIAL + KINETIC  =   TOTAL     ERROR    REF%   MOVEMENT
     0.000       1    70.75882    0.30000    71.05882   0.00000     1   %  0.0000
     0.500       1    70.75164    0.28118    71.03282  -0.02600     2   %  0.0142
     1.000       1    70.74046    0.27861    71.01907  -0.03976     3   %  0.0288
     1.500       1    70.72528    0.29228    71.01756  -0.04126     4   %  0.0436
     2.000       1    70.70610    0.32219    71.02829  -0.03053     5   %  0.0589
     2.500       1    70.68292    0.36835    71.05127  -0.00755     6   %  0.0744
     3.000       3    70.65319    0.41244    71.06563   0.00681     7   %  0.0910
     3.500       4    70.61672    0.44498    71.06170   0.00288     8   %  0.1089
     4.000       5    70.57316    0.48637    71.05953   0.00071     9   %  0.1276
     4.500       5    70.52083    0.54668    71.06752   0.00870    10   %  0.1473
     5.000       6    70.45992    0.60063    71.06056   0.00174    11   %  0.1683
     5.500       7    70.38738    0.67567    71.06305   0.00423    12   %  0.1904
     6.000       8    70.30215    0.76521    71.06736   0.00854    13   %  0.2140
     6.500       8    70.20346    0.85579    71.05925   0.00043    14   %  0.2391
     7.000       9    70.08762    0.98043    71.06805   0.00923    15   %  0.2658
     7.500      10    69.95354    1.10946    71.06301   0.00419    16   %  0.2945
     8.000      11    69.79772    1.26788    71.06561   0.00679    17   %  0.3250
     8.500      12    69.61741    1.45169    71.06909   0.01028    18   %  0.3577
     9.000      12    69.40953    1.65471    71.06424   0.00542    19   %  0.3927
     9.500      13    69.17054    1.90154    71.07208   0.01327    20   %  0.4301
    10.000      14    68.89562    2.17508    71.07069   0.01188    21   %  0.4703
    10.500      15    68.58288    2.46770    71.05058  -0.00824    22   %  0.5131
    11.000      16    68.22831    2.81728    71.04559  -0.01322    23   %  0.5587
    11.500      16    67.82644    3.22644    71.05288  -0.00593    24   %  0.6075
    12.000      17    67.37277    3.67788    71.05065  -0.00817    25   %  0.6595
    12.500      18    66.86319    4.18829    71.05148  -0.00733    26   %  0.7151
    13.000      19    66.29336    4.75701    71.05037  -0.00843    27   %  0.7743
    13.500      20    65.65980    5.38899    71.04879  -0.01002    28   %  0.8374
    14.000      20    64.96032    6.08773    71.04804  -0.01076    29   %  0.9044
    14.500      21    64.19241    6.85491    71.04732  -0.01148    30   %  0.9756
    15.000      22    63.35509    7.69115    71.04624  -0.01256    31   %  1.0509
    15.500      22    62.44908    8.59588    71.04496  -0.01384    32   %  1.1305
    16.000      23    61.47456    9.56915    71.04371  -0.01508    33   %  1.2145
    16.500      24    60.43598   10.60694    71.04291  -0.01587    34   %  1.3029
    17.000      24    59.33636   11.70651    71.04287  -0.01591    35   %  1.3957
    17.500      25    58.18030   12.86453    71.04483  -0.01395    36   %  1.4929
    18.000      26    56.97531   14.07033    71.04564  -0.01314    37   %  1.5944
    18.500      27    55.72833   15.31921    71.04754  -0.01123    38   %  1.7002
    19.000      28    54.44744   16.60144    71.04887  -0.00989    39   %  1.8101
    19.500      29    53.14037   17.90918    71.04955  -0.00921    40   %  1.9239
    20.000      30    51.81652   19.23450    71.05101  -0.00774    41   %  2.0416
    20.500      31    50.48414   20.56607    71.05021  -0.00853    42   %  2.1629
    21.000      32    49.15205   21.89819    71.05025  -0.00849    43   %  2.2875
    21.500      33    47.82831   23.22243    71.05073  -0.00799    44   %  2.4152
    22.000      34    46.52106   24.52946    71.05052  -0.00820    45   %  2.5458
    22.500      35    45.23799   25.81330    71.05129  -0.00742    46   %  2.6790
    23.000      36    43.98774   27.06208    71.04983  -0.00887    47   %  2.8145
    23.500      37    42.77577   28.32208    71.09784   0.03915    48   %  2.9521
    24.000      39    41.61069   29.45722    71.06791   0.00923    49   %  3.0915
    24.500      40    40.50113   30.56734    71.06846   0.00979    50   %  3.2324
    25.000      41    39.45370   31.61297    71.06668   0.00802    51   %  3.3745
    25.500      43    38.47498   32.58953    71.06451   0.00586    52   %  3.5175
    26.000      45    37.57157   33.49142    71.06299   0.00435    53   %  3.6611
    26.500      46    36.74856   34.31365    71.06221   0.00358    54   %  3.8050
    27.000      48    36.01047   35.05114    71.06162   0.00300    55   %  3.9491
    27.500      50    35.36032   35.70088    71.06120   0.00260    56   %  4.0930
    28.000      51    34.79968   36.26125    71.06093   0.00234    57   %  4.2364
    28.500      53    34.32864   36.73214    71.06078   0.00220    58   %  4.3791
    29.000      55    33.94572   37.11500    71.06072   0.00216    59   %  4.5210
    29.500      57    33.64798   37.41277    71.06075   0.00220    60   %  4.6617
    30.000      58    33.43125   37.62959    71.06084   0.00231    61   %  4.8010
    30.500      60    33.29034   37.77070    71.06103   0.00251    62   %  4.9389
    31.000      61    33.21896   37.84232    71.06127   0.00276    63   %  5.0750
    31.500      63    33.21086   37.85066    71.06151   0.00301    64   %  5.2092
    32.000      64    33.25893   37.80286    71.06179   0.00331    65   %  5.3414
    32.500      65    33.35630   37.70573    71.06204   0.00357    66   %  5.4715
    33.000      66    33.49641   37.56580    71.06221   0.00375    67   %  5.5995
    33.500      68    33.67318   37.38908    71.06226   0.00381    68   %  5.7252
    34.000      69    33.88050   37.18166    71.06215   0.00372    69   %  5.8486
    34.500      70    34.11305   36.94885    71.06190   0.00348    70   %  5.9697
    35.000      71    34.36606   36.69548    71.06154   0.00313    71   %  6.0885
    35.500      72    34.63525   36.42590    71.06115   0.00275    72   %  6.2050
    36.000      73    34.91678   36.14402    71.06079   0.00241    73   %  6.3194
    36.500      75    35.20727   35.85323    71.06050   0.00213    74   %  6.4316
    37.000      76    35.50357   35.55671    71.06028   0.00192    75   %  6.5417
    37.500      77    35.80269   35.25743    71.06012   0.00178    76   %  6.6498
    38.000      79    36.10214   34.95899    71.06113   0.00280    77   %  6.7559
    38.500      80    36.39933   34.66364    71.06297   0.00464    78   %  6.8603
    39.000      81    36.69208   34.37007    71.06214   0.00383    79   %  6.9629
    39.500      83    36.97858   34.08388    71.06246   0.00416    80   %  7.0639
    40.000      84    37.25721   33.80549    71.06269   0.00441    81   %  7.1632
    40.500      85    37.52693   33.53612    71.06305   0.00477    82   %  7.2610
    41.000      86    37.78728   33.27627    71.06355   0.00529    83   %  7.3573
    41.500      88    38.03838   33.02517    71.06355   0.00530    84   %  7.4522
    42.000      89    38.28126   32.77864    71.05990   0.00166    85   %  7.5457
    42.500      90    38.51767   32.54388    71.06155   0.00332    86   %  7.6377
    43.000      91    38.75023   32.31179    71.06202   0.00380    87   %  7.7283
    43.500      91    38.98209   32.08032    71.06241   0.00421    88   %  7.8174
    44.000      92    39.21713   31.84567    71.06280   0.00460    89   %  7.9051
    44.500      93    39.46000   31.60334    71.06334   0.00515    90   %  7.9913
    45.000      94    39.71577   31.34702    71.06279   0.00462    91   %  8.0760
    45.500      95    39.98910   31.07209    71.06119   0.00303    92   %  8.1590
    46.000      96    40.28495   30.77824    71.06320   0.00505    93   %  8.2405
    46.500      97    40.60804   30.45448    71.06252   0.00438    94   %  8.3203
    47.000      98    40.96271   30.09890    71.06161   0.00348    95   %  8.3983
    47.500      99    41.35285   29.70834    71.06119   0.00307    96   %  8.4747
    48.000     101    41.78172   29.27920    71.06092   0.00281    97   %  8.5492
    48.500     102    42.25238   28.80834    71.06072   0.00262    98   %  8.6221
    49.000     103    42.76718   28.29338    71.06056   0.00247    99   %  8.6931
    49.500     104    43.32802   27.73240    71.06042   0.00234   100   %  8.7624
    50.000     106    43.93637   27.12390    71.06027   0.00220   101   %  8.8298
    50.500     107    44.59334   26.46677    71.06011   0.00205   102   %  8.8956
    51.000     108    45.29964   25.76030    71.05994   0.00188   103   %  8.9596
    51.500     110    46.05548   25.00428    71.05976   0.00171   104   %  9.0220
    52.000     111    46.86058   24.19901    71.05959   0.00155   105   %  9.0827
    52.500     113    47.71402   23.34543    71.05944   0.00142   106   %  9.1418
    53.000     114    48.61407   22.44525    71.05932   0.00130   107   %  9.1993
    53.500     116    49.55829   21.50094    71.05923   0.00122   108   %  9.2553
    54.000     118    50.54308   20.51609    71.05917   0.00117   109   %  9.3098
    54.500     120    51.56385   19.49528    71.05914   0.00114   110   %  9.3629
    55.000     122    52.61490   18.44423    71.05913   0.00114   111   %  9.4145
    55.500     124    53.68941   17.36974    71.05915   0.00117   112   %  9.4648
    56.000     126    54.77952   16.27968    71.05920   0.00122   113   %  9.5137
    56.500     127    55.87649   15.18280    71.05929   0.00131   114   %  9.5613
    57.000     129    56.97079   14.08862    71.05941   0.00144   115   %  9.6076
    57.500     131    58.05210   13.00748    71.05958   0.00162   116   %  9.6527
    58.000     132    59.10968   11.95013    71.05981   0.00185   117   %  9.6964
    58.500     134    60.13315   10.92695    71.06010   0.00214   118   %  9.7390
    59.000     135    61.11108    9.94938    71.06046   0.00251   119   %  9.7802
    59.500     137    62.03330    9.02776    71.06106   0.00311   120   %  9.8203
    60.000     138    62.88938    8.17063    71.06001   0.00206   121   %  9.8591
    60.500     139    63.66934    7.38995    71.05930   0.00135   122   %  9.8967
    61.000     140    64.36429    6.69567    71.05996   0.00202   123   %  9.9330
    61.500     141    64.96607    6.09434    71.06041   0.00247   124   %  9.9681
    62.000     142    65.46739    5.59352    71.06091   0.00297   125   % 10.0020
    62.500     143    65.86192    5.19955    71.06147   0.00353   126   % 10.0347
    63.000     144    66.14447    4.91762    71.06209   0.00415   127   % 10.0662
    63.500     145    66.31100    4.75177    71.06278   0.00484   128   % 10.0964
    64.000     146    66.35880    4.70472    71.06352   0.00559   129   % 10.1254
    64.500     147    66.28657    4.77775    71.06432   0.00639   130   % 10.1532
    65.000     147    66.09471    4.97046    71.06517   0.00724   131   % 10.1797
    65.500     148    65.78370    5.28236    71.06606   0.00814   132   % 10.2050
    66.000     149    65.35666    5.71035    71.06700   0.00908   133   % 10.2292
    66.500     150    64.81864    6.24951    71.06814   0.01022   134   % 10.2521
    67.000     150    64.17472    6.89435    71.06907   0.01115   135   % 10.2739
    67.500     151    63.43021    7.63870    71.06891   0.01099   136   % 10.2946
    68.000     152    62.59448    8.47206    71.06654   0.00862   137   % 10.3141
    68.500     153    61.67574    9.38853    71.06427   0.00636   138   % 10.3325
    69.000     154    60.68324   10.37976    71.06300   0.00510   139   % 10.3499
    69.500     155    59.62691   11.43502    71.06193   0.00403   140   % 10.3662
    70.000     156    58.51733   12.54378    71.06111   0.00321   141   % 10.3815
    70.500     157    57.36526   13.69519    71.06045   0.00255   142   % 10.3959
    71.000     159    56.18113   14.87883    71.05996   0.00207   143   % 10.4093
    71.500     160    54.97616   16.08320    71.05936   0.00148   144   % 10.4218
    72.000     162    53.76062   17.30025    71.06087   0.00299   145   % 10.4334
    72.500     163    52.54466   18.51556    71.06021   0.00234   146   % 10.4441
    73.000     165    51.33765   19.72229    71.05994   0.00207   147   % 10.4539
    73.500     167    50.14867   20.91097    71.05964   0.00178   148   % 10.4629
    74.000     168    48.98567   22.07382    71.05948   0.00164   149   % 10.4709
    74.500     170    47.85570   23.20370    71.05939   0.00155   150   % 10.4781
    75.000     172    46.76508   24.29426    71.05934   0.00151   151   % 10.4843
    75.500     174    45.71905   25.34027    71.05932   0.00150   152   % 10.4894
    76.000     176    44.72186   26.33749    71.05935   0.00153   153   % 10.4935
    76.500     177    43.77673   27.28269    71.05941   0.00161   154   % 10.4965
    77.000     179    42.88593   28.17359    71.05952   0.00172   155   % 10.4983
    77.500     181    42.05082   29.00885    71.05967   0.00188   156   % 10.4988
    78.000     183    41.27182   29.78807    71.05988   0.00211   157   % 10.4980
    78.500     184    40.54847   30.51169    71.06016   0.00239   158   % 10.4956
    79.000     186    39.87972   31.18091    71.06062   0.00287   159   % 10.4917
    79.500     188    39.26366   31.79535    71.05901   0.00126   160   % 10.4861
    80.000     189    38.69790   32.36181    71.05971   0.00198   161   % 10.4787
    80.500     191    38.17980   32.88032    71.06011   0.00239   162   % 10.4695
    81.000     192    37.70621   33.35445    71.06067   0.00296   163   % 10.4584
    81.500     194    37.27421   33.78717    71.06138   0.00368   164   % 10.4453
    82.000     195    36.88091   34.18136    71.06227   0.00458   165   % 10.4302
    82.500     196    36.52372   34.53963    71.06335   0.00567   166   % 10.4130
    83.000     197    36.20071   34.86385    71.06456   0.00690   167   % 10.3938
    83.500     198    35.91073   35.15505    71.06578   0.00813   168   % 10.3725
    84.000     200    35.65351   35.41324    71.06675   0.00911   169   % 10.3494
    84.500     201    35.42984   35.63736    71.06720   0.00957   170   % 10.3245
    85.000     202    35.24180   35.82517    71.06697   0.00935   171   % 10.2980
    85.500     203    35.09267   35.97352    71.06619   0.00859   172   % 10.2700
    86.000     205    34.98676   36.07839    71.06515   0.00756   173   % 10.2409
    86.500     206    34.92947   36.13463    71.06410   0.00652   174   % 10.2110
    87.000     208    34.92716   36.13601    71.06316   0.00560   175   % 10.1807
    87.500     210    34.98672   36.07566    71.06238   0.00483   176   % 10.1503
    88.000     212    35.11523   35.94651    71.06174   0.00421   177   % 10.1203
    88.500     214    35.31965   35.74158    71.06124   0.00371   178   % 10.0912
    89.000     216    35.60639   35.45445    71.06084   0.00333   179   % 10.0636
    89.500     218    35.98074   35.07979    71.06054   0.00303   180   % 10.0378
    90.000     220    36.44643   34.61388    71.06031   0.00282   181   % 10.0144
    90.500     223    37.00514   34.05501    71.06015   0.00267   182   %  9.9939
    91.000     225    37.65614   33.40391    71.06005   0.00258   183   %  9.9765
    91.500     227    38.39591   32.66410    71.06001   0.00256   184   %  9.9627
    92.000     230    39.21805   31.84198    71.06003   0.00259   185   %  9.9525
    92.500     232    40.11310   30.94703    71.06013   0.00270   186   %  9.9462
    93.000     234    41.06875   29.99156    71.06031   0.00289   187   %  9.9436
    93.500     236    42.07025   28.99036    71.06062   0.00320   188   %  9.9447
    94.000     238    43.10079   27.96026    71.06105   0.00365   189   %  9.9493
    94.500     239    44.14280   26.91872    71.06153   0.00414   190   %  9.9571
    95.000     241    45.17795   25.88410    71.06205   0.00467   191   %  9.9677
    95.500     242    46.18880   24.87384    71.06264   0.00526   192   %  9.9810
    96.000     243    47.15934   23.90397    71.06331   0.00594   193   %  9.9964
    96.500     245    48.07699   22.98707    71.06406   0.00670   194   % 10.0136
    97.000     246    48.93139   22.13369    71.06508   0.00773   195   % 10.0324
    97.500     247    49.71644   21.34880    71.06525   0.00790   196   % 10.0522
    98.000     248    50.43022   20.63286    71.06308   0.00574   197   % 10.0729
    98.500     250    51.07434   19.98727    71.06162   0.00429   198   % 10.0941
    99.000     252    51.65428   19.40641    71.06069   0.00336   199   % 10.1156
    99.500     253    52.17788   18.88216    71.06004   0.00272   200   % 10.1372



 **********************
 *                    *
 * JOB ENDED NORMALLY *
 *                    *
 **********************



 TOTAL JOB TIME:             1.84 SECONDS

 == MOPAC DONE ==
