 *******************************************************************************
 ** Site#: 37037        For non-commercial use only           Version 21.138W **
 *******************************************************************************
 ** Cite this program as: MOPAC2016, Version: 21.138W, James J. P. Stewart,   **
 ** Stewart Computational Chemistry, web: HTTP://OpenMOPAC.net. Days left: 356**
 *******************************************************************************
 **                                                                           **
 **                                MOPAC2016                                  **
 **                                                                           **
 *******************************************************************************

                              PM7 CALCULATION RESULTS

 *******************************************************************************
 *  CALCULATION DONE:                                Thu May 27 10:46:59 2021  *
 *  GEO_DAT    - DATA SET GEOMETRY IS IN FILE "Ring-opening cyclobutene A.arc"
 *  GEO_REF    - REFERENCE GEOMETRY IS IN FILE "Ring-opening cyclobutene B.arc"
 *               (NO BIAS TOWARDS THE REFERENCE GEOMETRY WILL BE APPLIED)
 *  SADDLE     - TRANSITION STATE TO BE OPTIMIZED
 *  T=         - A TIME OF 172800.0 SECONDS REQUESTED
 *  DUMP=N     - RESTART FILE WRITTEN EVERY 7200.0 SECONDS REQUESTED
 *  HTML       - WRITE HTML SCRIPT TO READ PDB FILE USING JSMOL
 *******************************************************************************
geo_dat="Ring-opening cyclobutene A.arc" geo_ref="Ring-opening cyclobutene B.arc" saddle html
 Ring-opening of Cyclobutene, transition state calculated using keyword "SADDLE"

   ATOM                 CHEMICAL                   X               Y               Z
  NUMBER                 SYMBOL               (ANGSTROMS)     (ANGSTROMS)     (ANGSTROMS)
 
     1       C(HETATM    1  C1  HET A   1)    0.00000143  *   0.00000260  *   0.00000000  *
     2       C(HETATM    2  C2  HET A   1)    1.58142853  *   0.00000260  *   0.00000000  *
     3       C(HETATM    3  C3  HET A   1)    0.11804010  *   1.52139787  *   0.00000000  *
     4       C(HETATM    4  C4  HET A   1)    1.46386611  *   1.52123325  *   0.00134983  *
     5       H(HETATM    5  H1  HET A   1)   -0.65446064  *   2.24262497  *  -0.00123702  *
     6       H(HETATM    6 1H2  HET A   1)   -0.45881315  *  -0.43549628  *  -0.88805891  *
     7       H(HETATM    7 2H2  HET A   1)   -0.45794267  *  -0.43497754  *   0.88894119  *
     8       H(HETATM    8  H3  HET A   1)    2.23435121  *   2.24472113  *   0.00349929  *
     9       H(HETATM    9 1H4  HET A   1)    2.04039509  *  -0.43725965  *   0.88714821  *
    10       H(HETATM   10 2H4  HET A   1)    2.03891698  *  -0.43381054  *  -0.88990529  *
 

                        After docking

                     Atoms that move a lot

                     Atom Label             GEO_REF Coordinates       Movement    Integral

            (HETATM    6 1H2  HET A   1)  -1.024   0.097  -0.327        1.57         1.57
            (HETATM    9 1H4  HET A   1)   4.128  -0.097   0.351        1.54         3.11
            (HETATM    8  H3  HET A   1)   2.517   1.600   1.265        0.98         4.09
            (HETATM    5  H1  HET A   1)   0.586   2.014  -0.340        0.98         5.07
            (HETATM    2  C2  HET A   1)   3.113   0.000   0.000        0.79         5.86
            (HETATM    1  C1  HET A   1)   0.000   0.000   0.000        0.79         6.65
            (HETATM    3  C3  HET A   1)   0.867   1.014   0.000        0.44         7.08
            (HETATM    4  C4  HET A   1)   2.244   0.891   0.479        0.43         7.51
            (HETATM    7 2H2  HET A   1)   0.248  -0.996   0.332        0.42         7.94
            (HETATM   10 2H4  HET A   1)   2.872  -0.703  -0.783        0.41         8.35

     Residues that move a lot and their (Movement in Angstroms, per atom)


   Difference between GEO_DAT and GEO_REF: 8.346 = total,  0.8346 = Average,  0.9339 = RMS, in Angstroms

 General Reference for PM7:
 "Optimization of Parameters for Semiempirical Methods VI: More Modifications to the 
 NDDO Approximations and Re-optimization of Parameters", J. J. P. Stewart, J. Mol. Mod., 1:32, 19 (2013)
 https://link.springer.com/article/10.1007/s00894-012-1667-x

           Empirical Formula: C4 H6  =    10 atoms



      MOLECULAR POINT GROUP   :   C2v 


      RHF CALCULATION, NO. OF DOUBLY OCCUPIED LEVELS = 11



  CARTESIAN GEOMETRY OF FIRST SYSTEM


   1    C         -1.55498      -0.38194      -0.09775
   2    C          1.55773      -0.38194      -0.09775
   3    C         -0.68815       0.63244      -0.09775
   4    C          0.68901       0.50951       0.38120
   5    H         -0.96866       1.63159      -0.43772
   6    H         -2.57857      -0.28518      -0.42463
   7    H         -1.30743      -1.37838       0.23454
   8    H          0.96187       1.21793       1.16706
   9    H          2.57264      -0.47868       0.25354
  10    H          1.31654      -1.08535      -0.88075


  CARTESIAN GEOMETRY OF SECOND SYSTEM


   1    C          0.76432      -0.17949      -0.04267
   2    C          2.34573      -0.17805      -0.04935
   3    C          0.88260       1.29446       0.33424
   4    C          2.22842       1.29519       0.32982
   5    H          0.11022       1.99274       0.51521
   6    H          0.30160      -0.38150      -1.00906
   7    H          0.31015      -0.82181       0.71250
   8    H          2.99903       1.99624       0.50812
   9    H          2.80845      -0.82129       0.69965
  10    H          2.79930      -0.37713      -1.02098


   "DISTANCE":     5.869851


  REACTION COORDINATE VECTOR


   1    C         -2.31930      -0.20245      -0.05507
   2    C         -0.78800      -0.20389      -0.04839
   3    C         -1.57075      -0.66202      -0.43198
   4    C         -1.53941      -0.78568       0.05138
   5    H         -1.07888      -0.36115      -0.95293
   6    H         -2.88017       0.09632       0.58443
   7    H         -1.61758      -0.55658      -0.47796
   8    H         -2.03715      -0.77831       0.65894
   9    H         -0.23581       0.34261      -0.44611
  10    H         -1.48276      -0.70822       0.14023
 *+*+*+*+*+*+*+*+*+*+*+*+*+*+*+*+*+*+*+*+*+*+*+*+*+*+*+*+*+*+*+*+*+*+*+*+*+*+*+*+
            BAR SHORTENED BY       0.000 PERCENT
 GRADIENT CRITERION IN FLEPO =     1.000


          FOR POINT    1 SECOND STRUCTURE
 DISTANCE A - B      5.869851
 HEAT               27.787112
 GRADIENT NORM       1.550863
 DIRECTION COSINE   -0.000000
 html
 Ring-opening of Cyclobutene, transition state calculated using keyword "SADDLE"

  C(HETATM    1  C1  HET A   1)   0.00000000 +1    0.0000000 +1    0.0000000 +1
  C(HETATM    2  C2  HET A   1)   3.11251693 +1    0.0000000 +1    0.0000000 +1     1     0     0
  C(HETATM    3  C3  HET A   1)   1.33420932 +1   49.4876490 +1    0.0000000 +1     1     2     0
  C(HETATM    4  C4  HET A   1)   1.33372928 +1   49.3664629 +1   28.1948455 +1     2     1     3
  H(HETATM    5  H1  HET A   1)   1.09233208 +1  121.8989774 +1  158.3829423 +1     3     1     2
  H(HETATM    6 1H2  HET A   1)   1.07878797 +1  161.5848438 +1   73.7139659 +1     1     2     3
  H(HETATM    7 2H2  HET A   1)   1.07926893 +1   76.7446872 +1 -161.4973051 +1     1     2     3
  H(HETATM    8  H3  HET A   1)   1.09257524 +1  121.9438675 +1  157.3530124 +1     4     2     1
  H(HETATM    9 1H4  HET A   1)   1.07773538 +1  160.3634824 +1  104.0828715 +1     2     1     3
  H(HETATM   10 2H4  HET A   1)   1.07970526 +1   77.1017138 +1 -131.9855508 +1     2     1     3
 
 TIME=     0.00
  REACTANTS AND PRODUCTS SWAPPED AROUND
 *+*+*+*+*+*+*+*+*+*+*+*+*+*+*+*+*+*+*+*+*+*+*+*+*+*+*+*+*+*+*+*+*+*+*+*+*+*+*+*+
            BAR SHORTENED BY       1.000 PERCENT
 GRADIENT CRITERION IN FLEPO =     1.000
           THERE HAVE BEEN 3 ATTEMPTS TO REDUCE THE GRADIENT.
           DURING THESE ATTEMPTS THE ENERGY DROPPED BY LESS THAN 0.3 KCAL/MOLE
           FURTHER CALCULATION IS NOT JUSTIFIED AT THIS TIME.
           TO CONTINUE, START AGAIN WITH THE WORD "PRECISE"


          FOR POINT    2 FIRST  STRUCTURE
 DISTANCE A - B      5.811153
 HEAT               37.178984
 GRADIENT NORM       2.283769
 DIRECTION COSINE   -0.101511
 html
 Ring-opening of Cyclobutene, transition state calculated using keyword "SADDLE"

  C(HETATM    1  C1  HET A   1)   0.00000000 +1    0.0000000 +1    0.0000000 +1
  C(HETATM    2  C2  HET A   1)   1.57961627 +1    0.0000000 +1    0.0000000 +1     1     0     0
  C(HETATM    3  C3  HET A   1)   1.52658528 +1   85.5857878 +1    0.0000000 +1     1     2     0
  C(HETATM    4  C4  HET A   1)   1.34618048 +1   94.4198478 +1   -0.2498722 +1     3     1     2
  H(HETATM    5  H1  HET A   1)   1.05673069 +1  128.5240826 +1  179.3867030 +1     3     1     2
  H(HETATM    6 1H2  HET A   1)   1.08912264 +1  115.0041452 +1  116.0626535 +1     1     2     3
  H(HETATM    7 2H2  HET A   1)   1.09048916 +1  114.8120336 +1 -116.0288295 +1     1     2     3
  H(HETATM    8  H3  HET A   1)   1.05732053 +1  136.7761485 +1 -179.6098653 +1     4     3     1
  H(HETATM    9 1H4  HET A   1)   1.09065113 +1  114.7837771 +1  116.2649794 +1     2     1     3
  H(HETATM   10 2H4  HET A   1)   1.08977135 +1  114.9181249 +1 -115.7556323 +1     2     1     3
 
 TIME=     0.02
  REACTANTS AND PRODUCTS SWAPPED AROUND
 *+*+*+*+*+*+*+*+*+*+*+*+*+*+*+*+*+*+*+*+*+*+*+*+*+*+*+*+*+*+*+*+*+*+*+*+*+*+*+*+
            BAR SHORTENED BY       1.000 PERCENT
 GRADIENT CRITERION IN FLEPO =     1.000
           THERE HAVE BEEN 3 ATTEMPTS TO REDUCE THE GRADIENT.
           DURING THESE ATTEMPTS THE ENERGY DROPPED BY LESS THAN 0.3 KCAL/MOLE
           FURTHER CALCULATION IS NOT JUSTIFIED AT THIS TIME.
           TO CONTINUE, START AGAIN WITH THE WORD "PRECISE"


          FOR POINT    3 SECOND STRUCTURE
 DISTANCE A - B      5.753041
 HEAT               27.783731
 GRADIENT NORM       2.281823
 DIRECTION COSINE   -0.205944
 html
 Ring-opening of Cyclobutene, transition state calculated using keyword "SADDLE"

  C(HETATM    1  C1  HET A   1)   0.00000000 +1    0.0000000 +1    0.0000000 +1
  C(HETATM    2  C2  HET A   1)   3.10113303 +1    0.0000000 +1    0.0000000 +1     1     0     0
  C(HETATM    3  C3  HET A   1)   1.33441490 +1   49.8240401 +1    0.0000000 +1     1     2     0
  C(HETATM    4  C4  HET A   1)   1.33397960 +1   49.7591706 +1   27.7854813 +1     2     1     3
  H(HETATM    5  H1  HET A   1)   1.09116841 +1  121.9740225 +1  158.1326828 +1     3     1     2
  H(HETATM    6 1H2  HET A   1)   1.07779272 +1  161.1582331 +1   76.3829325 +1     1     2     3
  H(HETATM    7 2H2  HET A   1)   1.08048974 +1   76.5527570 +1 -160.8189020 +1     1     2     3
  H(HETATM    8  H3  HET A   1)   1.09396930 +1  121.8815625 +1  157.6397282 +1     4     2     1
  H(HETATM    9 1H4  HET A   1)   1.07973074 +1  160.3730737 +1  104.8567463 +1     2     1     3
  H(HETATM   10 2H4  HET A   1)   1.07984263 +1   76.8593953 +1 -132.3743119 +1     2     1     3
 
 *+*+*+*+*+*+*+*+*+*+*+*+*+*+*+*+*+*+*+*+*+*+*+*+*+*+*+*+*+*+*+*+*+*+*+*+*+*+*+*+
            BAR SHORTENED BY       1.000 PERCENT
 GRADIENT CRITERION IN FLEPO =     1.000
           THERE HAVE BEEN 3 ATTEMPTS TO REDUCE THE GRADIENT.
           DURING THESE ATTEMPTS THE ENERGY DROPPED BY LESS THAN 0.3 KCAL/MOLE
           FURTHER CALCULATION IS NOT JUSTIFIED AT THIS TIME.
           TO CONTINUE, START AGAIN WITH THE WORD "PRECISE"


          FOR POINT    4 SECOND STRUCTURE
 DISTANCE A - B      5.695511
 HEAT               27.795554
 GRADIENT NORM       3.971956
 DIRECTION COSINE   -0.105273
 html
 Ring-opening of Cyclobutene, transition state calculated using keyword "SADDLE"

  C(HETATM    1  C1  HET A   1)   0.00000000 +1    0.0000000 +1    0.0000000 +1
  C(HETATM    2  C2  HET A   1)   3.09587653 +1    0.0000000 +1    0.0000000 +1     1     0     0
  C(HETATM    3  C3  HET A   1)   1.33335365 +1   50.0851657 +1    0.0000000 +1     1     2     0
  C(HETATM    4  C4  HET A   1)   1.33438371 +1   49.9448226 +1   27.5290378 +1     2     1     3
  H(HETATM    5  H1  HET A   1)   1.09337381 +1  122.0826198 +1  157.9369075 +1     3     1     2
  H(HETATM    6 1H2  HET A   1)   1.07678449 +1  161.0335004 +1   77.1743245 +1     1     2     3
  H(HETATM    7 2H2  HET A   1)   1.07982760 +1   76.4941397 +1 -160.2054984 +1     1     2     3
  H(HETATM    8  H3  HET A   1)   1.09239836 +1  121.8986712 +1  158.0628823 +1     4     2     1
  H(HETATM    9 1H4  HET A   1)   1.07912759 +1  160.4255997 +1  105.3678802 +1     2     1     3
  H(HETATM   10 2H4  HET A   1)   1.07898386 +1   76.5353677 +1 -132.4585551 +1     2     1     3
 
 TIME=     0.05
  REACTANTS AND PRODUCTS SWAPPED AROUND
 *+*+*+*+*+*+*+*+*+*+*+*+*+*+*+*+*+*+*+*+*+*+*+*+*+*+*+*+*+*+*+*+*+*+*+*+*+*+*+*+
            BAR SHORTENED BY       1.000 PERCENT
 GRADIENT CRITERION IN FLEPO =     1.000
 

                    SINCE COS WAS JUST RESET,THE SEARCH IS BEING ENDED


          FOR POINT    5 FIRST  STRUCTURE
 DISTANCE A - B      5.638556
 HEAT               37.233928
 GRADIENT NORM       6.738822
 DIRECTION COSINE    0.312008
 html
 Ring-opening of Cyclobutene, transition state calculated using keyword "SADDLE"

  C(HETATM    1  C1  HET A   1)   0.00000000 +1    0.0000000 +1    0.0000000 +1
  C(HETATM    2  C2  HET A   1)   1.58526716 +1    0.0000000 +1    0.0000000 +1     1     0     0
  C(HETATM    3  C3  HET A   1)   1.52717607 +1   85.4060664 +1    0.0000000 +1     1     2     0
  C(HETATM    4  C4  HET A   1)   1.34563844 +1   94.6076332 +1   -0.4407962 +1     3     1     2
  H(HETATM    5  H1  HET A   1)   1.05432013 +1  128.3547878 +1  179.1966542 +1     3     1     2
  H(HETATM    6 1H2  HET A   1)   1.08991221 +1  115.5403230 +1  115.9300520 +1     1     2     3
  H(HETATM    7 2H2  HET A   1)   1.09085936 +1  114.6537363 +1 -116.4394143 +1     1     2     3
  H(HETATM    8  H3  HET A   1)   1.05226782 +1  136.7335247 +1 -179.1310602 +1     4     3     1
  H(HETATM    9 1H4  HET A   1)   1.09158290 +1  115.2998154 +1  116.3337031 +1     2     1     3
  H(HETATM   10 2H4  HET A   1)   1.09045239 +1  114.6995005 +1 -115.9851408 +1     2     1     3
 
 TIME=     0.02
  REACTANTS AND PRODUCTS SWAPPED AROUND
 *+*+*+*+*+*+*+*+*+*+*+*+*+*+*+*+*+*+*+*+*+*+*+*+*+*+*+*+*+*+*+*+*+*+*+*+*+*+*+*+
            BAR SHORTENED BY       1.000 PERCENT
 GRADIENT CRITERION IN FLEPO =     3.739


          FOR POINT    6 SECOND STRUCTURE
 DISTANCE A - B      5.582170
 HEAT               27.869770
 GRADIENT NORM       5.651942
 DIRECTION COSINE    0.325874
 html
 Ring-opening of Cyclobutene, transition state calculated using keyword "SADDLE"

  C(HETATM    1  C1  HET A   1)   0.00000000 +1    0.0000000 +1    0.0000000 +1
  C(HETATM    2  C2  HET A   1)   3.08304212 +1    0.0000000 +1    0.0000000 +1     1     0     0
  C(HETATM    3  C3  HET A   1)   1.33492320 +1   50.3422440 +1    0.0000000 +1     1     2     0
  C(HETATM    4  C4  HET A   1)   1.33313318 +1   50.2542592 +1   27.2968655 +1     2     1     3
  H(HETATM    5  H1  HET A   1)   1.09214042 +1  122.2548046 +1  158.1834973 +1     3     1     2
  H(HETATM    6 1H2  HET A   1)   1.07996953 +1  160.4207256 +1   78.5292786 +1     1     2     3
  H(HETATM    7 2H2  HET A   1)   1.07828712 +1   76.6174838 +1 -160.5086716 +1     1     2     3
  H(HETATM    8  H3  HET A   1)   1.09284916 +1  121.7869233 +1  158.1993136 +1     4     2     1
  H(HETATM    9 1H4  HET A   1)   1.07895003 +1  160.0335578 +1  106.2821530 +1     2     1     3
  H(HETATM   10 2H4  HET A   1)   1.08167591 +1   76.7343878 +1 -132.4090662 +1     2     1     3
 
 *+*+*+*+*+*+*+*+*+*+*+*+*+*+*+*+*+*+*+*+*+*+*+*+*+*+*+*+*+*+*+*+*+*+*+*+*+*+*+*+
            BAR SHORTENED BY       1.000 PERCENT
 GRADIENT CRITERION IN FLEPO =     2.652
           THERE HAVE BEEN 3 ATTEMPTS TO REDUCE THE GRADIENT.
           DURING THESE ATTEMPTS THE ENERGY DROPPED BY LESS THAN 0.3 KCAL/MOLE
           FURTHER CALCULATION IS NOT JUSTIFIED AT THIS TIME.
           TO CONTINUE, START AGAIN WITH THE WORD "PRECISE"


          FOR POINT    7 SECOND STRUCTURE
 DISTANCE A - B      5.526348
 HEAT               27.844684
 GRADIENT NORM      10.843509
 DIRECTION COSINE    0.434668
 html
 Ring-opening of Cyclobutene, transition state calculated using keyword "SADDLE"

  C(HETATM    1  C1  HET A   1)   0.00000000 +1    0.0000000 +1    0.0000000 +1
  C(HETATM    2  C2  HET A   1)   3.07971974 +1    0.0000000 +1    0.0000000 +1     1     0     0
  C(HETATM    3  C3  HET A   1)   1.33728528 +1   50.5118604 +1    0.0000000 +1     1     2     0
  C(HETATM    4  C4  HET A   1)   1.33418389 +1   50.4544141 +1   26.6507761 +1     2     1     3
  H(HETATM    5  H1  HET A   1)   1.09092591 +1  122.0947016 +1  157.9594576 +1     3     1     2
  H(HETATM    6 1H2  HET A   1)   1.07587923 +1  160.8137375 +1   78.1917545 +1     1     2     3
  H(HETATM    7 2H2  HET A   1)   1.07918813 +1   75.9496640 +1 -159.7496707 +1     1     2     3
  H(HETATM    8  H3  HET A   1)   1.09661759 +1  121.6160833 +1  158.0918887 +1     4     2     1
  H(HETATM    9 1H4  HET A   1)   1.07634305 +1  160.5959810 +1  105.6605229 +1     2     1     3
  H(HETATM   10 2H4  HET A   1)   1.08455138 +1   76.1736114 +1 -133.0780553 +1     2     1     3
 
 *+*+*+*+*+*+*+*+*+*+*+*+*+*+*+*+*+*+*+*+*+*+*+*+*+*+*+*+*+*+*+*+*+*+*+*+*+*+*+*+
            BAR SHORTENED BY       1.000 PERCENT
 GRADIENT CRITERION IN FLEPO =     7.844


          FOR POINT    8 SECOND STRUCTURE
 DISTANCE A - B      5.471085
 HEAT               27.881232
 GRADIENT NORM       9.725744
 DIRECTION COSINE   -0.620106
 html
 Ring-opening of Cyclobutene, transition state calculated using keyword "SADDLE"

  C(HETATM    1  C1  HET A   1)   0.00000000 +1    0.0000000 +1    0.0000000 +1
  C(HETATM    2  C2  HET A   1)   3.06530085 +1    0.0000000 +1    0.0000000 +1     1     0     0
  C(HETATM    3  C3  HET A   1)   1.33215632 +1   50.9203373 +1    0.0000000 +1     1     2     0
  C(HETATM    4  C4  HET A   1)   1.33307481 +1   50.9823567 +1   26.4928392 +1     2     1     3
  H(HETATM    5  H1  HET A   1)   1.09009965 +1  122.4389854 +1  158.3149055 +1     3     1     2
  H(HETATM    6 1H2  HET A   1)   1.07730356 +1  160.3391467 +1   79.8228113 +1     1     2     3
  H(HETATM    7 2H2  HET A   1)   1.07911079 +1   76.1414862 +1 -159.7184272 +1     1     2     3
  H(HETATM    8  H3  HET A   1)   1.08816810 +1  122.2201782 +1  158.0402136 +1     4     2     1
  H(HETATM    9 1H4  HET A   1)   1.08019042 +1  160.0864100 +1  106.2720204 +1     2     1     3
  H(HETATM   10 2H4  HET A   1)   1.07803742 +1   76.3419125 +1 -132.8920007 +1     2     1     3
 
 TIME=     0.03
  REACTANTS AND PRODUCTS SWAPPED AROUND
 *+*+*+*+*+*+*+*+*+*+*+*+*+*+*+*+*+*+*+*+*+*+*+*+*+*+*+*+*+*+*+*+*+*+*+*+*+*+*+*+
            BAR SHORTENED BY       0.000 PERCENT
 GRADIENT CRITERION IN FLEPO =     6.726


          FOR POINT    9 FIRST  STRUCTURE
 DISTANCE A - B      5.471085
 HEAT               37.214005
 GRADIENT NORM       7.448812
 DIRECTION COSINE   -0.238130
 html
 Ring-opening of Cyclobutene, transition state calculated using keyword "SADDLE"

  C(HETATM    1  C1  HET A   1)   0.00000000 +1    0.0000000 +1    0.0000000 +1
  C(HETATM    2  C2  HET A   1)   1.57648405 +1    0.0000000 +1    0.0000000 +1     1     0     0
  C(HETATM    3  C3  HET A   1)   1.52460838 +1   85.5103772 +1    0.0000000 +1     1     2     0
  C(HETATM    4  C4  HET A   1)   1.34531813 +1   94.5297342 +1   -0.4685112 +1     3     1     2
  H(HETATM    5  H1  HET A   1)   1.05774611 +1  128.4965663 +1  179.4309612 +1     3     1     2
  H(HETATM    6 1H2  HET A   1)   1.09123878 +1  115.5156709 +1  115.9148214 +1     1     2     3
  H(HETATM    7 2H2  HET A   1)   1.09146655 +1  114.7800621 +1 -116.5305237 +1     1     2     3
  H(HETATM    8  H3  HET A   1)   1.05720446 +1  136.7287481 +1 -178.9732366 +1     4     3     1
  H(HETATM    9 1H4  HET A   1)   1.09327796 +1  115.5508266 +1  116.4156103 +1     2     1     3
  H(HETATM   10 2H4  HET A   1)   1.09237771 +1  114.9696170 +1 -115.7693061 +1     2     1     3
 
 TIME=     0.00
  REACTANTS AND PRODUCTS SWAPPED AROUND
 *+*+*+*+*+*+*+*+*+*+*+*+*+*+*+*+*+*+*+*+*+*+*+*+*+*+*+*+*+*+*+*+*+*+*+*+*+*+*+*+
            BAR SHORTENED BY       1.000 PERCENT
 GRADIENT CRITERION IN FLEPO =     4.449


          FOR POINT   10 SECOND STRUCTURE
 DISTANCE A - B      5.416374
 HEAT               27.890987
 GRADIENT NORM       9.195039
 DIRECTION COSINE   -0.114025
 html
 Ring-opening of Cyclobutene, transition state calculated using keyword "SADDLE"

  C(HETATM    1  C1  HET A   1)   0.00000000 +1    0.0000000 +1    0.0000000 +1
  C(HETATM    2  C2  HET A   1)   3.06500690 +1    0.0000000 +1    0.0000000 +1     1     0     0
  C(HETATM    3  C3  HET A   1)   1.33303202 +1   51.1462093 +1    0.0000000 +1     1     2     0
  C(HETATM    4  C4  HET A   1)   1.33490043 +1   50.8066275 +1   26.1355327 +1     2     1     3
  H(HETATM    5  H1  HET A   1)   1.09256255 +1  122.2399064 +1  158.2635664 +1     3     1     2
  H(HETATM    6 1H2  HET A   1)   1.07873335 +1  160.5342141 +1   81.6498255 +1     1     2     3
  H(HETATM    7 2H2  HET A   1)   1.08349454 +1   75.5949965 +1 -159.6307007 +1     1     2     3
  H(HETATM    8  H3  HET A   1)   1.09902257 +1  121.7015252 +1  158.3724510 +1     4     2     1
  H(HETATM    9 1H4  HET A   1)   1.07941798 +1  160.5021950 +1  106.3281304 +1     2     1     3
  H(HETATM   10 2H4  HET A   1)   1.08118641 +1   75.7749357 +1 -133.0046105 +1     2     1     3
 
 TIME=     0.02
  REACTANTS AND PRODUCTS SWAPPED AROUND
 *+*+*+*+*+*+*+*+*+*+*+*+*+*+*+*+*+*+*+*+*+*+*+*+*+*+*+*+*+*+*+*+*+*+*+*+*+*+*+*+
            BAR SHORTENED BY       1.000 PERCENT
 GRADIENT CRITERION IN FLEPO =     6.195


          FOR POINT   11 FIRST  STRUCTURE
 DISTANCE A - B      5.362210
 HEAT               37.258771
 GRADIENT NORM       5.390630
 DIRECTION COSINE   -0.001369
 html
 Ring-opening of Cyclobutene, transition state calculated using keyword "SADDLE"

  C(HETATM    1  C1  HET A   1)   0.00000000 +1    0.0000000 +1    0.0000000 +1
  C(HETATM    2  C2  HET A   1)   1.58238098 +1    0.0000000 +1    0.0000000 +1     1     0     0
  C(HETATM    3  C3  HET A   1)   1.52461588 +1   85.4117329 +1    0.0000000 +1     1     2     0
  C(HETATM    4  C4  HET A   1)   1.34584414 +1   94.6089520 +1   -0.6466401 +1     3     1     2
  H(HETATM    5  H1  HET A   1)   1.05763325 +1  128.6459879 +1  179.0374321 +1     3     1     2
  H(HETATM    6 1H2  HET A   1)   1.08965714 +1  115.7216665 +1  115.7197257 +1     1     2     3
  H(HETATM    7 2H2  HET A   1)   1.09242283 +1  114.6604535 +1 -116.6242827 +1     1     2     3
  H(HETATM    8  H3  HET A   1)   1.05712736 +1  136.6178430 +1 -178.5627333 +1     4     3     1
  H(HETATM    9 1H4  HET A   1)   1.09188463 +1  115.8676689 +1  116.2254568 +1     2     1     3
  H(HETATM   10 2H4  HET A   1)   1.09239561 +1  114.8557978 +1 -115.8007224 +1     2     1     3
 
 TIME=     0.02
  REACTANTS AND PRODUCTS SWAPPED AROUND
 *+*+*+*+*+*+*+*+*+*+*+*+*+*+*+*+*+*+*+*+*+*+*+*+*+*+*+*+*+*+*+*+*+*+*+*+*+*+*+*+
            BAR SHORTENED BY       1.000 PERCENT
 GRADIENT CRITERION IN FLEPO =     2.391
           THERE HAVE BEEN 3 ATTEMPTS TO REDUCE THE GRADIENT.
           DURING THESE ATTEMPTS THE ENERGY DROPPED BY LESS THAN 0.3 KCAL/MOLE
           FURTHER CALCULATION IS NOT JUSTIFIED AT THIS TIME.
           TO CONTINUE, START AGAIN WITH THE WORD "PRECISE"


          FOR POINT   12 SECOND STRUCTURE
 DISTANCE A - B      5.308588
 HEAT               27.818637
 GRADIENT NORM      11.967809
 DIRECTION COSINE   -0.097056
 html
 Ring-opening of Cyclobutene, transition state calculated using keyword "SADDLE"

  C(HETATM    1  C1  HET A   1)   0.00000000 +1    0.0000000 +1    0.0000000 +1
  C(HETATM    2  C2  HET A   1)   3.07120596 +1    0.0000000 +1    0.0000000 +1     1     0     0
  C(HETATM    3  C3  HET A   1)   1.33621852 +1   50.9284140 +1    0.0000000 +1     1     2     0
  C(HETATM    4  C4  HET A   1)   1.33131856 +1   50.7169590 +1   26.3663397 +1     2     1     3
  H(HETATM    5  H1  HET A   1)   1.08671411 +1  122.4405138 +1  158.7849974 +1     3     1     2
  H(HETATM    6 1H2  HET A   1)   1.07491428 +1  162.0790067 +1   79.8164627 +1     1     2     3
  H(HETATM    7 2H2  HET A   1)   1.07480644 +1   74.8496262 +1 -161.4445685 +1     1     2     3
  H(HETATM    8  H3  HET A   1)   1.09033500 +1  121.7554616 +1  158.6646833 +1     4     2     1
  H(HETATM    9 1H4  HET A   1)   1.07865930 +1  161.8029525 +1  104.5110036 +1     2     1     3
  H(HETATM   10 2H4  HET A   1)   1.08353531 +1   75.8281969 +1 -134.8770530 +1     2     1     3
 
 TIME=     0.03
  REACTANTS AND PRODUCTS SWAPPED AROUND
 *+*+*+*+*+*+*+*+*+*+*+*+*+*+*+*+*+*+*+*+*+*+*+*+*+*+*+*+*+*+*+*+*+*+*+*+*+*+*+*+
            BAR SHORTENED BY       1.000 PERCENT
 GRADIENT CRITERION IN FLEPO =     8.968


          FOR POINT   13 FIRST  STRUCTURE
 DISTANCE A - B      5.255502
 HEAT               37.321599
 GRADIENT NORM       9.482521
 DIRECTION COSINE    0.066978
 html
 Ring-opening of Cyclobutene, transition state calculated using keyword "SADDLE"

  C(HETATM    1  C1  HET A   1)   0.00000000 +1    0.0000000 +1    0.0000000 +1
  C(HETATM    2  C2  HET A   1)   1.58688176 +1    0.0000000 +1    0.0000000 +1     1     0     0
  C(HETATM    3  C3  HET A   1)   1.52379975 +1   85.3115597 +1    0.0000000 +1     1     2     0
  C(HETATM    4  C4  HET A   1)   1.34299544 +1   94.6670979 +1   -0.6810481 +1     3     1     2
  H(HETATM    5  H1  HET A   1)   1.05701988 +1  128.7069463 +1  178.7654876 +1     3     1     2
  H(HETATM    6 1H2  HET A   1)   1.09138983 +1  116.2150320 +1  115.5119833 +1     1     2     3
  H(HETATM    7 2H2  HET A   1)   1.08977803 +1  114.5957484 +1 -116.7693785 +1     1     2     3
  H(HETATM    8  H3  HET A   1)   1.05844664 +1  136.4367948 +1 -177.8347340 +1     4     3     1
  H(HETATM    9 1H4  HET A   1)   1.09211057 +1  116.3422920 +1  116.2094497 +1     2     1     3
  H(HETATM   10 2H4  HET A   1)   1.09189366 +1  114.6736437 +1 -115.5235917 +1     2     1     3
 
 TIME=     0.00
  REACTANTS AND PRODUCTS SWAPPED AROUND
 *+*+*+*+*+*+*+*+*+*+*+*+*+*+*+*+*+*+*+*+*+*+*+*+*+*+*+*+*+*+*+*+*+*+*+*+*+*+*+*+
            BAR SHORTENED BY       1.000 PERCENT
 GRADIENT CRITERION IN FLEPO =     6.483


          FOR POINT   14 SECOND STRUCTURE
 DISTANCE A - B      5.202947
 HEAT               27.840734
 GRADIENT NORM       8.569461
 DIRECTION COSINE   -0.374428
 html
 Ring-opening of Cyclobutene, transition state calculated using keyword "SADDLE"

  C(HETATM    1  C1  HET A   1)   0.00000000 +1    0.0000000 +1    0.0000000 +1
  C(HETATM    2  C2  HET A   1)   3.05848581 +1    0.0000000 +1    0.0000000 +1     1     0     0
  C(HETATM    3  C3  HET A   1)   1.33380169 +1   51.2015955 +1    0.0000000 +1     1     2     0
  C(HETATM    4  C4  HET A   1)   1.33392816 +1   50.9959332 +1   25.9762092 +1     2     1     3
  H(HETATM    5  H1  HET A   1)   1.08967214 +1  122.2392274 +1  158.7167943 +1     3     1     2
  H(HETATM    6 1H2  HET A   1)   1.07574408 +1  161.6380174 +1   80.7090039 +1     1     2     3
  H(HETATM    7 2H2  HET A   1)   1.08244899 +1   74.9720064 +1 -160.2948182 +1     1     2     3
  H(HETATM    8  H3  HET A   1)   1.09881046 +1  121.6244796 +1  158.7902045 +1     4     2     1
  H(HETATM    9 1H4  HET A   1)   1.08143471 +1  161.2917613 +1  104.6788914 +1     2     1     3
  H(HETATM   10 2H4  HET A   1)   1.07922681 +1   75.8848355 +1 -134.8706564 +1     2     1     3
 
 TIME=     0.02
  REACTANTS AND PRODUCTS SWAPPED AROUND
 *+*+*+*+*+*+*+*+*+*+*+*+*+*+*+*+*+*+*+*+*+*+*+*+*+*+*+*+*+*+*+*+*+*+*+*+*+*+*+*+
            BAR SHORTENED BY       1.000 PERCENT
 GRADIENT CRITERION IN FLEPO =     5.569


          FOR POINT   15 FIRST  STRUCTURE
 DISTANCE A - B      5.150918
 HEAT               37.257277
 GRADIENT NORM       8.723629
 DIRECTION COSINE    0.179359
 html
 Ring-opening of Cyclobutene, transition state calculated using keyword "SADDLE"

  C(HETATM    1  C1  HET A   1)   0.00000000 +1    0.0000000 +1    0.0000000 +1
  C(HETATM    2  C2  HET A   1)   1.58027106 +1    0.0000000 +1    0.0000000 +1     1     0     0
  C(HETATM    3  C3  HET A   1)   1.52376547 +1   85.4909174 +1    0.0000000 +1     1     2     0
  C(HETATM    4  C4  HET A   1)   1.34615905 +1   94.7038649 +1   -1.1592991 +1     3     1     2
  H(HETATM    5  H1  HET A   1)   1.05531206 +1  127.9941131 +1  178.7871194 +1     3     1     2
  H(HETATM    6 1H2  HET A   1)   1.09135038 +1  114.9862030 +1  116.0747107 +1     1     2     3
  H(HETATM    7 2H2  HET A   1)   1.09526477 +1  115.0266761 +1 -116.5938705 +1     1     2     3
  H(HETATM    8  H3  HET A   1)   1.05326862 +1  136.9060978 +1 -179.1159245 +1     4     3     1
  H(HETATM    9 1H4  HET A   1)   1.09404883 +1  114.6891539 +1  117.0226983 +1     2     1     3
  H(HETATM   10 2H4  HET A   1)   1.08883710 +1  114.7684273 +1 -115.0356930 +1     2     1     3
 
 TIME=     0.02
  REACTANTS AND PRODUCTS SWAPPED AROUND
 *+*+*+*+*+*+*+*+*+*+*+*+*+*+*+*+*+*+*+*+*+*+*+*+*+*+*+*+*+*+*+*+*+*+*+*+*+*+*+*+
            BAR SHORTENED BY       1.000 PERCENT
 GRADIENT CRITERION IN FLEPO =     5.724


          FOR POINT   16 SECOND STRUCTURE
 DISTANCE A - B      5.099409
 HEAT               27.898896
 GRADIENT NORM       9.231268
 DIRECTION COSINE   -0.013803
 html
 Ring-opening of Cyclobutene, transition state calculated using keyword "SADDLE"

  C(HETATM    1  C1  HET A   1)   0.00000000 +1    0.0000000 +1    0.0000000 +1
  C(HETATM    2  C2  HET A   1)   3.05371584 +1    0.0000000 +1    0.0000000 +1     1     0     0
  C(HETATM    3  C3  HET A   1)   1.33487466 +1   51.5152389 +1    0.0000000 +1     1     2     0
  C(HETATM    4  C4  HET A   1)   1.33786346 +1   51.2127072 +1   25.6982972 +1     2     1     3
  H(HETATM    5  H1  HET A   1)   1.08999746 +1  122.3747212 +1  158.9285687 +1     3     1     2
  H(HETATM    6 1H2  HET A   1)   1.07736173 +1  161.2186093 +1   81.1761587 +1     1     2     3
  H(HETATM    7 2H2  HET A   1)   1.08023557 +1   75.1729899 +1 -160.3133048 +1     1     2     3
  H(HETATM    8  H3  HET A   1)   1.09050553 +1  121.6735818 +1  158.8288079 +1     4     2     1
  H(HETATM    9 1H4  HET A   1)   1.07590709 +1  160.8427705 +1  105.4311266 +1     2     1     3
  H(HETATM   10 2H4  HET A   1)   1.08106760 +1   75.6276741 +1 -134.6425343 +1     2     1     3
 
 TIME=     0.00
  REACTANTS AND PRODUCTS SWAPPED AROUND
 *+*+*+*+*+*+*+*+*+*+*+*+*+*+*+*+*+*+*+*+*+*+*+*+*+*+*+*+*+*+*+*+*+*+*+*+*+*+*+*+
            BAR SHORTENED BY       1.000 PERCENT
 GRADIENT CRITERION IN FLEPO =     6.231


          FOR POINT   17 FIRST  STRUCTURE
 DISTANCE A - B      5.048415
 HEAT               37.276540
 GRADIENT NORM       6.596389
 DIRECTION COSINE    0.230465
 html
 Ring-opening of Cyclobutene, transition state calculated using keyword "SADDLE"

  C(HETATM    1  C1  HET A   1)   0.00000000 +1    0.0000000 +1    0.0000000 +1
  C(HETATM    2  C2  HET A   1)   1.58967389 +1    0.0000000 +1    0.0000000 +1     1     0     0
  C(HETATM    3  C3  HET A   1)   1.52408669 +1   85.3392367 +1    0.0000000 +1     1     2     0
  C(HETATM    4  C4  HET A   1)   1.34622345 +1   94.6227399 +1   -1.0263501 +1     3     1     2
  H(HETATM    5  H1  HET A   1)   1.05913967 +1  128.4025182 +1  178.4317276 +1     3     1     2
  H(HETATM    6 1H2  HET A   1)   1.08873773 +1  115.8033740 +1  116.0858997 +1     1     2     3
  H(HETATM    7 2H2  HET A   1)   1.09120027 +1  114.7847234 +1 -116.5484276 +1     1     2     3
  H(HETATM    8  H3  HET A   1)   1.05732760 +1  136.4463393 +1 -178.5966705 +1     4     3     1
  H(HETATM    9 1H4  HET A   1)   1.08814088 +1  115.3587146 +1  117.0693578 +1     2     1     3
  H(HETATM   10 2H4  HET A   1)   1.09044820 +1  114.4108846 +1 -115.3215994 +1     2     1     3
 
 TIME=     0.02
  REACTANTS AND PRODUCTS SWAPPED AROUND
 *+*+*+*+*+*+*+*+*+*+*+*+*+*+*+*+*+*+*+*+*+*+*+*+*+*+*+*+*+*+*+*+*+*+*+*+*+*+*+*+
            BAR SHORTENED BY       1.000 PERCENT
 GRADIENT CRITERION IN FLEPO =     3.596


          FOR POINT   18 SECOND STRUCTURE
 DISTANCE A - B      4.997930
 HEAT               27.879095
 GRADIENT NORM       5.399519
 DIRECTION COSINE    0.199630
 html
 Ring-opening of Cyclobutene, transition state calculated using keyword "SADDLE"

  C(HETATM    1  C1  HET A   1)   0.00000000 +1    0.0000000 +1    0.0000000 +1
  C(HETATM    2  C2  HET A   1)   3.04590654 +1    0.0000000 +1    0.0000000 +1     1     0     0
  C(HETATM    3  C3  HET A   1)   1.33620221 +1   51.5966044 +1    0.0000000 +1     1     2     0
  C(HETATM    4  C4  HET A   1)   1.33386529 +1   51.6630529 +1   25.2336343 +1     2     1     3
  H(HETATM    5  H1  HET A   1)   1.09137137 +1  122.2405213 +1  159.1354409 +1     3     1     2
  H(HETATM    6 1H2  HET A   1)   1.07566437 +1  161.7473607 +1   82.5280005 +1     1     2     3
  H(HETATM    7 2H2  HET A   1)   1.07982923 +1   74.1768309 +1 -161.0125173 +1     1     2     3
  H(HETATM    8  H3  HET A   1)   1.09174644 +1  122.0577720 +1  159.1446954 +1     4     2     1
  H(HETATM    9 1H4  HET A   1)   1.07770946 +1  161.4080977 +1  106.9524237 +1     2     1     3
  H(HETATM   10 2H4  HET A   1)   1.07888564 +1   75.0194553 +1 -135.3309121 +1     2     1     3
 
 *+*+*+*+*+*+*+*+*+*+*+*+*+*+*+*+*+*+*+*+*+*+*+*+*+*+*+*+*+*+*+*+*+*+*+*+*+*+*+*+
            BAR SHORTENED BY       1.000 PERCENT
 GRADIENT CRITERION IN FLEPO =     2.400
           THERE HAVE BEEN 3 ATTEMPTS TO REDUCE THE GRADIENT.
           DURING THESE ATTEMPTS THE ENERGY DROPPED BY LESS THAN 0.3 KCAL/MOLE
           FURTHER CALCULATION IS NOT JUSTIFIED AT THIS TIME.
           TO CONTINUE, START AGAIN WITH THE WORD "PRECISE"


          FOR POINT   19 SECOND STRUCTURE
 DISTANCE A - B      4.947951
 HEAT               27.854007
 GRADIENT NORM       6.248364
 DIRECTION COSINE    0.633430
 html
 Ring-opening of Cyclobutene, transition state calculated using keyword "SADDLE"

  C(HETATM    1  C1  HET A   1)   0.00000000 +1    0.0000000 +1    0.0000000 +1
  C(HETATM    2  C2  HET A   1)   3.04118721 +1    0.0000000 +1    0.0000000 +1     1     0     0
  C(HETATM    3  C3  HET A   1)   1.33621019 +1   51.8743504 +1    0.0000000 +1     1     2     0
  C(HETATM    4  C4  HET A   1)   1.33328400 +1   51.7957325 +1   24.9595521 +1     2     1     3
  H(HETATM    5  H1  HET A   1)   1.09047427 +1  122.4154061 +1  159.2385606 +1     3     1     2
  H(HETATM    6 1H2  HET A   1)   1.07709865 +1  161.4937224 +1   82.3652462 +1     1     2     3
  H(HETATM    7 2H2  HET A   1)   1.07990800 +1   74.3209224 +1 -160.6650231 +1     1     2     3
  H(HETATM    8  H3  HET A   1)   1.09217305 +1  122.1337200 +1  159.5423645 +1     4     2     1
  H(HETATM    9 1H4  HET A   1)   1.07713773 +1  161.5294398 +1  107.1294018 +1     2     1     3
  H(HETATM   10 2H4  HET A   1)   1.08159490 +1   74.6630589 +1 -135.4789772 +1     2     1     3
 
 *+*+*+*+*+*+*+*+*+*+*+*+*+*+*+*+*+*+*+*+*+*+*+*+*+*+*+*+*+*+*+*+*+*+*+*+*+*+*+*+
            BAR SHORTENED BY       1.000 PERCENT
 GRADIENT CRITERION IN FLEPO =     3.248
           THERE HAVE BEEN 3 ATTEMPTS TO REDUCE THE GRADIENT.
           DURING THESE ATTEMPTS THE ENERGY DROPPED BY LESS THAN 0.3 KCAL/MOLE
           FURTHER CALCULATION IS NOT JUSTIFIED AT THIS TIME.
           TO CONTINUE, START AGAIN WITH THE WORD "PRECISE"


          FOR POINT   20 SECOND STRUCTURE
 DISTANCE A - B      4.898472
 HEAT               27.868720
 GRADIENT NORM       6.414460
 DIRECTION COSINE   -0.367095
 html
 Ring-opening of Cyclobutene, transition state calculated using keyword "SADDLE"

  C(HETATM    1  C1  HET A   1)   0.00000000 +1    0.0000000 +1    0.0000000 +1
  C(HETATM    2  C2  HET A   1)   3.03271494 +1    0.0000000 +1    0.0000000 +1     1     0     0
  C(HETATM    3  C3  HET A   1)   1.33448380 +1   52.0562642 +1    0.0000000 +1     1     2     0
  C(HETATM    4  C4  HET A   1)   1.33622582 +1   52.0123802 +1   24.6511790 +1     2     1     3
  H(HETATM    5  H1  HET A   1)   1.09099776 +1  122.7123287 +1  159.5954411 +1     3     1     2
  H(HETATM    6 1H2  HET A   1)   1.07754249 +1  161.5055017 +1   83.4916688 +1     1     2     3
  H(HETATM    7 2H2  HET A   1)   1.07991634 +1   73.5682220 +1 -161.4224158 +1     1     2     3
  H(HETATM    8  H3  HET A   1)   1.09148564 +1  121.9202862 +1  159.7233413 +1     4     2     1
  H(HETATM    9 1H4  HET A   1)   1.07849906 +1  161.8044735 +1  106.6524336 +1     2     1     3
  H(HETATM   10 2H4  HET A   1)   1.07924074 +1   74.5048655 +1 -136.2988147 +1     2     1     3
 
 TIME=     0.05
  REACTANTS AND PRODUCTS SWAPPED AROUND
 *+*+*+*+*+*+*+*+*+*+*+*+*+*+*+*+*+*+*+*+*+*+*+*+*+*+*+*+*+*+*+*+*+*+*+*+*+*+*+*+
            BAR SHORTENED BY       0.000 PERCENT
 GRADIENT CRITERION IN FLEPO =     3.414


          FOR POINT   21 FIRST  STRUCTURE
 DISTANCE A - B      4.898472
 HEAT               37.235217
 GRADIENT NORM       3.456349
 DIRECTION COSINE    0.393949
 html
 Ring-opening of Cyclobutene, transition state calculated using keyword "SADDLE"

  C(HETATM    1  C1  HET A   1)   0.00000000 +1    0.0000000 +1    0.0000000 +1
  C(HETATM    2  C2  HET A   1)   1.58065642 +1    0.0000000 +1    0.0000000 +1     1     0     0
  C(HETATM    3  C3  HET A   1)   1.52552812 +1   85.5200181 +1    0.0000000 +1     1     2     0
  C(HETATM    4  C4  HET A   1)   1.34617992 +1   94.4624252 +1   -0.8543194 +1     3     1     2
  H(HETATM    5  H1  HET A   1)   1.05596855 +1  128.6762488 +1  178.6650122 +1     3     1     2
  H(HETATM    6 1H2  HET A   1)   1.08966687 +1  115.6265615 +1  116.1064081 +1     1     2     3
  H(HETATM    7 2H2  HET A   1)   1.09123785 +1  114.7540983 +1 -116.2914291 +1     1     2     3
  H(HETATM    8  H3  HET A   1)   1.05673512 +1  136.5868309 +1 -178.2957873 +1     4     3     1
  H(HETATM    9 1H4  HET A   1)   1.09084065 +1  115.5299381 +1  116.9577111 +1     2     1     3
  H(HETATM   10 2H4  HET A   1)   1.09176860 +1  114.7894608 +1 -115.1882227 +1     2     1     3
 
 TIME=     0.00
  REACTANTS AND PRODUCTS SWAPPED AROUND
 *+*+*+*+*+*+*+*+*+*+*+*+*+*+*+*+*+*+*+*+*+*+*+*+*+*+*+*+*+*+*+*+*+*+*+*+*+*+*+*+
            BAR SHORTENED BY       1.000 PERCENT
 GRADIENT CRITERION IN FLEPO =     3.414
           THERE HAVE BEEN 3 ATTEMPTS TO REDUCE THE GRADIENT.
           DURING THESE ATTEMPTS THE ENERGY DROPPED BY LESS THAN 0.3 KCAL/MOLE
           FURTHER CALCULATION IS NOT JUSTIFIED AT THIS TIME.
           TO CONTINUE, START AGAIN WITH THE WORD "PRECISE"


          FOR POINT   22 SECOND STRUCTURE
 DISTANCE A - B      4.849487
 HEAT               27.907801
 GRADIENT NORM       7.661381
 DIRECTION COSINE    0.069028
 html
 Ring-opening of Cyclobutene, transition state calculated using keyword "SADDLE"

  C(HETATM    1  C1  HET A   1)   0.00000000 +1    0.0000000 +1    0.0000000 +1
  C(HETATM    2  C2  HET A   1)   3.03505706 +1    0.0000000 +1    0.0000000 +1     1     0     0
  C(HETATM    3  C3  HET A   1)   1.33433089 +1   52.3924535 +1    0.0000000 +1     1     2     0
  C(HETATM    4  C4  HET A   1)   1.33503364 +1   51.9778545 +1   24.0957917 +1     2     1     3
  H(HETATM    5  H1  HET A   1)   1.08849801 +1  122.7485055 +1  159.6195548 +1     3     1     2
  H(HETATM    6 1H2  HET A   1)   1.07823999 +1  162.4046577 +1   83.9654411 +1     1     2     3
  H(HETATM    7 2H2  HET A   1)   1.07928679 +1   73.9083404 +1 -160.8561735 +1     1     2     3
  H(HETATM    8  H3  HET A   1)   1.09410385 +1  122.0949762 +1  159.6001224 +1     4     2     1
  H(HETATM    9 1H4  HET A   1)   1.07517869 +1  162.0609057 +1  107.3396780 +1     2     1     3
  H(HETATM   10 2H4  HET A   1)   1.08124827 +1   73.9610713 +1 -136.4951905 +1     2     1     3
 
 *+*+*+*+*+*+*+*+*+*+*+*+*+*+*+*+*+*+*+*+*+*+*+*+*+*+*+*+*+*+*+*+*+*+*+*+*+*+*+*+
            BAR SHORTENED BY       1.000 PERCENT
 GRADIENT CRITERION IN FLEPO =     4.661


          FOR POINT   23 SECOND STRUCTURE
 DISTANCE A - B      4.800992
 HEAT               27.918576
 GRADIENT NORM       5.337831
 DIRECTION COSINE    0.149815
 html
 Ring-opening of Cyclobutene, transition state calculated using keyword "SADDLE"

  C(HETATM    1  C1  HET A   1)   0.00000000 +1    0.0000000 +1    0.0000000 +1
  C(HETATM    2  C2  HET A   1)   3.02215211 +1    0.0000000 +1    0.0000000 +1     1     0     0
  C(HETATM    3  C3  HET A   1)   1.33415951 +1   52.4359540 +1    0.0000000 +1     1     2     0
  C(HETATM    4  C4  HET A   1)   1.33529579 +1   52.3631889 +1   24.0293421 +1     2     1     3
  H(HETATM    5  H1  HET A   1)   1.09076372 +1  122.4493492 +1  159.9789867 +1     3     1     2
  H(HETATM    6 1H2  HET A   1)   1.07383578 +1  161.6898401 +1   84.7417206 +1     1     2     3
  H(HETATM    7 2H2  HET A   1)   1.07929320 +1   74.0161786 +1 -160.7661841 +1     1     2     3
  H(HETATM    8  H3  HET A   1)   1.09242955 +1  122.0673788 +1  159.8208189 +1     4     2     1
  H(HETATM    9 1H4  HET A   1)   1.07661824 +1  161.4597041 +1  107.6396956 +1     2     1     3
  H(HETATM   10 2H4  HET A   1)   1.07891642 +1   74.6221897 +1 -136.3591463 +1     2     1     3
 
 *+*+*+*+*+*+*+*+*+*+*+*+*+*+*+*+*+*+*+*+*+*+*+*+*+*+*+*+*+*+*+*+*+*+*+*+*+*+*+*+
            BAR SHORTENED BY       1.000 PERCENT
 GRADIENT CRITERION IN FLEPO =     2.338
           THERE HAVE BEEN 3 ATTEMPTS TO REDUCE THE GRADIENT.
           DURING THESE ATTEMPTS THE ENERGY DROPPED BY LESS THAN 0.3 KCAL/MOLE
           FURTHER CALCULATION IS NOT JUSTIFIED AT THIS TIME.
           TO CONTINUE, START AGAIN WITH THE WORD "PRECISE"


          FOR POINT   24 SECOND STRUCTURE
 DISTANCE A - B      4.752982
 HEAT               27.931546
 GRADIENT NORM       9.861804
 DIRECTION COSINE   -0.188251
 html
 Ring-opening of Cyclobutene, transition state calculated using keyword "SADDLE"

  C(HETATM    1  C1  HET A   1)   0.00000000 +1    0.0000000 +1    0.0000000 +1
  C(HETATM    2  C2  HET A   1)   3.03257468 +1    0.0000000 +1    0.0000000 +1     1     0     0
  C(HETATM    3  C3  HET A   1)   1.33658969 +1   52.3504766 +1    0.0000000 +1     1     2     0
  C(HETATM    4  C4  HET A   1)   1.33365059 +1   52.3115174 +1   23.8753345 +1     2     1     3
  H(HETATM    5  H1  HET A   1)   1.09589621 +1  122.0613238 +1  159.7923422 +1     3     1     2
  H(HETATM    6 1H2  HET A   1)   1.07824724 +1  161.5601612 +1   83.6805410 +1     1     2     3
  H(HETATM    7 2H2  HET A   1)   1.08365437 +1   73.3755590 +1 -160.6353028 +1     1     2     3
  H(HETATM    8  H3  HET A   1)   1.09523712 +1  122.1993856 +1  160.1937272 +1     4     2     1
  H(HETATM    9 1H4  HET A   1)   1.07725802 +1  161.8767379 +1  107.4845718 +1     2     1     3
  H(HETATM   10 2H4  HET A   1)   1.08269144 +1   73.3956241 +1 -136.7714204 +1     2     1     3
 
 TIME=     0.03
  REACTANTS AND PRODUCTS SWAPPED AROUND
 *+*+*+*+*+*+*+*+*+*+*+*+*+*+*+*+*+*+*+*+*+*+*+*+*+*+*+*+*+*+*+*+*+*+*+*+*+*+*+*+
            BAR SHORTENED BY       0.000 PERCENT
 GRADIENT CRITERION IN FLEPO =     6.862


          FOR POINT   25 FIRST  STRUCTURE
 DISTANCE A - B      4.752982
 HEAT               37.218306
 GRADIENT NORM       3.461878
 DIRECTION COSINE   -0.106141
 html
 Ring-opening of Cyclobutene, transition state calculated using keyword "SADDLE"

  C(HETATM    1  C1  HET A   1)   0.00000000 +1    0.0000000 +1    0.0000000 +1
  C(HETATM    2  C2  HET A   1)   1.58065642 +1    0.0000000 +1    0.0000000 +1     1     0     0
  C(HETATM    3  C3  HET A   1)   1.52552812 +1   85.5200181 +1    0.0000000 +1     1     2     0
  C(HETATM    4  C4  HET A   1)   1.34617992 +1   94.4624252 +1   -0.8543194 +1     3     1     2
  H(HETATM    5  H1  HET A   1)   1.05596855 +1  128.6762488 +1  178.6650122 +1     3     1     2
  H(HETATM    6 1H2  HET A   1)   1.08966687 +1  115.6265615 +1  116.1064081 +1     1     2     3
  H(HETATM    7 2H2  HET A   1)   1.09123785 +1  114.7540983 +1 -116.2914291 +1     1     2     3
  H(HETATM    8  H3  HET A   1)   1.05673512 +1  136.5868309 +1 -178.2957873 +1     4     3     1
  H(HETATM    9 1H4  HET A   1)   1.09084065 +1  115.5299381 +1  116.9577111 +1     2     1     3
  H(HETATM   10 2H4  HET A   1)   1.09176860 +1  114.7894608 +1 -115.1882227 +1     2     1     3
 
 TIME=     0.02
  REACTANTS AND PRODUCTS SWAPPED AROUND
 *+*+*+*+*+*+*+*+*+*+*+*+*+*+*+*+*+*+*+*+*+*+*+*+*+*+*+*+*+*+*+*+*+*+*+*+*+*+*+*+
            BAR SHORTENED BY       1.000 PERCENT
 GRADIENT CRITERION IN FLEPO =     6.862


          FOR POINT   26 SECOND STRUCTURE
 DISTANCE A - B      4.705452
 HEAT               27.926054
 GRADIENT NORM       8.853709
 DIRECTION COSINE    0.037386
 html
 Ring-opening of Cyclobutene, transition state calculated using keyword "SADDLE"

  C(HETATM    1  C1  HET A   1)   0.00000000 +1    0.0000000 +1    0.0000000 +1
  C(HETATM    2  C2  HET A   1)   3.01947065 +1    0.0000000 +1    0.0000000 +1     1     0     0
  C(HETATM    3  C3  HET A   1)   1.33431502 +1   52.6003754 +1    0.0000000 +1     1     2     0
  C(HETATM    4  C4  HET A   1)   1.33558602 +1   52.5285505 +1   23.6516406 +1     2     1     3
  H(HETATM    5  H1  HET A   1)   1.09183866 +1  122.1873472 +1  160.0535476 +1     3     1     2
  H(HETATM    6 1H2  HET A   1)   1.07483805 +1  161.6152539 +1   84.6850963 +1     1     2     3
  H(HETATM    7 2H2  HET A   1)   1.07885336 +1   73.6161800 +1 -160.6919233 +1     1     2     3
  H(HETATM    8  H3  HET A   1)   1.09238574 +1  121.9335469 +1  160.2962807 +1     4     2     1
  H(HETATM    9 1H4  HET A   1)   1.08177945 +1  161.9125673 +1  108.0938353 +1     2     1     3
  H(HETATM   10 2H4  HET A   1)   1.07259545 +1   73.9784673 +1 -137.4787871 +1     2     1     3
 
 *+*+*+*+*+*+*+*+*+*+*+*+*+*+*+*+*+*+*+*+*+*+*+*+*+*+*+*+*+*+*+*+*+*+*+*+*+*+*+*+
            BAR SHORTENED BY       1.000 PERCENT
 GRADIENT CRITERION IN FLEPO =     5.854


          FOR POINT   27 SECOND STRUCTURE
 DISTANCE A - B      4.658398
 HEAT               27.973047
 GRADIENT NORM       8.335219
 DIRECTION COSINE    0.218329
 html
 Ring-opening of Cyclobutene, transition state calculated using keyword "SADDLE"

  C(HETATM    1  C1  HET A   1)   0.00000000 +1    0.0000000 +1    0.0000000 +1
  C(HETATM    2  C2  HET A   1)   3.01175550 +1    0.0000000 +1    0.0000000 +1     1     0     0
  C(HETATM    3  C3  HET A   1)   1.33774789 +1   52.8090308 +1    0.0000000 +1     1     2     0
  C(HETATM    4  C4  HET A   1)   1.33520065 +1   52.8266391 +1   23.3407322 +1     2     1     3
  H(HETATM    5  H1  HET A   1)   1.09004120 +1  122.1174110 +1  160.1304042 +1     3     1     2
  H(HETATM    6 1H2  HET A   1)   1.07475598 +1  161.2739960 +1   85.0493640 +1     1     2     3
  H(HETATM    7 2H2  HET A   1)   1.07964072 +1   73.7744948 +1 -160.3074011 +1     1     2     3
  H(HETATM    8  H3  HET A   1)   1.09455470 +1  122.0403668 +1  160.3137811 +1     4     2     1
  H(HETATM    9 1H4  HET A   1)   1.07702936 +1  161.7342495 +1  107.9137596 +1     2     1     3
  H(HETATM   10 2H4  HET A   1)   1.07946880 +1   73.8888862 +1 -137.3792777 +1     2     1     3
 
 *+*+*+*+*+*+*+*+*+*+*+*+*+*+*+*+*+*+*+*+*+*+*+*+*+*+*+*+*+*+*+*+*+*+*+*+*+*+*+*+
            BAR SHORTENED BY       1.000 PERCENT
 GRADIENT CRITERION IN FLEPO =     5.335
           THERE HAVE BEEN 3 ATTEMPTS TO REDUCE THE GRADIENT.
           DURING THESE ATTEMPTS THE ENERGY DROPPED BY LESS THAN 0.3 KCAL/MOLE
           FURTHER CALCULATION IS NOT JUSTIFIED AT THIS TIME.
           TO CONTINUE, START AGAIN WITH THE WORD "PRECISE"


          FOR POINT   28 SECOND STRUCTURE
 DISTANCE A - B      4.611814
 HEAT               27.996849
 GRADIENT NORM      16.690747
 DIRECTION COSINE    0.644951
 html
 Ring-opening of Cyclobutene, transition state calculated using keyword "SADDLE"

  C(HETATM    1  C1  HET A   1)   0.00000000 +1    0.0000000 +1    0.0000000 +1
  C(HETATM    2  C2  HET A   1)   3.02263959 +1    0.0000000 +1    0.0000000 +1     1     0     0
  C(HETATM    3  C3  HET A   1)   1.34061550 +1   52.7741102 +1    0.0000000 +1     1     2     0
  C(HETATM    4  C4  HET A   1)   1.33721667 +1   52.8812006 +1   23.3265677 +1     2     1     3
  H(HETATM    5  H1  HET A   1)   1.08708111 +1  122.3746816 +1  160.2587410 +1     3     1     2
  H(HETATM    6 1H2  HET A   1)   1.07502607 +1  161.5837755 +1   83.0679737 +1     1     2     3
  H(HETATM    7 2H2  HET A   1)   1.08283559 +1   72.8998094 +1 -160.5955617 +1     1     2     3
  H(HETATM    8  H3  HET A   1)   1.09156921 +1  122.3951451 +1  160.7672500 +1     4     2     1
  H(HETATM    9 1H4  HET A   1)   1.08109557 +1  162.3559897 +1  108.1128341 +1     2     1     3
  H(HETATM   10 2H4  HET A   1)   1.07905589 +1   72.9170475 +1 -137.5043875 +1     2     1     3
 
 TIME=     0.05
  REACTANTS AND PRODUCTS SWAPPED AROUND
 *+*+*+*+*+*+*+*+*+*+*+*+*+*+*+*+*+*+*+*+*+*+*+*+*+*+*+*+*+*+*+*+*+*+*+*+*+*+*+*+
            BAR SHORTENED BY       0.000 PERCENT
 GRADIENT CRITERION IN FLEPO =    10.000


          FOR POINT   29 FIRST  STRUCTURE
 DISTANCE A - B      4.611814
 HEAT               37.218306
 GRADIENT NORM       3.461878
 DIRECTION COSINE    0.118452
 html
 Ring-opening of Cyclobutene, transition state calculated using keyword "SADDLE"

  C(HETATM    1  C1  HET A   1)   0.00000000 +1    0.0000000 +1    0.0000000 +1
  C(HETATM    2  C2  HET A   1)   1.58065642 +1    0.0000000 +1    0.0000000 +1     1     0     0
  C(HETATM    3  C3  HET A   1)   1.52552812 +1   85.5200181 +1    0.0000000 +1     1     2     0
  C(HETATM    4  C4  HET A   1)   1.34617992 +1   94.4624252 +1   -0.8543194 +1     3     1     2
  H(HETATM    5  H1  HET A   1)   1.05596855 +1  128.6762488 +1  178.6650122 +1     3     1     2
  H(HETATM    6 1H2  HET A   1)   1.08966687 +1  115.6265615 +1  116.1064081 +1     1     2     3
  H(HETATM    7 2H2  HET A   1)   1.09123785 +1  114.7540983 +1 -116.2914291 +1     1     2     3
  H(HETATM    8  H3  HET A   1)   1.05673512 +1  136.5868309 +1 -178.2957873 +1     4     3     1
  H(HETATM    9 1H4  HET A   1)   1.09084065 +1  115.5299381 +1  116.9577111 +1     2     1     3
  H(HETATM   10 2H4  HET A   1)   1.09176860 +1  114.7894608 +1 -115.1882227 +1     2     1     3
 
 TIME=     0.00
  REACTANTS AND PRODUCTS SWAPPED AROUND
 *+*+*+*+*+*+*+*+*+*+*+*+*+*+*+*+*+*+*+*+*+*+*+*+*+*+*+*+*+*+*+*+*+*+*+*+*+*+*+*+
            BAR SHORTENED BY       1.000 PERCENT
 GRADIENT CRITERION IN FLEPO =    10.000


          FOR POINT   30 SECOND STRUCTURE
 DISTANCE A - B      4.565696
 HEAT               27.979839
 GRADIENT NORM       9.134299
 DIRECTION COSINE    0.220950
 html
 Ring-opening of Cyclobutene, transition state calculated using keyword "SADDLE"

  C(HETATM    1  C1  HET A   1)   0.00000000 +1    0.0000000 +1    0.0000000 +1
  C(HETATM    2  C2  HET A   1)   3.00899752 +1    0.0000000 +1    0.0000000 +1     1     0     0
  C(HETATM    3  C3  HET A   1)   1.33653352 +1   53.0051351 +1    0.0000000 +1     1     2     0
  C(HETATM    4  C4  HET A   1)   1.33551059 +1   52.9303650 +1   22.8990365 +1     2     1     3
  H(HETATM    5  H1  HET A   1)   1.08777223 +1  122.5476873 +1  160.4486256 +1     3     1     2
  H(HETATM    6 1H2  HET A   1)   1.07510122 +1  161.3908589 +1   84.5914104 +1     1     2     3
  H(HETATM    7 2H2  HET A   1)   1.07518910 +1   73.2260995 +1 -161.6077978 +1     1     2     3
  H(HETATM    8  H3  HET A   1)   1.09445429 +1  122.0529231 +1  160.7928442 +1     4     2     1
  H(HETATM    9 1H4  HET A   1)   1.07668933 +1  162.1798043 +1  108.7240636 +1     2     1     3
  H(HETATM   10 2H4  HET A   1)   1.08046145 +1   73.3615588 +1 -137.3986374 +1     2     1     3
 
 *+*+*+*+*+*+*+*+*+*+*+*+*+*+*+*+*+*+*+*+*+*+*+*+*+*+*+*+*+*+*+*+*+*+*+*+*+*+*+*+
            BAR SHORTENED BY       1.000 PERCENT
 GRADIENT CRITERION IN FLEPO =     6.134


          FOR POINT   31 SECOND STRUCTURE
 DISTANCE A - B      4.520039
 HEAT               28.039819
 GRADIENT NORM       9.347614
 DIRECTION COSINE    0.466562
 html
 Ring-opening of Cyclobutene, transition state calculated using keyword "SADDLE"

  C(HETATM    1  C1  HET A   1)   0.00000000 +1    0.0000000 +1    0.0000000 +1
  C(HETATM    2  C2  HET A   1)   2.99670553 +1    0.0000000 +1    0.0000000 +1     1     0     0
  C(HETATM    3  C3  HET A   1)   1.33670132 +1   53.0562323 +1    0.0000000 +1     1     2     0
  C(HETATM    4  C4  HET A   1)   1.33480400 +1   53.3288674 +1   22.4640254 +1     2     1     3
  H(HETATM    5  H1  HET A   1)   1.09057467 +1  122.1268400 +1  160.4420314 +1     3     1     2
  H(HETATM    6 1H2  HET A   1)   1.07410633 +1  161.6128051 +1   86.1252329 +1     1     2     3
  H(HETATM    7 2H2  HET A   1)   1.07746763 +1   73.5490904 +1 -160.6341654 +1     1     2     3
  H(HETATM    8  H3  HET A   1)   1.08999418 +1  122.0803417 +1  160.8771451 +1     4     2     1
  H(HETATM    9 1H4  HET A   1)   1.07807492 +1  161.9446912 +1  108.9104089 +1     2     1     3
  H(HETATM   10 2H4  HET A   1)   1.07903989 +1   73.4117109 +1 -137.8213620 +1     2     1     3
 
 *+*+*+*+*+*+*+*+*+*+*+*+*+*+*+*+*+*+*+*+*+*+*+*+*+*+*+*+*+*+*+*+*+*+*+*+*+*+*+*+
            BAR SHORTENED BY       1.000 PERCENT
 GRADIENT CRITERION IN FLEPO =     6.348


          FOR POINT   32 SECOND STRUCTURE
 DISTANCE A - B      4.474838
 HEAT               28.155632
 GRADIENT NORM       9.585102
 DIRECTION COSINE    0.091579
 html
 Ring-opening of Cyclobutene, transition state calculated using keyword "SADDLE"

  C(HETATM    1  C1  HET A   1)   0.00000000 +1    0.0000000 +1    0.0000000 +1
  C(HETATM    2  C2  HET A   1)   2.98681235 +1    0.0000000 +1    0.0000000 +1     1     0     0
  C(HETATM    3  C3  HET A   1)   1.33383767 +1   53.5144242 +1    0.0000000 +1     1     2     0
  C(HETATM    4  C4  HET A   1)   1.33554598 +1   53.5091545 +1   22.6973972 +1     2     1     3
  H(HETATM    5  H1  HET A   1)   1.08994346 +1  122.6645040 +1  160.8755018 +1     3     1     2
  H(HETATM    6 1H2  HET A   1)   1.07598312 +1  161.1215544 +1   86.7285923 +1     1     2     3
  H(HETATM    7 2H2  HET A   1)   1.07734602 +1   73.9006308 +1 -160.4469878 +1     1     2     3
  H(HETATM    8  H3  HET A   1)   1.08711090 +1  122.1639238 +1  161.6790846 +1     4     2     1
  H(HETATM    9 1H4  HET A   1)   1.07282518 +1  161.5179547 +1  109.4211338 +1     2     1     3
  H(HETATM   10 2H4  HET A   1)   1.08236893 +1   73.4520444 +1 -137.4901093 +1     2     1     3
 
 TIME=     0.03
  REACTANTS AND PRODUCTS SWAPPED AROUND
 *+*+*+*+*+*+*+*+*+*+*+*+*+*+*+*+*+*+*+*+*+*+*+*+*+*+*+*+*+*+*+*+*+*+*+*+*+*+*+*+
            BAR SHORTENED BY       0.000 PERCENT
 GRADIENT CRITERION IN FLEPO =     6.585


          FOR POINT   33 FIRST  STRUCTURE
 DISTANCE A - B      4.474838
 HEAT               37.218306
 GRADIENT NORM       3.461878
 DIRECTION COSINE    0.262625
 html
 Ring-opening of Cyclobutene, transition state calculated using keyword "SADDLE"

  C(HETATM    1  C1  HET A   1)   0.00000000 +1    0.0000000 +1    0.0000000 +1
  C(HETATM    2  C2  HET A   1)   1.58065642 +1    0.0000000 +1    0.0000000 +1     1     0     0
  C(HETATM    3  C3  HET A   1)   1.52552812 +1   85.5200181 +1    0.0000000 +1     1     2     0
  C(HETATM    4  C4  HET A   1)   1.34617992 +1   94.4624252 +1   -0.8543194 +1     3     1     2
  H(HETATM    5  H1  HET A   1)   1.05596855 +1  128.6762488 +1  178.6650122 +1     3     1     2
  H(HETATM    6 1H2  HET A   1)   1.08966687 +1  115.6265615 +1  116.1064081 +1     1     2     3
  H(HETATM    7 2H2  HET A   1)   1.09123785 +1  114.7540983 +1 -116.2914291 +1     1     2     3
  H(HETATM    8  H3  HET A   1)   1.05673512 +1  136.5868309 +1 -178.2957873 +1     4     3     1
  H(HETATM    9 1H4  HET A   1)   1.09084065 +1  115.5299381 +1  116.9577111 +1     2     1     3
  H(HETATM   10 2H4  HET A   1)   1.09176860 +1  114.7894608 +1 -115.1882227 +1     2     1     3
 
 TIME=     0.02
  REACTANTS AND PRODUCTS SWAPPED AROUND
 *+*+*+*+*+*+*+*+*+*+*+*+*+*+*+*+*+*+*+*+*+*+*+*+*+*+*+*+*+*+*+*+*+*+*+*+*+*+*+*+
            BAR SHORTENED BY       1.000 PERCENT
 GRADIENT CRITERION IN FLEPO =     6.585


          FOR POINT   34 SECOND STRUCTURE
 DISTANCE A - B      4.430090
 HEAT               28.250696
 GRADIENT NORM      13.277439
 DIRECTION COSINE    0.493258
 html
 Ring-opening of Cyclobutene, transition state calculated using keyword "SADDLE"

  C(HETATM    1  C1  HET A   1)   0.00000000 +1    0.0000000 +1    0.0000000 +1
  C(HETATM    2  C2  HET A   1)   2.98294227 +1    0.0000000 +1    0.0000000 +1     1     0     0
  C(HETATM    3  C3  HET A   1)   1.33293789 +1   53.7049409 +1    0.0000000 +1     1     2     0
  C(HETATM    4  C4  HET A   1)   1.33764783 +1   53.4966111 +1   22.3076581 +1     2     1     3
  H(HETATM    5  H1  HET A   1)   1.09239184 +1  122.5549492 +1  160.5350958 +1     3     1     2
  H(HETATM    6 1H2  HET A   1)   1.07628643 +1  160.7810382 +1   89.0233761 +1     1     2     3
  H(HETATM    7 2H2  HET A   1)   1.08173089 +1   73.9009757 +1 -159.9062915 +1     1     2     3
  H(HETATM    8  H3  HET A   1)   1.09022555 +1  122.0044186 +1  161.8792905 +1     4     2     1
  H(HETATM    9 1H4  HET A   1)   1.07102187 +1  160.8006394 +1  109.4596919 +1     2     1     3
  H(HETATM   10 2H4  HET A   1)   1.07519076 +1   73.2618768 +1 -138.2435411 +1     2     1     3
 
 *+*+*+*+*+*+*+*+*+*+*+*+*+*+*+*+*+*+*+*+*+*+*+*+*+*+*+*+*+*+*+*+*+*+*+*+*+*+*+*+
            BAR SHORTENED BY       1.000 PERCENT
 GRADIENT CRITERION IN FLEPO =    10.000


          FOR POINT   35 SECOND STRUCTURE
 DISTANCE A - B      4.385789
 HEAT               28.365903
 GRADIENT NORM      13.214287
 DIRECTION COSINE   -0.029458
 html
 Ring-opening of Cyclobutene, transition state calculated using keyword "SADDLE"

  C(HETATM    1  C1  HET A   1)   0.00000000 +1    0.0000000 +1    0.0000000 +1
  C(HETATM    2  C2  HET A   1)   2.97114080 +1    0.0000000 +1    0.0000000 +1     1     0     0
  C(HETATM    3  C3  HET A   1)   1.33713796 +1   53.8851797 +1    0.0000000 +1     1     2     0
  C(HETATM    4  C4  HET A   1)   1.33150811 +1   53.8899876 +1   22.1480955 +1     2     1     3
  H(HETATM    5  H1  HET A   1)   1.09071234 +1  123.2225624 +1  161.0055405 +1     3     1     2
  H(HETATM    6 1H2  HET A   1)   1.07635337 +1  160.5104796 +1   87.4293038 +1     1     2     3
  H(HETATM    7 2H2  HET A   1)   1.08333851 +1   72.7316028 +1 -159.7011766 +1     1     2     3
  H(HETATM    8  H3  HET A   1)   1.09284701 +1  122.0987885 +1  161.8179066 +1     4     2     1
  H(HETATM    9 1H4  HET A   1)   1.07305629 +1  160.5999228 +1  110.0857532 +1     2     1     3
  H(HETATM   10 2H4  HET A   1)   1.07748813 +1   73.5237960 +1 -137.9484108 +1     2     1     3
 
 TIME=     0.03
  REACTANTS AND PRODUCTS SWAPPED AROUND
 *+*+*+*+*+*+*+*+*+*+*+*+*+*+*+*+*+*+*+*+*+*+*+*+*+*+*+*+*+*+*+*+*+*+*+*+*+*+*+*+
            BAR SHORTENED BY       1.000 PERCENT
 GRADIENT CRITERION IN FLEPO =    10.000


          FOR POINT   36 FIRST  STRUCTURE
 DISTANCE A - B      4.341931
 HEAT               37.343154
 GRADIENT NORM      10.661304
 DIRECTION COSINE    0.396773
 html
 Ring-opening of Cyclobutene, transition state calculated using keyword "SADDLE"

  C(HETATM    1  C1  HET A   1)   0.00000000 +1    0.0000000 +1    0.0000000 +1
  C(HETATM    2  C2  HET A   1)   1.59455449 +1    0.0000000 +1    0.0000000 +1     1     0     0
  C(HETATM    3  C3  HET A   1)   1.52161164 +1   85.2473784 +1    0.0000000 +1     1     2     0
  C(HETATM    4  C4  HET A   1)   1.34669329 +1   94.7213378 +1   -1.0135321 +1     3     1     2
  H(HETATM    5  H1  HET A   1)   1.05437516 +1  128.6516159 +1  178.4301205 +1     3     1     2
  H(HETATM    6 1H2  HET A   1)   1.08640367 +1  116.0462891 +1  115.9745820 +1     1     2     3
  H(HETATM    7 2H2  HET A   1)   1.08682326 +1  114.3972533 +1 -116.6773218 +1     1     2     3
  H(HETATM    8  H3  HET A   1)   1.05507343 +1  136.3629493 +1 -178.0283556 +1     4     3     1
  H(HETATM    9 1H4  HET A   1)   1.08749078 +1  115.9402967 +1  116.9602417 +1     2     1     3
  H(HETATM   10 2H4  HET A   1)   1.08769496 +1  114.4347197 +1 -115.4446774 +1     2     1     3
 
 TIME=     0.00
  REACTANTS AND PRODUCTS SWAPPED AROUND
 *+*+*+*+*+*+*+*+*+*+*+*+*+*+*+*+*+*+*+*+*+*+*+*+*+*+*+*+*+*+*+*+*+*+*+*+*+*+*+*+
            BAR SHORTENED BY       1.000 PERCENT
 GRADIENT CRITERION IN FLEPO =     7.661
           THERE HAVE BEEN 3 ATTEMPTS TO REDUCE THE GRADIENT.
           DURING THESE ATTEMPTS THE ENERGY DROPPED BY LESS THAN 0.3 KCAL/MOLE
           FURTHER CALCULATION IS NOT JUSTIFIED AT THIS TIME.
           TO CONTINUE, START AGAIN WITH THE WORD "PRECISE"


          FOR POINT   37 SECOND STRUCTURE
 DISTANCE A - B      4.298512
 HEAT               28.149835
 GRADIENT NORM      19.692287
 DIRECTION COSINE   -0.179836
 html
 Ring-opening of Cyclobutene, transition state calculated using keyword "SADDLE"

  C(HETATM    1  C1  HET A   1)   0.00000000 +1    0.0000000 +1    0.0000000 +1
  C(HETATM    2  C2  HET A   1)   2.99337543 +1    0.0000000 +1    0.0000000 +1     1     0     0
  C(HETATM    3  C3  HET A   1)   1.34202660 +1   53.2251275 +1    0.0000000 +1     1     2     0
  C(HETATM    4  C4  HET A   1)   1.33278157 +1   54.0307639 +1   21.8498820 +1     2     1     3
  H(HETATM    5  H1  HET A   1)   1.09213587 +1  121.3201794 +1  160.7154916 +1     3     1     2
  H(HETATM    6 1H2  HET A   1)   1.07595554 +1  163.6314248 +1   91.4109332 +1     1     2     3
  H(HETATM    7 2H2  HET A   1)   1.08305759 +1   70.8578259 +1 -163.1983799 +1     1     2     3
  H(HETATM    8  H3  HET A   1)   1.08931435 +1  122.9909454 +1  160.7553420 +1     4     2     1
  H(HETATM    9 1H4  HET A   1)   1.07490484 +1  164.4012692 +1  113.4920937 +1     2     1     3
  H(HETATM   10 2H4  HET A   1)   1.08613233 +1   71.4808095 +1 -139.1761299 +1     2     1     3
 
 TIME=     0.06
  REACTANTS AND PRODUCTS SWAPPED AROUND
 *+*+*+*+*+*+*+*+*+*+*+*+*+*+*+*+*+*+*+*+*+*+*+*+*+*+*+*+*+*+*+*+*+*+*+*+*+*+*+*+
            BAR SHORTENED BY       1.000 PERCENT
 GRADIENT CRITERION IN FLEPO =    10.000


          FOR POINT   38 FIRST  STRUCTURE
 DISTANCE A - B      4.255527
 HEAT               37.430976
 GRADIENT NORM      14.177434
 DIRECTION COSINE   -0.211887
 html
 Ring-opening of Cyclobutene, transition state calculated using keyword "SADDLE"

  C(HETATM    1  C1  HET A   1)   0.00000000 +1    0.0000000 +1    0.0000000 +1
  C(HETATM    2  C2  HET A   1)   1.59179654 +1    0.0000000 +1    0.0000000 +1     1     0     0
  C(HETATM    3  C3  HET A   1)   1.51838780 +1   85.1173176 +1    0.0000000 +1     1     2     0
  C(HETATM    4  C4  HET A   1)   1.34374211 +1   94.9434340 +1   -1.1409747 +1     3     1     2
  H(HETATM    5  H1  HET A   1)   1.05731159 +1  128.3870564 +1  178.1818543 +1     3     1     2
  H(HETATM    6 1H2  HET A   1)   1.08902280 +1  116.5754477 +1  116.0914672 +1     1     2     3
  H(HETATM    7 2H2  HET A   1)   1.08680611 +1  114.1391829 +1 -117.2679631 +1     1     2     3
  H(HETATM    8  H3  HET A   1)   1.05399913 +1  136.0675529 +1 -177.6858814 +1     4     3     1
  H(HETATM    9 1H4  HET A   1)   1.09746347 +1  115.6043932 +1  116.3241634 +1     2     1     3
  H(HETATM   10 2H4  HET A   1)   1.09130882 +1  114.5136640 +1 -115.6453572 +1     2     1     3
 
 TIME=     0.02
  REACTANTS AND PRODUCTS SWAPPED AROUND
 *+*+*+*+*+*+*+*+*+*+*+*+*+*+*+*+*+*+*+*+*+*+*+*+*+*+*+*+*+*+*+*+*+*+*+*+*+*+*+*+
            BAR SHORTENED BY       1.000 PERCENT
 GRADIENT CRITERION IN FLEPO =    10.000


          FOR POINT   39 SECOND STRUCTURE
 DISTANCE A - B      4.212971
 HEAT               28.055396
 GRADIENT NORM       7.340686
 DIRECTION COSINE    0.048132
 html
 Ring-opening of Cyclobutene, transition state calculated using keyword "SADDLE"

  C(HETATM    1  C1  HET A   1)   0.00000000 +1    0.0000000 +1    0.0000000 +1
  C(HETATM    2  C2  HET A   1)   2.98018635 +1    0.0000000 +1    0.0000000 +1     1     0     0
  C(HETATM    3  C3  HET A   1)   1.33598839 +1   53.6909579 +1    0.0000000 +1     1     2     0
  C(HETATM    4  C4  HET A   1)   1.33397222 +1   54.1140290 +1   21.6836961 +1     2     1     3
  H(HETATM    5  H1  HET A   1)   1.08827248 +1  122.1594196 +1  160.9567956 +1     3     1     2
  H(HETATM    6 1H2  HET A   1)   1.07594304 +1  163.2970650 +1   88.7581287 +1     1     2     3
  H(HETATM    7 2H2  HET A   1)   1.08139918 +1   71.7976920 +1 -162.3550851 +1     1     2     3
  H(HETATM    8  H3  HET A   1)   1.09182806 +1  122.6210824 +1  161.1422700 +1     4     2     1
  H(HETATM    9 1H4  HET A   1)   1.07945009 +1  163.2773146 +1  110.8300691 +1     2     1     3
  H(HETATM   10 2H4  HET A   1)   1.08167472 +1   71.9045323 +1 -139.7673001 +1     2     1     3
 
 *+*+*+*+*+*+*+*+*+*+*+*+*+*+*+*+*+*+*+*+*+*+*+*+*+*+*+*+*+*+*+*+*+*+*+*+*+*+*+*+
            BAR SHORTENED BY       1.000 PERCENT
 GRADIENT CRITERION IN FLEPO =     4.341


          FOR POINT   40 SECOND STRUCTURE
 DISTANCE A - B      4.170842
 HEAT               27.949083
 GRADIENT NORM       5.682372
 DIRECTION COSINE   -0.166012
 html
 Ring-opening of Cyclobutene, transition state calculated using keyword "SADDLE"

  C(HETATM    1  C1  HET A   1)   0.00000000 +1    0.0000000 +1    0.0000000 +1
  C(HETATM    2  C2  HET A   1)   2.99594190 +1    0.0000000 +1    0.0000000 +1     1     0     0
  C(HETATM    3  C3  HET A   1)   1.33608618 +1   53.6802930 +1    0.0000000 +1     1     2     0
  C(HETATM    4  C4  HET A   1)   1.33547546 +1   53.3682782 +1   21.4221957 +1     2     1     3
  H(HETATM    5  H1  HET A   1)   1.09366778 +1  122.8952349 +1  161.8542576 +1     3     1     2
  H(HETATM    6 1H2  HET A   1)   1.07776213 +1  163.6506048 +1   86.5154145 +1     1     2     3
  H(HETATM    7 2H2  HET A   1)   1.08061352 +1   71.6793489 +1 -162.4547160 +1     1     2     3
  H(HETATM    8  H3  HET A   1)   1.08907411 +1  122.0073703 +1  161.9935128 +1     4     2     1
  H(HETATM    9 1H4  HET A   1)   1.07740848 +1  163.9017453 +1  110.3791700 +1     2     1     3
  H(HETATM   10 2H4  HET A   1)   1.08122354 +1   71.3900642 +1 -140.9377549 +1     2     1     3
 
 TIME=     0.06
  REACTANTS AND PRODUCTS SWAPPED AROUND
 *+*+*+*+*+*+*+*+*+*+*+*+*+*+*+*+*+*+*+*+*+*+*+*+*+*+*+*+*+*+*+*+*+*+*+*+*+*+*+*+
            BAR SHORTENED BY       1.000 PERCENT
 GRADIENT CRITERION IN FLEPO =     2.682


          FOR POINT   41 FIRST  STRUCTURE
 DISTANCE A - B      4.129133
 HEAT               37.241212
 GRADIENT NORM       4.834791
 DIRECTION COSINE   -0.118459
 html
 Ring-opening of Cyclobutene, transition state calculated using keyword "SADDLE"

  C(HETATM    1  C1  HET A   1)   0.00000000 +1    0.0000000 +1    0.0000000 +1
  C(HETATM    2  C2  HET A   1)   1.58092582 +1    0.0000000 +1    0.0000000 +1     1     0     0
  C(HETATM    3  C3  HET A   1)   1.52827800 +1   85.5742121 +1    0.0000000 +1     1     2     0
  C(HETATM    4  C4  HET A   1)   1.34563426 +1   94.3001516 +1   -0.9022546 +1     3     1     2
  H(HETATM    5  H1  HET A   1)   1.05756674 +1  128.3221176 +1  178.7637306 +1     3     1     2
  H(HETATM    6 1H2  HET A   1)   1.08664545 +1  114.7244650 +1  116.4123633 +1     1     2     3
  H(HETATM    7 2H2  HET A   1)   1.08990212 +1  114.1649024 +1 -115.4995480 +1     1     2     3
  H(HETATM    8  H3  HET A   1)   1.05446311 +1  137.3658882 +1 -178.8053441 +1     4     3     1
  H(HETATM    9 1H4  HET A   1)   1.09038664 +1  114.5816977 +1  116.8228080 +1     2     1     3
  H(HETATM   10 2H4  HET A   1)   1.09125624 +1  114.9016649 +1 -115.1966067 +1     2     1     3
 
 TIME=     0.06
  REACTANTS AND PRODUCTS SWAPPED AROUND
 *+*+*+*+*+*+*+*+*+*+*+*+*+*+*+*+*+*+*+*+*+*+*+*+*+*+*+*+*+*+*+*+*+*+*+*+*+*+*+*+
            BAR SHORTENED BY       1.000 PERCENT
 GRADIENT CRITERION IN FLEPO =     1.835
           THERE HAVE BEEN 3 ATTEMPTS TO REDUCE THE GRADIENT.
           DURING THESE ATTEMPTS THE ENERGY DROPPED BY LESS THAN 0.3 KCAL/MOLE
           FURTHER CALCULATION IS NOT JUSTIFIED AT THIS TIME.
           TO CONTINUE, START AGAIN WITH THE WORD "PRECISE"


          FOR POINT   42 SECOND STRUCTURE
 DISTANCE A - B      4.087842
 HEAT               27.790173
 GRADIENT NORM       6.952519
 DIRECTION COSINE   -0.232726
 html
 Ring-opening of Cyclobutene, transition state calculated using keyword "SADDLE"

  C(HETATM    1  C1  HET A   1)   0.00000000 +1    0.0000000 +1    0.0000000 +1
  C(HETATM    2  C2  HET A   1)   3.04858306 +1    0.0000000 +1    0.0000000 +1     1     0     0
  C(HETATM    3  C3  HET A   1)   1.33565393 +1   52.2491585 +1    0.0000000 +1     1     2     0
  C(HETATM    4  C4  HET A   1)   1.33447749 +1   52.0886141 +1   20.7564421 +1     2     1     3
  H(HETATM    5  H1  HET A   1)   1.09497954 +1  121.4980487 +1  163.0823822 +1     3     1     2
  H(HETATM    6 1H2  HET A   1)   1.07524766 +1  166.2416522 +1   77.4494393 +1     1     2     3
  H(HETATM    7 2H2  HET A   1)   1.08135118 +1   72.5033961 +1 -165.1085055 +1     1     2     3
  H(HETATM    8  H3  HET A   1)   1.09522595 +1  121.4861244 +1  162.7165009 +1     4     2     1
  H(HETATM    9 1H4  HET A   1)   1.07660492 +1  165.9566295 +1   98.2507354 +1     2     1     3
  H(HETATM   10 2H4  HET A   1)   1.08387265 +1   72.9616329 +1 -144.8659796 +1     2     1     3
 
 TIME=     0.12
  REACTANTS AND PRODUCTS SWAPPED AROUND
 *+*+*+*+*+*+*+*+*+*+*+*+*+*+*+*+*+*+*+*+*+*+*+*+*+*+*+*+*+*+*+*+*+*+*+*+*+*+*+*+
            BAR SHORTENED BY       1.000 PERCENT
 GRADIENT CRITERION IN FLEPO =     3.953


          FOR POINT   43 FIRST  STRUCTURE
 DISTANCE A - B      4.046964
 HEAT               37.266274
 GRADIENT NORM       7.141175
 DIRECTION COSINE   -0.505214
 html
 Ring-opening of Cyclobutene, transition state calculated using keyword "SADDLE"

  C(HETATM    1  C1  HET A   1)   0.00000000 +1    0.0000000 +1    0.0000000 +1
  C(HETATM    2  C2  HET A   1)   1.58493851 +1    0.0000000 +1    0.0000000 +1     1     0     0
  C(HETATM    3  C3  HET A   1)   1.52392880 +1   85.4920586 +1    0.0000000 +1     1     2     0
  C(HETATM    4  C4  HET A   1)   1.34549350 +1   94.4962716 +1   -0.9263066 +1     3     1     2
  H(HETATM    5  H1  HET A   1)   1.05746692 +1  128.6147423 +1  178.6145883 +1     3     1     2
  H(HETATM    6 1H2  HET A   1)   1.09016468 +1  115.3832775 +1  116.4502358 +1     1     2     3
  H(HETATM    7 2H2  HET A   1)   1.09141335 +1  114.2014630 +1 -116.0800381 +1     1     2     3
  H(HETATM    8  H3  HET A   1)   1.06269255 +1  136.6672396 +1 -176.2319680 +1     4     3     1
  H(HETATM    9 1H4  HET A   1)   1.09033841 +1  115.3299597 +1  116.8880493 +1     2     1     3
  H(HETATM   10 2H4  HET A   1)   1.09103198 +1  114.5424168 +1 -115.5207507 +1     2     1     3
 
 TIME=     0.02
  REACTANTS AND PRODUCTS SWAPPED AROUND
 *+*+*+*+*+*+*+*+*+*+*+*+*+*+*+*+*+*+*+*+*+*+*+*+*+*+*+*+*+*+*+*+*+*+*+*+*+*+*+*+
            BAR SHORTENED BY       1.000 PERCENT
 GRADIENT CRITERION IN FLEPO =     4.141


          FOR POINT   44 SECOND STRUCTURE
 DISTANCE A - B      4.006494
 HEAT               27.764229
 GRADIENT NORM       3.674495
 DIRECTION COSINE    0.517205
 html
 Ring-opening of Cyclobutene, transition state calculated using keyword "SADDLE"

  C(HETATM    1  C1  HET A   1)   0.00000000 +1    0.0000000 +1    0.0000000 +1
  C(HETATM    2  C2  HET A   1)   3.03511170 +1    0.0000000 +1    0.0000000 +1     1     0     0
  C(HETATM    3  C3  HET A   1)   1.33473464 +1   52.6471918 +1    0.0000000 +1     1     2     0
  C(HETATM    4  C4  HET A   1)   1.33488406 +1   52.5434166 +1   20.5371720 +1     2     1     3
  H(HETATM    5  H1  HET A   1)   1.09274544 +1  121.6392482 +1  163.1051140 +1     3     1     2
  H(HETATM    6 1H2  HET A   1)   1.07693998 +1  165.7402738 +1   79.9656133 +1     1     2     3
  H(HETATM    7 2H2  HET A   1)   1.08038736 +1   72.8157154 +1 -164.7201365 +1     1     2     3
  H(HETATM    8  H3  HET A   1)   1.09113277 +1  121.9039595 +1  162.8827668 +1     4     2     1
  H(HETATM    9 1H4  HET A   1)   1.07671839 +1  165.3395002 +1   99.2761776 +1     2     1     3
  H(HETATM   10 2H4  HET A   1)   1.07958963 +1   73.0513750 +1 -144.5026916 +1     2     1     3
 
 *+*+*+*+*+*+*+*+*+*+*+*+*+*+*+*+*+*+*+*+*+*+*+*+*+*+*+*+*+*+*+*+*+*+*+*+*+*+*+*+
            BAR SHORTENED BY       1.000 PERCENT
 GRADIENT CRITERION IN FLEPO =     4.141


          FOR POINT   45 SECOND STRUCTURE
 DISTANCE A - B      3.966429
 HEAT               27.784891
 GRADIENT NORM       4.210705
 DIRECTION COSINE   -0.103750
 html
 Ring-opening of Cyclobutene, transition state calculated using keyword "SADDLE"

  C(HETATM    1  C1  HET A   1)   0.00000000 +1    0.0000000 +1    0.0000000 +1
  C(HETATM    2  C2  HET A   1)   3.02188488 +1    0.0000000 +1    0.0000000 +1     1     0     0
  C(HETATM    3  C3  HET A   1)   1.33489837 +1   52.9537864 +1    0.0000000 +1     1     2     0
  C(HETATM    4  C4  HET A   1)   1.33498388 +1   52.8226651 +1   20.2339231 +1     2     1     3
  H(HETATM    5  H1  HET A   1)   1.09244468 +1  121.7406530 +1  163.2373683 +1     3     1     2
  H(HETATM    6 1H2  HET A   1)   1.07675852 +1  165.2102231 +1   81.6205782 +1     1     2     3
  H(HETATM    7 2H2  HET A   1)   1.07906083 +1   72.9491621 +1 -164.3193717 +1     1     2     3
  H(HETATM    8  H3  HET A   1)   1.09220219 +1  121.7326100 +1  162.8360294 +1     4     2     1
  H(HETATM    9 1H4  HET A   1)   1.08029667 +1  164.7958574 +1  100.7888625 +1     2     1     3
  H(HETATM   10 2H4  HET A   1)   1.07860809 +1   73.2462022 +1 -144.2165876 +1     2     1     3
 
 TIME=     0.02
  REACTANTS AND PRODUCTS SWAPPED AROUND
 *+*+*+*+*+*+*+*+*+*+*+*+*+*+*+*+*+*+*+*+*+*+*+*+*+*+*+*+*+*+*+*+*+*+*+*+*+*+*+*+
            BAR SHORTENED BY       1.000 PERCENT
 GRADIENT CRITERION IN FLEPO =     1.211
           THERE HAVE BEEN 3 ATTEMPTS TO REDUCE THE GRADIENT.
           DURING THESE ATTEMPTS THE ENERGY DROPPED BY LESS THAN 0.3 KCAL/MOLE
           FURTHER CALCULATION IS NOT JUSTIFIED AT THIS TIME.
           TO CONTINUE, START AGAIN WITH THE WORD "PRECISE"


          FOR POINT   46 FIRST  STRUCTURE
 DISTANCE A - B      3.926765
 HEAT               37.219984
 GRADIENT NORM       4.078824
 DIRECTION COSINE   -0.136391
 html
 Ring-opening of Cyclobutene, transition state calculated using keyword "SADDLE"

  C(HETATM    1  C1  HET A   1)   0.00000000 +1    0.0000000 +1    0.0000000 +1
  C(HETATM    2  C2  HET A   1)   1.57898457 +1    0.0000000 +1    0.0000000 +1     1     0     0
  C(HETATM    3  C3  HET A   1)   1.52791871 +1   85.6060101 +1    0.0000000 +1     1     2     0
  C(HETATM    4  C4  HET A   1)   1.34573038 +1   94.3947558 +1   -0.8996969 +1     3     1     2
  H(HETATM    5  H1  HET A   1)   1.05681504 +1  128.6029769 +1  178.7163114 +1     3     1     2
  H(HETATM    6 1H2  HET A   1)   1.09027720 +1  115.1607873 +1  116.3003028 +1     1     2     3
  H(HETATM    7 2H2  HET A   1)   1.09290871 +1  114.9992230 +1 -115.7808462 +1     1     2     3
  H(HETATM    8  H3  HET A   1)   1.05738068 +1  136.9001472 +1 -179.0352210 +1     4     3     1
  H(HETATM    9 1H4  HET A   1)   1.08856851 +1  114.9087033 +1  116.9869783 +1     2     1     3
  H(HETATM   10 2H4  HET A   1)   1.08981685 +1  114.6347056 +1 -114.9176835 +1     2     1     3
 
 TIME=     0.11
  REACTANTS AND PRODUCTS SWAPPED AROUND
 *+*+*+*+*+*+*+*+*+*+*+*+*+*+*+*+*+*+*+*+*+*+*+*+*+*+*+*+*+*+*+*+*+*+*+*+*+*+*+*+
            BAR SHORTENED BY       1.000 PERCENT
 GRADIENT CRITERION IN FLEPO =     1.079
           THERE HAVE BEEN 3 ATTEMPTS TO REDUCE THE GRADIENT.
           DURING THESE ATTEMPTS THE ENERGY DROPPED BY LESS THAN 0.3 KCAL/MOLE
           FURTHER CALCULATION IS NOT JUSTIFIED AT THIS TIME.
           TO CONTINUE, START AGAIN WITH THE WORD "PRECISE"


          FOR POINT   47 SECOND STRUCTURE
 DISTANCE A - B      3.887497
 HEAT               27.772361
 GRADIENT NORM       3.411806
 DIRECTION COSINE    0.206693
 html
 Ring-opening of Cyclobutene, transition state calculated using keyword "SADDLE"

  C(HETATM    1  C1  HET A   1)   0.00000000 +1    0.0000000 +1    0.0000000 +1
  C(HETATM    2  C2  HET A   1)   3.02580226 +1    0.0000000 +1    0.0000000 +1     1     0     0
  C(HETATM    3  C3  HET A   1)   1.33472863 +1   52.7391218 +1    0.0000000 +1     1     2     0
  C(HETATM    4  C4  HET A   1)   1.33526205 +1   52.8517450 +1   20.4394125 +1     2     1     3
  H(HETATM    5  H1  HET A   1)   1.09380535 +1  121.8975581 +1  163.1864818 +1     3     1     2
  H(HETATM    6 1H2  HET A   1)   1.07753126 +1  165.2522682 +1   81.7240351 +1     1     2     3
  H(HETATM    7 2H2  HET A   1)   1.08086787 +1   72.5551656 +1 -164.7237729 +1     1     2     3
  H(HETATM    8  H3  HET A   1)   1.09204416 +1  121.8502492 +1  162.9908434 +1     4     2     1
  H(HETATM    9 1H4  HET A   1)   1.07755697 +1  165.3048219 +1  101.1974914 +1     2     1     3
  H(HETATM   10 2H4  HET A   1)   1.08011992 +1   72.8666654 +1 -143.9308208 +1     2     1     3
 
 *+*+*+*+*+*+*+*+*+*+*+*+*+*+*+*+*+*+*+*+*+*+*+*+*+*+*+*+*+*+*+*+*+*+*+*+*+*+*+*+
            BAR SHORTENED BY       1.000 PERCENT
 GRADIENT CRITERION IN FLEPO =     1.079
           THERE HAVE BEEN 3 ATTEMPTS TO REDUCE THE GRADIENT.
           DURING THESE ATTEMPTS THE ENERGY DROPPED BY LESS THAN 0.3 KCAL/MOLE
           FURTHER CALCULATION IS NOT JUSTIFIED AT THIS TIME.
           TO CONTINUE, START AGAIN WITH THE WORD "PRECISE"


          FOR POINT   48 SECOND STRUCTURE
 DISTANCE A - B      3.848622
 HEAT               27.795108
 GRADIENT NORM       3.620235
 DIRECTION COSINE    0.097458
 html
 Ring-opening of Cyclobutene, transition state calculated using keyword "SADDLE"

  C(HETATM    1  C1  HET A   1)   0.00000000 +1    0.0000000 +1    0.0000000 +1
  C(HETATM    2  C2  HET A   1)   3.01674358 +1    0.0000000 +1    0.0000000 +1     1     0     0
  C(HETATM    3  C3  HET A   1)   1.33549057 +1   53.1151927 +1    0.0000000 +1     1     2     0
  C(HETATM    4  C4  HET A   1)   1.33618438 +1   53.0453271 +1   20.1876120 +1     2     1     3
  H(HETATM    5  H1  HET A   1)   1.09109395 +1  121.8846479 +1  163.1309644 +1     3     1     2
  H(HETATM    6 1H2  HET A   1)   1.07698743 +1  164.8859053 +1   82.4448359 +1     1     2     3
  H(HETATM    7 2H2  HET A   1)   1.07936202 +1   72.7852129 +1 -163.9514012 +1     1     2     3
  H(HETATM    8  H3  HET A   1)   1.09264770 +1  121.7387218 +1  163.3478484 +1     4     2     1
[...]
 TRANSITION DIPOLE   0.3162         C  1 -- H  7         +17.5% ( 41.8%)      1.0%
 TRAVEL (Ang.)       0.4247         C  2 -- H  9         +12.1% ( 34.7%)      0.4%
 REDUCED MASS        0.2739         C  1 -- H  6         +12.1% ( 34.7%)      0.4%
 EFFECTIVE MASS      2.4502
 FORCE CONSTANT      0.3005

 VIBRATION         15    7B           ATOM PAIR      ENERGY CONTRIBUTION    RADIAL
 FREQUENCY          1378.95         C  1 -- H  7         +20.1% ( 42.6%)      0.1%
 TRANSITION DIPOLE   0.2161         C  2 -- H 10         +20.1% ( 42.6%)      0.1%
 TRAVEL (Ang.)       0.4576         C  2 -- H  9         +15.8% ( 37.8%)      0.6%
 REDUCED MASS        0.2335         C  1 -- H  6         +15.8% ( 37.8%)      0.6%
 EFFECTIVE MASS      1.7264
 FORCE CONSTANT      0.2616

 VIBRATION         16    9A           ATOM PAIR      ENERGY CONTRIBUTION    RADIAL
 FREQUENCY          1453.89         C  1 -- C  3         +14.9% ( 65.8%)     96.0%
 TRANSITION DIPOLE   0.3468         C  2 -- C  4         +14.9% ( 65.8%)     96.0%
 TRAVEL (Ang.)       0.1472         C  1 -- C  2         +11.4% ( 57.6%)     96.3%
 REDUCED MASS        2.1410         C  2 -- C  3          +9.4% ( 52.4%)     44.5%
 EFFECTIVE MASS     10.2426
 FORCE CONSTANT      2.6664

 VIBRATION         17    8B           ATOM PAIR      ENERGY CONTRIBUTION    RADIAL
 FREQUENCY          1501.78         C  1 -- C  3         +15.1% ( 65.8%)     99.4%
 TRANSITION DIPOLE   0.2643         C  2 -- C  4         +15.1% ( 65.8%)     99.4%
 TRAVEL (Ang.)       0.1350         C  3 -- C  4         +11.0% ( 56.2%)      0.0%
 REDUCED MASS        2.4640         C  2 -- C  3          +9.7% ( 52.9%)     45.0%
 EFFECTIVE MASS     11.0365
 FORCE CONSTANT      3.2741

 VIBRATION         18   10A           ATOM PAIR      ENERGY CONTRIBUTION    RADIAL
 FREQUENCY          1568.69         C  3 -- C  4         +32.9% ( 94.0%)     99.9%
 TRANSITION DIPOLE   0.5819         C  1 -- C  4         +11.4% ( 55.3%)     89.0%
 TRAVEL (Ang.)       0.0982         C  2 -- C  3         +11.4% ( 55.3%)     89.0%
 REDUCED MASS        4.4586         C  2 -- C  4         +11.0% ( 54.3%)      1.0%
 EFFECTIVE MASS     11.3124         C  1 -- C  3         +11.0% ( 54.3%)      1.0%
 FORCE CONSTANT      6.4643

 VIBRATION         19    9B           ATOM PAIR      ENERGY CONTRIBUTION    RADIAL
 FREQUENCY          2701.84         C  2 -- H 10         +28.9% ( 55.9%)     99.3%
 TRANSITION DIPOLE   0.7762         C  1 -- H  7         +28.9% ( 55.9%)     99.2%
 TRAVEL (Ang.)       0.3095         C  2 -- H  9         +19.4% ( 45.7%)     97.2%
 REDUCED MASS        0.2606         C  1 -- H  6         +19.4% ( 45.7%)     97.3%
 EFFECTIVE MASS      1.4915
 FORCE CONSTANT      1.1208

 VIBRATION         20   11A           ATOM PAIR      ENERGY CONTRIBUTION    RADIAL
 FREQUENCY          2702.91         C  1 -- H  7         +27.4% ( 54.4%)     98.9%
 TRANSITION DIPOLE   0.0665         C  2 -- H 10         +27.4% ( 54.4%)     99.0%
 TRAVEL (Ang.)       0.3125         C  1 -- H  6         +20.8% ( 47.3%)     97.9%
 REDUCED MASS        0.2555         C  2 -- H  9         +20.8% ( 47.3%)     97.9%
 EFFECTIVE MASS      1.4906
 FORCE CONSTANT      1.0996

 VIBRATION         21   10B           ATOM PAIR      ENERGY CONTRIBUTION    RADIAL
 FREQUENCY          2755.88         C  2 -- H  9         +29.6% ( 54.2%)     97.3%
 TRANSITION DIPOLE   1.0161         C  1 -- H  6         +29.6% ( 54.2%)     97.3%
 TRAVEL (Ang.)       0.3144         C  2 -- H 10         +18.6% ( 43.0%)     93.1%
 REDUCED MASS        0.2475         C  1 -- H  7         +18.6% ( 43.0%)     93.2%
 EFFECTIVE MASS      1.2668
 FORCE CONSTANT      1.1075

 VIBRATION         22   12A           ATOM PAIR      ENERGY CONTRIBUTION    RADIAL
 FREQUENCY          2767.89         C  1 -- H  6         +28.1% ( 52.6%)     96.9%
 TRANSITION DIPOLE   0.6971         C  2 -- H  9         +28.1% ( 52.6%)     97.0%
 TRAVEL (Ang.)       0.3146         C  2 -- H 10         +20.6% ( 45.0%)     94.3%
 REDUCED MASS        0.2461         C  1 -- H  7         +20.6% ( 45.0%)     94.4%
 EFFECTIVE MASS      1.2580
 FORCE CONSTANT      1.1107

 VIBRATION         23   11B           ATOM PAIR      ENERGY CONTRIBUTION    RADIAL
 FREQUENCY          2788.67         C  4 -- H  8         +47.5% ( 70.2%)    100.0%
 TRANSITION DIPOLE   0.6989         C  3 -- H  5         +47.4% ( 70.2%)    100.0%
 TRAVEL (Ang.)       0.2317         C  3 -- C  4          +0.9% (  9.8%)      0.0%
 REDUCED MASS        0.4503         C  1 -- H  7          +0.7% (  8.7%)     97.8%
 EFFECTIVE MASS      1.3930
 FORCE CONSTANT      2.0634

 VIBRATION         24   13A           ATOM PAIR      ENERGY CONTRIBUTION    RADIAL
 FREQUENCY          2796.57         C  3 -- H  5         +47.1% ( 70.2%)    100.0%
 TRANSITION DIPOLE   0.8336         C  4 -- H  8         +47.1% ( 70.2%)    100.0%
 TRAVEL (Ang.)       0.2299         C  3 -- C  4          +1.9% ( 14.1%)     90.7%
 REDUCED MASS        0.4562         C  1 -- C  4          +0.8% (  9.0%)     84.9%
 EFFECTIVE MASS      1.5134
 FORCE CONSTANT      2.1023

           FORCE CONSTANT IN CARTESIAN COORDINATES (Millidynes/A)

    ATOM   CHEMICAL       X               Y               Z
   NUMBER   SYMBOL  FORCE CONSTANT  FORCE CONSTANT  FORCE CONSTANT

      1       C        3.814757        8.796999        5.501605
      2       C        3.819496        8.362144        5.931721
      3       C       10.252134        9.907886        3.010826
      4       C       10.250948        9.064680        3.855218
      5       H        1.865555        2.940150        0.660101
      6       H        1.810003        1.262445        2.218789
      7       H        0.581417        1.935990        2.808435
      8       H        1.863609        2.428356        1.173841
      9       H        1.811480        1.734811        1.744947
     10       H        0.581557        1.177861        3.566424
 *******************************************************************************
 ** Site#: 37037        For non-commercial use only           Version 21.138W **
 *******************************************************************************
 ** Cite this program as: MOPAC2016, Version: 21.138W, James J. P. Stewart,   **
 ** Stewart Computational Chemistry, web: HTTP://OpenMOPAC.net. Days left: 356**
 *******************************************************************************
 **                                                                           **
 **                                MOPAC2016                                  **
 **                                                                           **
 *******************************************************************************

                              PM7 CALCULATION RESULTS

 *******************************************************************************
 *  CALCULATION DONE:                                Thu May 27 10:47:09 2021  *
 *  IRC=N      - INTRINSIC REACTION COORDINATE  1 DEFINED
 *  OLDGEO     - PREVIOUS GEOMETRY TO BE USED
 *  RESTART    - CALCULATION RESTARTED
 *  T=         - A TIME OF 172800.0 SECONDS REQUESTED
 *  DUMP=N     - RESTART FILE WRITTEN EVERY 7200.0 SECONDS REQUESTED
 *  CYCLES=    - DO A MAXIMUM OF 75 STEPS
 *  HTML       - WRITE HTML SCRIPT TO GENERATE ANIMATION USING JSMOL
 *             - TO DISPLAY IN PDB FORMAT, ADD "PDBOUT"
 *  X-PRIOR    - GEOMETRY CHANGES TAKE PRIORITY IN DRC
 *******************************************************************************
oldgeo IRC=1* restart x-priority=0.1 html cycles=75
 Ring-opening of Cyclobutene, transition state calculated using keyword "SADDLE"
 Intrinsic reaction coordinate, starting from true transition state
   ATOM                 CHEMICAL                   X               Y               Z
  NUMBER                 SYMBOL               (ANGSTROMS)     (ANGSTROMS)     (ANGSTROMS)
 
     1       C(HETATM    1  C1  HET A   1)    0.24013791  *  -0.18155701  *  -0.07960176  *
     2       C(HETATM    2  C2  HET A   1)    2.34729827  *  -0.16298814  *  -0.03177556  *
     3       C(HETATM    3  C3  HET A   1)    0.60458117  *   1.17901713  *   0.06301508  *
     4       C(HETATM    4  C4  HET A   1)    1.94604366  *   1.11770539  *   0.42005906  *
     5       H(HETATM    5  H1  HET A   1)    0.00055837  *   2.03126393  *  -0.16284480  *
     6       H(HETATM    6 1H2  HET A   1)   -0.40717740  *  -0.51025841  *  -0.87503994  *
     7       H(HETATM    7 2H2  HET A   1)    0.30941530  *  -0.89117043  *   0.73109360  *
     8       H(HETATM    8  H3  HET A   1)    2.52870191  *   1.80815155  *   0.99056637  *
     9       H(HETATM    9 1H4  HET A   1)    3.00694627  *  -0.78387554  *   0.54963691  *
    10       H(HETATM   10 2H4  HET A   1)    2.29216980  *  -0.45671397  *  -1.06879276  *
 

 General Reference for PM7:
 "Optimization of Parameters for Semiempirical Methods VI: More Modifications to the 
 NDDO Approximations and Re-optimization of Parameters", J. J. P. Stewart, J. Mol. Mod., 1:32, 19 (2013)
 https://link.springer.com/article/10.1007/s00894-012-1667-x

           Empirical Formula: C4 H6  =    10 atoms



      MOLECULAR POINT GROUP   :   C2  


      RHF CALCULATION, NO. OF DOUBLY OCCUPIED LEVELS = 11


          MOLECULAR WEIGHT =   54.09


          ESTIMATED TIME TO COMPLETE CALCULATION =        0.00 SECONDS

          TIME USED UP TO RESTART =                  0.06

    FOR POINT-GROUP C2   THERE ARE   2 UNIQUE SYMMETRY FUNCTIONS.

           INITIAL VELOCITY IN DRC (Angstroms/Femtosecond)
         0.07011        -0.03069        -0.00090
        -0.07008        -0.03002        -0.00660
         0.01398         0.02668         0.01654
        -0.01401         0.02990        -0.00955
        -0.03763         0.00553         0.07341
         0.14381        -0.04728        -0.05877
        -0.10940         0.05561         0.07543
         0.03760         0.02324        -0.06983
        -0.14375        -0.06022         0.04548
         0.10938         0.07239        -0.05966

 GEOMETRY PRIORITY, STEP = 0.1000 ANGSTROMS



     POINT   POTENTIAL  +  ENERGY LOST   =   TOTAL      ERROR    REF%   MOVEMENT
       1      70.76151      0.00000         70.76151   0.00000     1   %  0.0000
      31      70.66596      0.07120         70.73716  -0.00275     2   %  0.1000
      64      70.40505      0.32517         70.73022  -0.00969     3   %  0.1999
      97      69.98230      0.74118         70.72348  -0.01644     4   %  0.2998
     129      69.40461      1.31234         70.71695  -0.02296     5   %  0.3997
     160      68.68149      2.02919         70.71068  -0.02924     6   %  0.4995
     184      67.82485      2.88135         70.70620  -0.03371     7   %  0.5993
     199      66.84738      3.85578         70.70316  -0.03675     8   %  0.6991
     214      65.76191      4.93824         70.70015  -0.03976     9   %  0.7987
     229      64.58190      6.11534         70.69724  -0.04267    10   %  0.8983
     242      63.32037      7.37414         70.69450  -0.04541    11   %  0.9979
     255      61.99050      8.70149         70.69199  -0.04792    12   %  1.0973
     266      60.60384     10.08590         70.68974  -0.05017    13   %  1.1966
     276      59.17234     11.51546         70.68780  -0.05211    14   %  1.2957
     285      57.70776     12.97847         70.68623  -0.05368    15   %  1.3947
     291      56.21654     14.46862         70.68516  -0.05475    16   %  1.4937
     294      55.17846     15.50659         70.68506  -0.05486    17   %  1.5619
     298      53.28612     17.40044         70.68657  -0.05335    18   %  1.6855
     304      51.71053     18.97784         70.68836  -0.05155    19   %  1.7883
     312      50.22357     20.46657         70.69013  -0.04978    20   %  1.8859
     322      48.76388     21.92831         70.69218  -0.04773    21   %  1.9830
     334      47.34404     23.35046         70.69451  -0.04541    22   %  2.0795
     347      45.97982     24.71726         70.69708  -0.04283    23   %  2.1751
     361      44.68859     26.01130         70.69989  -0.04002    24   %  2.2696
     376      43.49017     27.21274         70.70291  -0.03700    25   %  2.3627
     392      42.40518     28.30092         70.70610  -0.03381    26   %  2.4539
     409      41.45221     29.25719         70.70940  -0.03051    27   %  2.5430
     425      40.64395     30.06877         70.71272  -0.02719    28   %  2.6293
     442      39.98281     30.73314         70.71595  -0.02396    29   %  2.7128
     457      39.45863     31.26031         70.71894  -0.02097    30   %  2.7930
     471      39.04884     31.67273         70.72157  -0.01834    31   %  2.8697
     483      38.72401     31.99977         70.72378  -0.01613    32   %  2.9430
     492      38.45647     32.26913         70.72560  -0.01431    33   %  3.0130
     501      38.22693     32.50023         70.72717  -0.01274    34   %  3.0804
     508      38.02504     32.70358         70.72862  -0.01130    35   %  3.1460
     515      37.84640     32.88362         70.73002  -0.00989    36   %  3.2110
     523      37.68928     33.04212         70.73140  -0.00851    37   %  3.2762
     530      37.55332     33.17944         70.73276  -0.00715    38   %  3.3422
     537      37.43824     33.29587         70.73410  -0.00581    39   %  3.4093
     544      37.34389     33.39153         70.73542  -0.00449    40   %  3.4778
     551      37.27020     33.46651         70.73671  -0.00320    41   %  3.5475
     558      37.21709     33.52089         70.73798  -0.00193    42   %  3.6185
     572      37.18430     33.55807         70.74237   0.00245    43   %  3.6908


 IRC CALCULATION COMPLETE 
           INITIAL VELOCITY IN DRC (Angstroms/Femtosecond)
        -0.07011         0.03069         0.00090
         0.07008         0.03002         0.00660
        -0.01398        -0.02668        -0.01654
         0.01401        -0.02990         0.00955
         0.03763        -0.00553        -0.07341
        -0.14381         0.04728         0.05877
         0.10940        -0.05561        -0.07543
        -0.03760        -0.02324         0.06983
         0.14375         0.06022        -0.04548
        -0.10938        -0.07239         0.05966

 GEOMETRY PRIORITY, STEP = 0.1000 ANGSTROMS



     POINT   POTENTIAL  +  ENERGY LOST   =   TOTAL      ERROR    REF%   MOVEMENT
       1      70.76151      0.00000         70.76151   0.00000     1   %  0.0000
      19      70.69090      0.05694         70.74784  -0.00049     2   %  0.0998
      27      70.46750      0.28070         70.74820  -0.00014     3   %  0.1986
      37      70.10718      0.64341         70.75060   0.00226     4   %  0.2946
      49      69.57635      1.17735         70.75371   0.00537     5   %  0.3970
      61      68.90680      1.84964         70.75643   0.00810     6   %  0.4994
      73      68.13509      2.62425         70.75934   0.01100     7   %  0.5991
      86      67.25872      3.50329         70.76201   0.01368     8   %  0.6989
      99      66.29365      4.47107         70.76472   0.01639     9   %  0.7985
     113      65.25269      5.51475         70.76744   0.01910    10   %  0.8979
     126      64.14878      6.62143         70.77021   0.02187    11   %  0.9973
     140      62.99388      7.77914         70.77302   0.02469    12   %  1.0965
     155      61.79871      8.97718         70.77589   0.02755    13   %  1.1955
     169      60.57286     10.20595         70.77881   0.03047    14   %  1.2944
     184      59.32491     11.45687         70.78178   0.03345    15   %  1.3930
     199      58.06240     12.72240         70.78480   0.03647    16   %  1.4913
     214      56.79204     13.99582         70.78786   0.03953    17   %  1.5894
     230      55.51969     15.27128         70.79097   0.04263    18   %  1.6871
     246      54.25059     16.54352         70.79411   0.04577    19   %  1.7845
     261      52.98940     17.80787         70.79727   0.04894    20   %  1.8816
     277      51.74020     19.06026         70.80046   0.05212    21   %  1.9783
     293      50.50668     20.29697         70.80365   0.05531    22   %  2.0746
     309      49.29213     21.51471         70.80684   0.05851    23   %  2.1704
     325      48.09952     22.71051         70.81002   0.06169    24   %  2.2659
     341      46.93148     23.88171         70.81319   0.06485    25   %  2.3608
     357      45.79041     25.02591         70.81632   0.06798    26   %  2.4553
     373      44.67845     26.14097         70.81941   0.07108    27   %  2.5493
     388      43.59752     27.22495         70.82247   0.07413    28   %  2.6428
     403      42.54932     28.27615         70.82547   0.07714    29   %  2.7357
     418      41.53536     29.29306         70.82843   0.08009    30   %  2.8281
     433      40.55697     30.27436         70.83133   0.08299    31   %  2.9198
     447      39.61529     31.21889         70.83418   0.08584    32   %  3.0109
     461      38.71126     32.12571         70.83698   0.08864    33   %  3.1013
     475      37.84566     32.99407         70.83972   0.09139    34   %  3.1909
     489      37.01904     33.82338         70.84242   0.09409    35   %  3.2797
     502      36.23183     34.61325         70.84508   0.09674    36   %  3.3677
     515      35.48419     35.36349         70.84768   0.09935    37   %  3.4549
     528      34.77611     36.07413         70.85024   0.10191    38   %  3.5410
     541      34.10740     36.74536         70.85276   0.10443    39   %  3.6262
     553      33.47773     37.37751         70.85524   0.10690    40   %  3.7103
     566      32.88648     37.97119         70.85767   0.10933    41   %  3.7934
     578      32.33306     38.52700         70.86006   0.11173    42   %  3.8753
     590      31.81663     39.04578         70.86241   0.11408    43   %  3.9562
     601      31.33635     39.52837         70.86472   0.11639    44   %  4.0360
     613      30.89115     39.97585         70.86699   0.11866    45   %  4.1147
     624      30.48012     40.38911         70.86923   0.12089    46   %  4.1923
     636      30.10213     40.76929         70.87142   0.12309    47   %  4.2691
     647      29.75622     41.11736         70.87359   0.12525    48   %  4.3449
     657      29.44138     41.43433         70.87571   0.12738    49   %  4.4199
     668      29.15650     41.72131         70.87781   0.12947    50   %  4.4943
     679      28.90067     41.97920         70.87987   0.13154    51   %  4.5682
     689      28.67301     42.20890         70.88191   0.13357    52   %  4.6417
     699      28.47260     42.41131         70.88391   0.13558    53   %  4.7149
     710      28.29853     42.58737         70.88590   0.13756    54   %  4.7882
     720      28.15013     42.73772         70.88786   0.13952    55   %  4.8616
     730      28.02663     42.86316         70.88979   0.14146    56   %  4.9353
     740      27.92735     42.96436         70.89171   0.14337    57   %  5.0096
     750      27.85169     43.04192         70.89360   0.14527    58   %  5.0848
     761      27.80006     43.09673         70.89679   0.14845    59   %  5.1613
     793      27.76920     43.14952         70.91872   0.17038    60   %  5.2378
     859      27.75827     43.28210         71.04037   0.29204    61   %  5.2912
     967      27.75271     43.43275         71.18546   0.43713    62   %  5.3094


 IRC CALCULATION COMPLETE 

 **********************
 *                    *
 * JOB ENDED NORMALLY *
 *                    *
 **********************



 TOTAL JOB TIME:            42.62 SECONDS

 == MOPAC DONE ==
