 *******************************************************************************
 ** Site#: 37037        For non-commercial use only           Version 21.158W **
 *******************************************************************************
 ** Cite this program as: MOPAC2016, Version: 21.158W, James J. P. Stewart,   **
 ** Stewart Computational Chemistry, web: HTTP://OpenMOPAC.net. Days left: 364**
 *******************************************************************************
 **                                                                           **
 **                                MOPAC2016                                  **
 **                                                                           **
 *******************************************************************************

                              PM7 CALCULATION RESULTS

 *******************************************************************************
 *  CALCULATION DONE:                                Tue Jun  8 10:00:29 2021  *
 *  RESIDUES   - DETERMINE THE SEQUENCE OF RESIDUES
 *  T=         - A TIME OF 172800.0 SECONDS REQUESTED
 *  DUMP=N     - RESTART FILE WRITTEN EVERY 7200.0 SECONDS REQUESTED
 *  HTML       - WRITE HTML SCRIPT TO READ PDB FILE USING JSMOL
 *******************************************************************************
 HTML
 Benzene + [NO2](+) +[HSO4](-) + H2O

   ATOM   CHEMICAL          X               Y               Z
  NUMBER   SYMBOL      (ANGSTROMS)     (ANGSTROMS)     (ANGSTROMS)
 
     1       C          0.19711000  *   2.17027000  *  -1.20559000  *
     2       C          1.49319000  *   1.79453000  *  -0.85019000  *
     3       C          2.23680000  *   2.59482000  *   0.01794000  *
     4       C          1.68358000  *   3.76463000  *   0.53321000  *
     5       C          0.38425000  *   4.13564000  *   0.18498000  *
     6       C         -0.35774000  *   3.33992000  *  -0.68442000  *
     7       N         -0.27793000  *   0.06379000  *   1.53754000  *
     8       H          1.92074000  *   0.87060000  *  -1.25259000  *
     9       H          3.25346000  *   2.30826000  *   0.28234000  *
    10       H          2.26737000  *   4.39597000  *   1.20076000  *
    11       H         -0.04433000  *   5.05280000  *   0.58413000  *
    12       H         -1.36810000  *   3.63359000  *  -0.96524000  *
    13       O         -0.46642000  *  -0.64862000  *   2.40444000  *
    14       O         -0.10050000  *   0.89619000  *   0.78725000  *
    15       O         -2.49728000  *  -0.06420000  *   0.79668000  *
    16       H         -0.37475000  *   1.55403000  *  -1.90059000  *
    17       H         -3.39489000  *  -0.26536000  *   1.03165000  *
    18       H         -2.24633000  *  -0.74315000  *   0.11608000  *
    19       S         -0.00809000  *  -2.49602000  *  -0.60247000  *
    20       O         -0.13841000  *  -3.73630000  *   0.12740000  *
    21       O         -1.62887000  *  -1.95585000  *  -0.87991000  *
    22       O          0.51814000  *  -2.50380000  *  -1.95439000  *
    23       O          0.45761000  *  -1.34514000  *   0.25081000  *
    24       H         -1.88623000  *  -1.94323000  *  -1.80059000  *
 


          CARTESIAN COORDINATES 

    NO.       ATOM           X           Y           Z

     1         C          0.1971      2.1703     -1.2056
     2         C          1.4932      1.7945     -0.8502
     3         C          2.2368      2.5948      0.0179
     4         C          1.6836      3.7646      0.5332
     5         C          0.3843      4.1356      0.1850
     6         C         -0.3577      3.3399     -0.6844
     7         N         -0.2779      0.0638      1.5375
     8         H          1.9207      0.8706     -1.2526
     9         H          3.2535      2.3083      0.2823
    10         H          2.2674      4.3960      1.2008
    11         H         -0.0443      5.0528      0.5841
    12         H         -1.3681      3.6336     -0.9652
    13         O         -0.4664     -0.6486      2.4044
    14         O         -0.1005      0.8962      0.7873
    15         O         -2.4973     -0.0642      0.7967
    16         H         -0.3748      1.5540     -1.9006
    17         H         -3.3949     -0.2654      1.0316
    18         H         -2.2463     -0.7432      0.1161
    19         S         -0.0081     -2.4960     -0.6025
    20         O         -0.1384     -3.7363      0.1274
    21         O         -1.6289     -1.9559     -0.8799
    22         O          0.5181     -2.5038     -1.9544
    23         O          0.4576     -1.3451      0.2508
    24         H         -1.8862     -1.9432     -1.8006

 General Reference for PM7:
 "Optimization of Parameters for Semiempirical Methods VI: More Modifications to the 
 NDDO Approximations and Re-optimization of Parameters", J. J. P. Stewart, J. Mol. Mod., 1:32, 19 (2013)
 https://link.springer.com/article/10.1007/s00894-012-1667-x

           Empirical Formula: C6 H9 N O7 S  =    24 atoms



      MOLECULAR POINT GROUP   :   C1  


      RHF CALCULATION, NO. OF DOUBLY OCCUPIED LEVELS = 43


          Geometry optimization using EF

     GRADIENT =  0.60880 IS LESS THAN CUTOFF =  1.00000



 -------------------------------------------------------------------------------
 HTML
 Benzene + [NO2](+) +[HSO4](-) + H2O



     GRADIENTS WERE INITIALLY ACCEPTABLY SMALL                
     SCF FIELD WAS ACHIEVED                                   


                              PM7 CALCULATION
                                                       MOPAC2016 (Version: 21.158W)
                                                       Tue Jun  8 10:00:29 2021
                                                       No. of days remaining = 364




          FINAL HEAT OF FORMATION =       -187.73152 KCAL/MOL =    -785.46870 KJ/MOL


          TOTAL ENERGY            =      -3284.49123 EV
          ELECTRONIC ENERGY       =     -17771.80973 EV  POINT GROUP:     C1  
          CORE-CORE REPULSION     =      14487.31850 EV
          COSMO AREA              =        232.15 SQUARE ANGSTROMS
          COSMO VOLUME            =        253.08 CUBIC ANGSTROMS

          GRADIENT NORM           =          0.60880 = 0.12427 PER ATOM
          IONIZATION POTENTIAL    =         10.339369 EV
          HOMO LUMO ENERGIES (EV) =        -10.339 -1.867
          NO. OF FILLED LEVELS    =         43
          MOLECULAR WEIGHT        =        239.1996

          MOLECULAR DIMENSIONS (Angstroms)

            Atom       Atom       Distance
            O    20    H    11     8.80146
            H    17    H     9     6.67938
            O    13    H    16     4.36559


          SCF CALCULATIONS        =          1
 
          WALL-CLOCK TIME         =          0.078 SECONDS
          COMPUTATION TIME        =          0.141 SECONDS




   ATOM                 CHEMICAL                   X               Y               Z
  NUMBER                 SYMBOL               (ANGSTROMS)     (ANGSTROMS)     (ANGSTROMS)
 
     1       C(HETATM    1  C1  HET A   1)    0.19711000  *   2.17027000  *  -1.20559000  *
     2       C(HETATM    2  C2  HET A   1)    1.49319000  *   1.79453000  *  -0.85019000  *
     3       C(HETATM    3  C3  HET A   1)    2.23680000  *   2.59482000  *   0.01794000  *
     4       C(HETATM    4  C4  HET A   1)    1.68358000  *   3.76463000  *   0.53321000  *
     5       C(HETATM    5  C5  HET A   1)    0.38425000  *   4.13564000  *   0.18498000  *
     6       C(HETATM    6  C6  HET A   1)   -0.35774000  *   3.33992000  *  -0.68442000  *
     7       N(HETATM    7  N   HET B   2)   -0.27793000  *   0.06379000  *   1.53754000  *
     8       H(HETATM    8  H2  HET A   1)    1.92074000  *   0.87060000  *  -1.25259000  *
     9       H(HETATM    9  H3  HET A   1)    3.25346000  *   2.30826000  *   0.28234000  *
    10       H(HETATM   10  H4  HET A   1)    2.26737000  *   4.39597000  *   1.20076000  *
    11       H(HETATM   11  H5  HET A   1)   -0.04433000  *   5.05280000  *   0.58413000  *
    12       H(HETATM   12  H6  HET A   1)   -1.36810000  *   3.63359000  *  -0.96524000  *
    13       O(HETATM   13  O1  HET D   2)   -0.46642000  *  -0.64862000  *   2.40444000  *
    14       O(HETATM   14  O2  HET D   2)   -0.10050000  *   0.89619000  *   0.78725000  *
    15       O(HETATM   15  O   HOH E   3)   -2.49728000  *  -0.06420000  *   0.79668000  *
    16       H(HETATM   16  H1  HET A   1)   -0.37475000  *   1.55403000  *  -1.90059000  *
    17       H(HETATM   17 1H   HOH E   3)   -3.39489000  *  -0.26536000  *   1.03165000  *
    18       H(HETATM   18 2H   HOH E   3)   -2.24633000  *  -0.74315000  *   0.11608000  *
    19       S(HETATM   19  S   SO4 H   4)   -0.00809000  *  -2.49602000  *  -0.60247000  *
    20       O(HETATM   20  O1  SO4 H   4)   -0.13841000  *  -3.73630000  *   0.12740000  *
    21       O(HETATM   21  O2  SO4 H   4)   -1.62887000  *  -1.95585000  *  -0.87991000  *
    22       O(HETATM   22  O3  SO4 H   4)    0.51814000  *  -2.50380000  *  -1.95439000  *
    23       O(HETATM   23  O4  SO4 H   4)    0.45761000  *  -1.34514000  *   0.25081000  *
    24       H(HETATM   24  H2  SO4 H   4)   -1.88623000  *  -1.94323000  *  -1.80059000  *

                             CARTESIAN COORDINATES

   1    C        0.197110000     2.170270000    -1.205590000
   2    C        1.493190000     1.794530000    -0.850190000
   3    C        2.236800000     2.594820000     0.017940000
   4    C        1.683580000     3.764630000     0.533210000
   5    C        0.384250000     4.135640000     0.184980000
   6    C       -0.357740000     3.339920000    -0.684420000
   7    N       -0.277930000     0.063790000     1.537540000
   8    H        1.920740000     0.870600000    -1.252590000
   9    H        3.253460000     2.308260000     0.282340000
  10    H        2.267370000     4.395970000     1.200760000
  11    H       -0.044330000     5.052800000     0.584130000
  12    H       -1.368100000     3.633590000    -0.965240000
  13    O       -0.466420000    -0.648620000     2.404440000
  14    O       -0.100500000     0.896190000     0.787250000
  15    O       -2.497280000    -0.064200000     0.796680000
  16    H       -0.374750000     1.554030000    -1.900590000
  17    H       -3.394890000    -0.265360000     1.031650000
  18    H       -2.246330000    -0.743150000     0.116080000
  19    S       -0.008090000    -2.496020000    -0.602470000
  20    O       -0.138410000    -3.736300000     0.127400000
  21    O       -1.628870000    -1.955850000    -0.879910000
  22    O        0.518140000    -2.503800000    -1.954390000
  23    O        0.457610000    -1.345140000     0.250810000
  24    H       -1.886230000    -1.943230000    -1.800590000


           Empirical Formula: C6 H9 N O7 S  =    24 atoms



      MOLECULAR POINT GROUP   :   C1  


                  EIGENVALUES  
 -40.32950 -37.78186 -30.99372 -29.44090 -28.88351 -27.23985 -27.08721 -26.32623
 -26.31738 -26.28571 -25.86441 -21.42457 -21.37527 -20.61989 -20.56397 -20.56022
 -18.53560 -18.50321 -18.04813 -16.14346 -15.79140 -15.74145 -15.12737 -14.77078
 -14.71151 -14.38867 -14.20572 -14.17853 -14.02180 -13.87304 -13.38241 -12.73076
 -12.41518 -12.38416 -12.16580 -11.66860 -11.58957 -11.22950 -11.01460 -10.63915
 -10.40616 -10.39973 -10.33937  -1.86735  -1.50500  -1.29641  -0.32198  -0.28708
   1.75190   2.00806   3.55778   3.71454   3.90791   3.92948   4.35660   4.52382
   4.75873   4.76788   4.96316   5.11656   5.14882   5.33741   5.64318   5.67783
   5.76549   5.80918   5.94794   5.97109   6.42618   6.47050   6.62827   6.96332
   7.78709   8.10694


              NET ATOMIC CHARGES AND DIPOLE CONTRIBUTIONS

  ATOM NO.                 TYPE                        CHARGE      No. of ELECS.   s-Pop       p-Pop       d-Pop       
    1          C(HETATM    1  C1  HET A   1)          -0.166237        4.1662     1.08832     3.07792
    2          C(HETATM    2  C2  HET A   1)          -0.128904        4.1289     1.09298     3.03593
    3          C(HETATM    3  C3  HET A   1)          -0.171700        4.1717     1.08570     3.08600
    4          C(HETATM    4  C4  HET A   1)          -0.150292        4.1503     1.08565     3.06465
    5          C(HETATM    5  C5  HET A   1)          -0.164748        4.1647     1.08410     3.08065
    6          C(HETATM    6  C6  HET A   1)          -0.151406        4.1514     1.08684     3.06457
    7          N(HETATM    7  N   HET B   2)           0.724503        4.2755     1.46246     2.81304
    8          H(HETATM    8  H2  HET A   1)           0.183816        0.8162     0.81618
    9          H(HETATM    9  H3  HET A   1)           0.156070        0.8439     0.84393
   10          H(HETATM   10  H4  HET A   1)           0.151391        0.8486     0.84861
   11          H(HETATM   11  H5  HET A   1)           0.152063        0.8479     0.84794
   12          H(HETATM   12  H6  HET A   1)           0.154167        0.8458     0.84583
   13          O(HETATM   13  O1  HET D   2)           0.055212        5.9448     1.92845     4.01634
   14          O(HETATM   14  O2  HET D   2)           0.130490        5.8695     1.93186     3.93765
   15          O(HETATM   15  O   HOH E   3)          -0.797150        6.7971     1.81512     4.98203
   16          H(HETATM   16  H1  HET A   1)           0.168565        0.8314     0.83143
   17          H(HETATM   17 1H   HOH E   3)           0.358433        0.6416     0.64157
   18          H(HETATM   18 2H   HOH E   3)           0.409395        0.5906     0.59060
   19          S(HETATM   19  S   SO4 H   4)           2.668342        3.3317     1.09270     1.77272     0.46623
   20          O(HETATM   20  O1  SO4 H   4)          -0.925489        6.9255     1.89528     5.03020
   21          O(HETATM   21  O2  SO4 H   4)          -0.938998        6.9390     1.84498     5.09401
   22          O(HETATM   22  O3  SO4 H   4)          -0.954955        6.9550     1.89659     5.05837
   23          O(HETATM   23  O4  SO4 H   4)          -1.146206        7.1462     1.90371     5.24249
   24          H(HETATM   24  H2  SO4 H   4)           0.383638        0.6164     0.61636
 DIPOLE           X         Y         Z       TOTAL
 POINT-CHG.    -2.119     7.620     4.975     9.344
 HYBRID        -0.368     0.124    -0.277     0.477
 SUM           -2.486     7.745     4.697     9.393


          ATOMIC ORBITAL ELECTRON POPULATIONS

                   Atom                  s        px        py        pz      x^2-y^2     xz        z^2       yz        xy
   C(HETATM    1  C1  HET A   1)   1.08832   1.02247   1.02019   1.03526
   C(HETATM    2  C2  HET A   1)   1.09298   0.99205   1.05847   0.98541
   C(HETATM    3  C3  HET A   1)   1.08570   1.07457   0.99999   1.01144
   C(HETATM    4  C4  HET A   1)   1.08565   1.01433   1.02035   1.02996
   C(HETATM    5  C5  HET A   1)   1.08410   1.00615   1.05895   1.01556
   C(HETATM    6  C6  HET A   1)   1.08684   1.07194   0.99564   0.99698
   N(HETATM    7  N   HET B   2)   1.46246   0.91699   0.94819   0.94786
   H(HETATM    8  H2  HET A   1)   0.81618
   H(HETATM    9  H3  HET A   1)   0.84393
   H(HETATM   10  H4  HET A   1)   0.84861
   H(HETATM   11  H5  HET A   1)   0.84794
   H(HETATM   12  H6  HET A   1)   0.84583
   O(HETATM   13  O1  HET D   2)   1.92845   1.54260   1.33244   1.14129
   O(HETATM   14  O2  HET D   2)   1.93186   1.51138   1.16149   1.26478
   O(HETATM   15  O   HOH E   3)   1.81512   1.50120   1.72494   1.75590
   H(HETATM   16  H1  HET A   1)   0.83143
   H(HETATM   17 1H   HOH E   3)   0.64157
   H(HETATM   18 2H   HOH E   3)   0.59060
   S(HETATM   19  S   SO4 H   4)   1.09270   0.56262   0.60052   0.60959   0.07707   0.07478   0.10956   0.14117   0.06365
   O(HETATM   20  O1  SO4 H   4)   1.89528   1.82182   1.48355   1.72483
   O(HETATM   21  O2  SO4 H   4)   1.84498   1.66403   1.92918   1.50080
   O(HETATM   22  O3  SO4 H   4)   1.89659   1.77916   1.85844   1.42077
   O(HETATM   23  O4  SO4 H   4)   1.90371   1.83571   1.64454   1.76224
   H(HETATM   24  H2  SO4 H   4)   0.61636

 **********************
 *                    *
 * JOB ENDED NORMALLY *
 *                    *
 **********************



 TOTAL JOB TIME:             0.09 SECONDS

 == MOPAC DONE ==
