 *******************************************************************************
 ** Site#: 37037        For non-commercial use only           Version 21.158W **
 *******************************************************************************
 ** Cite this program as: MOPAC2016, Version: 21.158W, James J. P. Stewart,   **
 ** Stewart Computational Chemistry, web: HTTP://OpenMOPAC.net. Days left: 358**
 *******************************************************************************
 **                                                                           **
 **                                MOPAC2016                                  **
 **                                                                           **
 *******************************************************************************

                              PM7 CALCULATION RESULTS

 *******************************************************************************
 *  CALCULATION DONE:                                Mon Jun 14 14:03:24 2021  *
 *  PDBOUT     - PRINT GEOMETRY IN PDB FORMAT
 *  GEO_DAT    - DATA SET GEOMETRY IS IN FILE "Nitration of benzene IRC.arc"
 *  IRC=N      - INTRINSIC REACTION COORDINATE -1 DEFINED
 *  DRC        - DYNAMIC REACTION COORDINATE CALCULATION
 *  T=         - A TIME OF 172800.0 SECONDS REQUESTED
 *  DUMP=N     - RESTART FILE WRITTEN EVERY 7200.0 SECONDS REQUESTED
 *  CYCLES=    - DO A MAXIMUM OF 300 STEPS
 *  HTML       - WRITE HTML SCRIPT TO GENERATE ANIMATION USING JSMOL
 *             - TO DISPLAY ENERGIES, DELETE KEYWORD "PDBOUT"
 *  T-PRIOR    - TIME TAKES PRIORITY IN DRC
 *******************************************************************************
  IRC=-1* HTML T-priority=1 DRC cycles=300 PDBOUT geo_dat="Nitration of benzene IRC.arc"
 DRC for the reaction:  Benzene + [NO2](+) +[HSO4](-) <=> Nitrobenzene + H2SO4 + H2O
 (Click on "Specific Script" to show charges)
   ATOM                 CHEMICAL                   X               Y               Z
  NUMBER                 SYMBOL               (ANGSTROMS)     (ANGSTROMS)     (ANGSTROMS)
 
     1       C(HETATM    1  C1  HET A   1)    0.21268433      1.44967048      0.00729602   
     2       C(HETATM    2  C2  HET A   1)    1.62440052      1.28728958      0.04066694   
     3       C(HETATM    3  C3  HET A   1)    2.44811623      2.40579071      0.07553241   
     4       C(HETATM    4  C4  HET A   1)    1.88827696      3.68181229      0.05080749   
     5       C(HETATM    5  C5  HET A   1)    0.49544117      3.86206075     -0.01800103   
     6       C(HETATM    6  C6  HET A   1)   -0.33823707      2.76414073     -0.04558722   
     7       N(HETATM    7  N   HET B   1)   -0.36472538      0.66196373      1.65144149   
     8       H(HETATM    8  H2  HET A   1)    2.03376892      0.25987127      0.01400890   
     9       H(HETATM    9  H3  HET A   1)    3.53138935      2.28632854      0.10421076   
    10       H(HETATM   10  H4  HET A   1)    2.53906730      4.56138367      0.07859132   
    11       H(HETATM   11  H5  HET A   1)    0.08671674      4.87180433     -0.05606095   
    12       H(HETATM   12  H6  HET A   1)   -1.42834146      2.86821912     -0.09865277   
    13       O(HETATM   13  O1  HET D   1)   -0.24177623     -0.48586282      1.60779388   
    14       O(HETATM   14  O2  HET D   1)   -0.66479701      1.55973640      2.34683990   
    15       O(HETATM   15  O   HOH E   2)   -2.41886720      0.49510080      0.44454494   
    16       H(HETATM   16  H4  SO4 H   3)   -0.33260742      0.64530715     -0.60761010   
    17       H(HETATM   17 1H   HOH E   2)   -3.32890642      0.40078170      0.69802874   
    18       H(HETATM   18 2H   HOH E   2)   -2.24408058     -0.28130578     -0.15933813   
    19       S(HETATM   19  S   SO4 H   3)   -0.32546285     -2.26646280     -1.19686120   
    20       O(HETATM   20  O1  SO4 H   3)   -0.30210615     -3.35760624     -0.24042004   
    21       O(HETATM   21  O2  SO4 H   3)   -1.94365489     -1.62777717     -1.10804085   
    22       O(HETATM   22  O3  SO4 H   3)   -0.23613235     -2.57107027     -2.61652390   
    23       O(HETATM   23  O4  SO4 H   3)    0.40738320     -1.04858346     -0.74051461   
    24       H(HETATM   24  H2  SO4 H   3)   -2.44161374     -1.72838575     -1.91447029   
 

 General Reference for PM7:
 "Optimization of Parameters for Semiempirical Methods VI: More Modifications to the 
 NDDO Approximations and Re-optimization of Parameters", J. J. P. Stewart, J. Mol. Mod., 1:32, 19 (2013)
 https://link.springer.com/article/10.1007/s00894-012-1667-x

           Empirical Formula: C6 H9 N O7 S  =    24 atoms



      MOLECULAR POINT GROUP   :   C1  


      RHF CALCULATION, NO. OF DOUBLY OCCUPIED LEVELS = 43



          HEAT OF FORMATION =    -153.088983 KCALS/MOLE


          GRADIENT NORM =   0.83145


          TIME FOR SCF CALCULATION =    0.03

          TIME FOR DERIVATIVES     =    0.00

          MOLECULAR WEIGHT =  239.20


          ESTIMATED TIME TO COMPLETE CALCULATION =        4.50 SECONDS

    FOR POINT-GROUP C1   THERE ARE   1 UNIQUE SYMMETRY FUNCTIONS.

 STEP:   1 TIME =     0.05 SECS, INTEGRAL =      0.05 TIME LEFT: 172799.92
 STEP:   2 TIME =     0.03 SECS, INTEGRAL =      0.08 TIME LEFT: 172799.89
 STEP:   3 TIME =     0.03 SECS, INTEGRAL =      0.11 TIME LEFT: 172799.86
 STEP:   4 TIME =     0.05 SECS, INTEGRAL =      0.16 TIME LEFT: 172799.81
 STEP:   5 TIME =     0.05 SECS, INTEGRAL =      0.20 TIME LEFT: 172799.77
 STEP:   6 TIME =     0.03 SECS, INTEGRAL =      0.23 TIME LEFT: 172799.73
 STEP:   7 TIME =     0.05 SECS, INTEGRAL =      0.28 TIME LEFT: 172799.69
 STEP:   8 TIME =     0.05 SECS, INTEGRAL =      0.33 TIME LEFT: 172799.64
 STEP:   9 TIME =     0.05 SECS, INTEGRAL =      0.38 TIME LEFT: 172799.59
 STEP:  10 TIME =     0.05 SECS, INTEGRAL =      0.42 TIME LEFT: 172799.55
 STEP:  11 TIME =     0.03 SECS, INTEGRAL =      0.45 TIME LEFT: 172799.52
 STEP:  12 TIME =     0.03 SECS, INTEGRAL =      0.48 TIME LEFT: 172799.48
 STEP:  13 TIME =     0.03 SECS, INTEGRAL =      0.52 TIME LEFT: 172799.45
 STEP:  14 TIME =     0.05 SECS, INTEGRAL =      0.56 TIME LEFT: 172799.41
 STEP:  15 TIME =     0.03 SECS, INTEGRAL =      0.59 TIME LEFT: 172799.38
 STEP:  16 TIME =     0.03 SECS, INTEGRAL =      0.62 TIME LEFT: 172799.34
 STEP:  17 TIME =     0.03 SECS, INTEGRAL =      0.66 TIME LEFT: 172799.31
 STEP:  18 TIME =     0.03 SECS, INTEGRAL =      0.69 TIME LEFT: 172799.28
 STEP:  19 TIME =     0.03 SECS, INTEGRAL =      0.72 TIME LEFT: 172799.25
 STEP:  20 TIME =     0.03 SECS, INTEGRAL =      0.75 TIME LEFT: 172799.22
 STEP:  21 TIME =     0.03 SECS, INTEGRAL =      0.78 TIME LEFT: 172799.19
 STEP:  22 TIME =     0.05 SECS, INTEGRAL =      0.83 TIME LEFT: 172799.14
 STEP:  23 TIME =     0.03 SECS, INTEGRAL =      0.86 TIME LEFT: 172799.11
 STEP:  24 TIME =     0.05 SECS, INTEGRAL =      0.91 TIME LEFT: 172799.06
 STEP:  25 TIME =     0.05 SECS, INTEGRAL =      0.95 TIME LEFT: 172799.02
 STEP:  26 TIME =     0.03 SECS, INTEGRAL =      0.98 TIME LEFT: 172798.98
 STEP:  27 TIME =     0.05 SECS, INTEGRAL =      1.03 TIME LEFT: 172798.94
 STEP:  28 TIME =     0.05 SECS, INTEGRAL =      1.08 TIME LEFT: 172798.89
 STEP:  29 TIME =     0.03 SECS, INTEGRAL =      1.11 TIME LEFT: 172798.86
 STEP:  30 TIME =     0.05 SECS, INTEGRAL =      1.16 TIME LEFT: 172798.81
 STEP:  31 TIME =     0.03 SECS, INTEGRAL =      1.19 TIME LEFT: 172798.78
 STEP:  32 TIME =     0.05 SECS, INTEGRAL =      1.23 TIME LEFT: 172798.73
 STEP:  33 TIME =     0.03 SECS, INTEGRAL =      1.27 TIME LEFT: 172798.70
 STEP:  34 TIME =     0.05 SECS, INTEGRAL =      1.31 TIME LEFT: 172798.66
 STEP:  35 TIME =     0.03 SECS, INTEGRAL =      1.34 TIME LEFT: 172798.62
 STEP:  36 TIME =     0.05 SECS, INTEGRAL =      1.39 TIME LEFT: 172798.58
 STEP:  37 TIME =     0.06 SECS, INTEGRAL =      1.45 TIME LEFT: 172798.52
 STEP:  38 TIME =     0.05 SECS, INTEGRAL =      1.50 TIME LEFT: 172798.47
 STEP:  39 TIME =     0.08 SECS, INTEGRAL =      1.58 TIME LEFT: 172798.39
 STEP:  40 TIME =     0.05 SECS, INTEGRAL =      1.62 TIME LEFT: 172798.34
 STEP:  41 TIME =     0.05 SECS, INTEGRAL =      1.67 TIME LEFT: 172798.30
 STEP:  42 TIME =     0.05 SECS, INTEGRAL =      1.72 TIME LEFT: 172798.25
 STEP:  43 TIME =     0.05 SECS, INTEGRAL =      1.77 TIME LEFT: 172798.20
 STEP:  44 TIME =     0.03 SECS, INTEGRAL =      1.80 TIME LEFT: 172798.17
 STEP:  45 TIME =     0.05 SECS, INTEGRAL =      1.84 TIME LEFT: 172798.12
 STEP:  46 TIME =     0.03 SECS, INTEGRAL =      1.88 TIME LEFT: 172798.09
 STEP:  47 TIME =     0.06 SECS, INTEGRAL =      1.94 TIME LEFT: 172798.03
 STEP:  48 TIME =     0.03 SECS, INTEGRAL =      1.97 TIME LEFT: 172798.00
 STEP:  49 TIME =     0.05 SECS, INTEGRAL =      2.02 TIME LEFT: 172797.95
 STEP:  50 TIME =     0.03 SECS, INTEGRAL =      2.05 TIME LEFT: 172797.92
 STEP:  51 TIME =     0.05 SECS, INTEGRAL =      2.09 TIME LEFT: 172797.88
 STEP:  52 TIME =     0.03 SECS, INTEGRAL =      2.12 TIME LEFT: 172797.84
 STEP:  53 TIME =     0.05 SECS, INTEGRAL =      2.17 TIME LEFT: 172797.80
 STEP:  54 TIME =     0.03 SECS, INTEGRAL =      2.20 TIME LEFT: 172797.77
 STEP:  55 TIME =     0.03 SECS, INTEGRAL =      2.23 TIME LEFT: 172797.73
 STEP:  56 TIME =     0.05 SECS, INTEGRAL =      2.28 TIME LEFT: 172797.69
 STEP:  57 TIME =     0.03 SECS, INTEGRAL =      2.31 TIME LEFT: 172797.66
 STEP:  58 TIME =     0.03 SECS, INTEGRAL =      2.34 TIME LEFT: 172797.62
 STEP:  59 TIME =     0.03 SECS, INTEGRAL =      2.38 TIME LEFT: 172797.59
 STEP:  60 TIME =     0.05 SECS, INTEGRAL =      2.42 TIME LEFT: 172797.55
 STEP:  61 TIME =     0.03 SECS, INTEGRAL =      2.45 TIME LEFT: 172797.52
 STEP:  62 TIME =     0.05 SECS, INTEGRAL =      2.50 TIME LEFT: 172797.47
 STEP:  63 TIME =     0.03 SECS, INTEGRAL =      2.53 TIME LEFT: 172797.44
 STEP:  64 TIME =     0.05 SECS, INTEGRAL =      2.58 TIME LEFT: 172797.39
 STEP:  65 TIME =     0.03 SECS, INTEGRAL =      2.61 TIME LEFT: 172797.36
 STEP:  66 TIME =     0.03 SECS, INTEGRAL =      2.64 TIME LEFT: 172797.33
 STEP:  67 TIME =     0.03 SECS, INTEGRAL =      2.67 TIME LEFT: 172797.30
 STEP:  68 TIME =     0.05 SECS, INTEGRAL =      2.72 TIME LEFT: 172797.25
 STEP:  69 TIME =     0.03 SECS, INTEGRAL =      2.75 TIME LEFT: 172797.22
 STEP:  70 TIME =     0.03 SECS, INTEGRAL =      2.78 TIME LEFT: 172797.19
 STEP:  71 TIME =     0.03 SECS, INTEGRAL =      2.81 TIME LEFT: 172797.16
 STEP:  72 TIME =     0.03 SECS, INTEGRAL =      2.84 TIME LEFT: 172797.12
           INITIAL VELOCITY IN DRC (Angstroms/Femtosecond)
        -0.01636        -0.05054         0.13206
         0.01218        -0.01500         0.03614
        -0.00194        -0.01324        -0.01690
        -0.00712        -0.01323        -0.00987
        -0.01154        -0.02125        -0.01719
        -0.00920        -0.01621         0.03672
         0.03364         0.06165        -0.12037
         0.01386        -0.02206         0.05994
         0.00092        -0.00518        -0.03901
        -0.00991        -0.00820        -0.00420
        -0.01260        -0.01979        -0.04168
        -0.01394        -0.02458         0.05797
        -0.00668         0.02130         0.02221
         0.00529        -0.00996         0.00306
        -0.00777         0.01219        -0.02258
         0.05710        -0.03223        -0.04357
         0.03370        -0.03144         0.07942
        -0.00756        -0.01113         0.01983
        -0.00294         0.00245         0.00362
         0.00614         0.00153        -0.00427
         0.00228        -0.00072        -0.00430
         0.00157         0.00332         0.00152
        -0.00264         0.02149        -0.02406
        -0.00154        -0.01751         0.00197
 THE VIBRATIONAL FREQUENCY (  -414.65CM(-1)) IS TOO SMALL
 FOR ONE QUANTUM TO BE USED
 INSTEAD 0.3KCAL/MOLE WILL BE USED TO START THE IRC

 TIME PRIORITY, INTERVAL = 1.00 FEMTOSECONDS



 FEMTOSECONDS  POINT  POTENTIAL + KINETIC  =   TOTAL     ERROR    REF%   MOVEMENT
     0.000       1  -153.08903    0.30000  -152.78903   0.00000     1   %  0.0000
     1.000       1  -153.09015    0.29623  -152.79392  -0.00488     2   %  0.0195
     2.000       1  -153.09528    0.29825  -152.79703  -0.00800     3   %  0.0391
     3.000       1  -153.10444    0.30606  -152.79838  -0.00935     4   %  0.0588
     4.000       2  -153.11762    0.31966  -152.79796  -0.00893     5   %  0.0787
     5.000       3  -153.13468    0.34133  -152.79336  -0.00432     6   %  0.0988
     6.000       3  -153.15757    0.36775  -152.78982  -0.00078     7   %  0.1198
     7.000       4  -153.18569    0.39854  -152.78716   0.00188     8   %  0.1414
     8.000       4  -153.22081    0.43486  -152.78595   0.00309     9   %  0.1641
     9.000       5  -153.26190    0.47467  -152.78722   0.00181    10   %  0.1879
    10.000       5  -153.31200    0.52411  -152.78789   0.00115    11   %  0.2130
    11.000       6  -153.36959    0.58185  -152.78774   0.00130    12   %  0.2392
    12.000       6  -153.43925    0.65185  -152.78740   0.00164    13   %  0.2671
    13.000       7  -153.51965    0.73297  -152.78668   0.00236    14   %  0.2964
    14.000       7  -153.61479    0.82862  -152.78617   0.00287    15   %  0.3276
    15.000       8  -153.72221    0.93618  -152.78603   0.00301    16   %  0.3608
    16.000       8  -153.84930    1.06349  -152.78581   0.00323    17   %  0.3962
    18.000      10  -154.16272    1.37805  -152.78467   0.00437    18   %  0.4735
    19.000      10  -154.35573    1.57497  -152.78076   0.00828    19   %  0.5159
    20.000      11  -154.57557    1.79493  -152.78064   0.00840    20   %  0.5615
    21.000      11  -154.82251    2.03845  -152.78405   0.00499    21   %  0.6102
    22.000      12  -155.10055    2.31439  -152.78617   0.00288    22   %  0.6623
    23.000      13  -155.41694    2.63184  -152.78510   0.00395    23   %  0.7175
    24.000      14  -155.77247    2.99001  -152.78246   0.00660    24   %  0.7762
    25.000      14  -156.16658    3.38660  -152.77998   0.00907    25   %  0.8385
    26.000      15  -156.59572    3.81232  -152.78341   0.00565    26   %  0.9047
    27.000      16  -157.06046    4.27486  -152.78560   0.00346    27   %  0.9747
    28.000      17  -157.56521    4.77987  -152.78534   0.00372    28   %  1.0481
    29.000      18  -158.11013    5.32678  -152.78336   0.00571    29   %  1.1250
    30.000      19  -158.68573    5.90524  -152.78049   0.00858    30   %  1.2058
    31.000      20  -159.27938    6.49825  -152.78113   0.00794    31   %  1.2906
    32.000      21  -159.87957    7.09253  -152.78704   0.00204    32   %  1.3797
    33.000      22  -160.47829    7.69007  -152.78822   0.00086    33   %  1.4728
    34.000      23  -161.07105    8.28351  -152.78754   0.00155    34   %  1.5694
    35.000      24  -161.64645    8.86006  -152.78638   0.00271    35   %  1.6694
    36.000      26  -162.18582    9.39791  -152.78791   0.00120    36   %  1.7725
    37.000      28  -162.66942    9.88051  -152.78891   0.00020    37   %  1.8786
    38.000      29  -163.08725   10.29813  -152.78912   0.00000    38   %  1.9874
    39.000      31  -163.43878   10.64970  -152.78908   0.00004    39   %  2.0987
    40.000      33  -163.72631   10.93747  -152.78884   0.00029    40   %  2.2124
    41.000      35  -163.94753   11.15876  -152.78877   0.00037    41   %  2.3287
    42.000      36  -164.09649   11.30753  -152.78896   0.00019    42   %  2.4484
    43.000      38  -164.17057   11.38140  -152.78917  -0.00002    43   %  2.5720
    44.000      40  -164.17756   11.38825  -152.78931  -0.00014    44   %  2.7001
    45.000      42  -164.13415   11.34486  -152.78930  -0.00012    45   %  2.8328
    46.000      44  -164.05761   11.26856  -152.78905   0.00013    46   %  2.9699
    47.000      46  -163.95747   11.16852  -152.78895   0.00024    47   %  3.1111
    48.000      47  -163.83715   11.04901  -152.78815   0.00105    48   %  3.2562
    49.000      50  -163.70209   10.91324  -152.78885   0.00035    49   %  3.4048
    50.000      52  -163.56615   10.77722  -152.78893   0.00028    50   %  3.5561
    51.000      54  -163.44956   10.66073  -152.78883   0.00039    51   %  3.7097
    52.000      56  -163.37045   10.58178  -152.78867   0.00056    52   %  3.8648
    53.000      58  -163.33941   10.55081  -152.78860   0.00063    53   %  4.0213
    54.000      60  -163.36199   10.57333  -152.78866   0.00058    54   %  4.1791
    55.000      62  -163.44650   10.65777  -152.78872   0.00052    55   %  4.3383
    56.000      64  -163.60855   10.81976  -152.78880   0.00046    56   %  4.4988
    57.000      65  -163.86590   11.07690  -152.78900   0.00026    57   %  4.6606
    58.000      67  -164.22968   11.44041  -152.78927   0.00000    58   %  4.8232
    59.000      68  -164.69571   11.90631  -152.78940  -0.00012    59   %  4.9860
    60.000      69  -165.24784   12.45831  -152.78952  -0.00024    60   %  5.1488
    61.000      71  -165.86857   13.07900  -152.78958  -0.00028    61   %  5.3113
    62.000      73  -166.54222   13.75268  -152.78954  -0.00024    62   %  5.4734
    63.000      75  -167.25425   14.46487  -152.78938  -0.00007    63   %  5.6349
    64.000      78  -167.98412   15.19487  -152.78925   0.00008    64   %  5.7960
    65.000      80  -168.70311   15.91390  -152.78921   0.00013    65   %  5.9570
    66.000      83  -169.38187   16.59270  -152.78917   0.00018    66   %  6.1181
    67.000      86  -169.99945   17.21028  -152.78917   0.00019    67   %  6.2799
    68.000      89  -170.54830   17.75920  -152.78910   0.00027    68   %  6.4425
    69.000      91  -171.02931   18.24038  -152.78893   0.00046    69   %  6.6058
    70.000      94  -171.44243   18.65374  -152.78869   0.00071    70   %  6.7698
    71.000      96  -171.78163   18.99308  -152.78855   0.00086    71   %  6.9343
    72.000      98  -172.03869   19.25014  -152.78854   0.00088    72   %  7.0994
    73.000     101  -172.21070   19.42214  -152.78856   0.00088    73   %  7.2649
    74.000     103  -172.30274   19.51380  -152.78894   0.00051    74   %  7.4309
    75.000     105  -172.32250   19.53358  -152.78892   0.00054    75   %  7.5975
    76.000     107  -172.27215   19.48366  -152.78849   0.00099    76   %  7.7648
    77.000     110  -172.14631   19.35761  -152.78870   0.00079    77   %  7.9334
    78.000     113  -171.93814   19.14925  -152.78889   0.00062    78   %  8.1037
    79.000     115  -171.64901   18.86002  -152.78898   0.00053    79   %  8.2765
    80.000     118  -171.29248   18.50344  -152.78904   0.00049    80   %  8.4517
    81.000     121  -170.88999   18.10098  -152.78901   0.00053    81   %  8.6296
    82.000     123  -170.46211   17.67317  -152.78895   0.00061    82   %  8.8098
    83.000     126  -170.02410   17.23517  -152.78893   0.00063    83   %  8.9921
    84.000     128  -169.58936   16.80035  -152.78901   0.00057    84   %  9.1762
    85.000     129  -169.17579   16.38663  -152.78916   0.00043    85   %  9.3618
    86.000     131  -168.80579   16.01653  -152.78925   0.00035    86   %  9.5486
    87.000     133  -168.50138   15.71226  -152.78912   0.00050    87   %  9.7362
    88.000     134  -168.27364   15.48483  -152.78881   0.00081    88   %  9.9246
    89.000     136  -168.12177   15.33290  -152.78888   0.00076    89   % 10.1139
    90.000     137  -168.03928   15.24998  -152.78930   0.00034    90   % 10.3044
    91.000     139  -168.02319   15.23349  -152.78970  -0.00005    91   % 10.4961
    92.000     141  -168.07774   15.28797  -152.78976  -0.00010    92   % 10.6888
    93.000     143  -168.20900   15.41939  -152.78962   0.00006    93   % 10.8822
    94.000     145  -168.41638   15.62703  -152.78935   0.00033    94   % 11.0756
    95.000     147  -168.69004   15.90073  -152.78931   0.00039    95   % 11.2684
    96.000     148  -169.01744   16.22799  -152.78946   0.00025    96   % 11.4599
    97.000     150  -169.39014   16.60003  -152.79011  -0.00039    97   % 11.6496
    98.000     152  -169.80520   17.01534  -152.78986  -0.00013    98   % 11.8370
    99.000     153  -170.25866   17.46916  -152.78949   0.00025    99   % 12.0219
   100.000     154  -170.73655   17.94768  -152.78887   0.00088   100   % 12.2045
   101.000     156  -171.21776   18.42846  -152.78930   0.00047   101   % 12.3852
   102.000     158  -171.67767   18.88809  -152.78958   0.00021   102   % 12.5647
   103.000     160  -172.09993   19.31027  -152.78966   0.00013   103   % 12.7434
   104.000     162  -172.47602   19.68649  -152.78953   0.00028   104   % 12.9214
   105.000     164  -172.79848   20.00915  -152.78933   0.00049   105   % 13.0986
   106.000     166  -173.05351   20.26419  -152.78932   0.00052   106   % 13.2747
   107.000     168  -173.22123   20.43175  -152.78948   0.00037   107   % 13.4494
   108.000     171  -173.28361   20.49479  -152.78883   0.00104   108   % 13.6224
   109.000     174  -173.23241   20.44335  -152.78905   0.00083   109   % 13.7934
   110.000     176  -173.07058   20.28149  -152.78910   0.00080   110   % 13.9625
   111.000     179  -172.80654   20.01746  -152.78908   0.00083   111   % 14.1298
   112.000     182  -172.44874   19.65960  -152.78914   0.00078   112   % 14.2957
   113.000     185  -172.00611   19.21686  -152.78925   0.00068   113   % 14.4609
   114.000     187  -171.49389   18.70454  -152.78935   0.00060   114   % 14.6259
   115.000     190  -170.93864   18.14924  -152.78940   0.00057   115   % 14.7911
   116.000     193  -170.37694   17.58758  -152.78936   0.00061   116   % 14.9563
   117.000     195  -169.84579   17.05653  -152.78926   0.00072   117   % 15.1212
   118.000     197  -169.37470   16.58549  -152.78920   0.00079   118   % 15.2853
   119.000     200  -168.98137   16.19213  -152.78924   0.00077   119   % 15.4480
   120.000     203  -168.67662   15.88730  -152.78932   0.00070   120   % 15.6089
   121.000     206  -168.47351   15.68414  -152.78937   0.00066   121   % 15.7677
   122.000     209  -168.38749   15.59805  -152.78945   0.00059   122   % 15.9242
   123.000     211  -168.43118   15.64168  -152.78950   0.00055   123   % 16.0786
   124.000     214  -168.60825   15.81875  -152.78949   0.00057   124   % 16.2311
   125.000     217  -168.91133   16.12187  -152.78946   0.00061   125   % 16.3822
   126.000     219  -169.32516   16.53574  -152.78942   0.00066   126   % 16.5322
   127.000     221  -169.83022   17.04084  -152.78937   0.00072   127   % 16.6813
   128.000     224  -170.40333   17.61400  -152.78934   0.00077   128   % 16.8293
   129.000     226  -171.01180   18.22239  -152.78942   0.00071   129   % 16.9757
   130.000     230  -171.61394   18.82008  -152.79386  -0.00372   130   % 17.1199
   131.000     233  -172.05423   19.26458  -152.78965   0.00050   131   % 17.2613
   132.000     238  -172.45907   19.66925  -152.78982   0.00034   132   % 17.3993
   133.000     243  -172.69351   19.90363  -152.78988   0.00029   133   % 17.5338
   134.000     248  -172.73584   19.94593  -152.78992   0.00027   134   % 17.6649
   135.000     253  -172.58777   19.79783  -152.78993   0.00027   135   % 17.7926
   136.000     257  -172.26907   19.47913  -152.78994   0.00028   136   % 17.9173
   137.000     262  -171.81200   19.02206  -152.78994   0.00029   137   % 18.0394
   138.000     266  -171.25822   18.46827  -152.78994   0.00030   138   % 18.1594
   139.000     269  -170.65684   17.86690  -152.78994   0.00031   139   % 18.2776
   140.000     272  -170.05975   17.26982  -152.78993   0.00034   140   % 18.3942
   141.000     275  -169.51048   16.72060  -152.78988   0.00040   141   % 18.5089
   142.000     277  -169.03158   16.24166  -152.78992   0.00037   142   % 18.6216
   143.000     281  -168.61898   15.82891  -152.79008   0.00023   143   % 18.7323
   144.000     285  -168.24756   15.45736  -152.79020   0.00011   144   % 18.8412
   145.000     290  -167.88636   15.09607  -152.79029   0.00003   145   % 18.9487
   146.000     296  -167.51345   14.72309  -152.79035  -0.00002   146   % 19.0553
   147.000     301  -167.12449   14.33408  -152.79041  -0.00007   147   % 19.1617
   148.000     307  -166.73371   13.94324  -152.79047  -0.00012   148   % 19.2688
   149.000     312  -166.37316   13.58262  -152.79054  -0.00018   149   % 19.3775
   150.000     317  -166.09022   13.29959  -152.79063  -0.00026   150   % 19.4883
   151.000     321  -165.94238   13.15165  -152.79073  -0.00035   151   % 19.6018
   152.000     324  -165.98486   13.19414  -152.79073  -0.00034   152   % 19.7180
   153.000     327  -166.25066   13.46010  -152.79056  -0.00016   153   % 19.8367
   154.000     330  -166.73073   13.94046  -152.79027   0.00014   154   % 19.9576
   155.000     333  -167.36768   14.57723  -152.79046  -0.00004   155   % 20.0802
   156.000     339  -168.07032   15.27982  -152.79050  -0.00007   156   % 20.2045
   157.000     345  -168.74249   15.95197  -152.79052  -0.00008   157   % 20.3304
   158.000     351  -169.31029   16.51975  -152.79054  -0.00009   158   % 20.4579
   159.000     357  -169.73390   16.94335  -152.79055  -0.00009   159   % 20.5869
   160.000     364  -170.00550   17.21495  -152.79056  -0.00008   160   % 20.7175
   161.000     369  -170.13856   17.34800  -152.79056  -0.00007   161   % 20.8497
   162.000     374  -170.15883   17.36828  -152.79055  -0.00005   162   % 20.9835
   163.000     379  -170.09978   17.30923  -152.79055  -0.00004   163   % 21.1188
   164.000     383  -169.99863   17.20806  -152.79057  -0.00005   164   % 21.2549
   165.000     386  -169.88791   17.09732  -152.79059  -0.00006   165   % 21.3911
   166.000     390  -169.78396   16.99333  -152.79063  -0.00009   166   % 21.5268
   167.000     394  -169.67989   16.88922  -152.79067  -0.00011   167   % 21.6613
   168.000     399  -169.55008   16.75939  -152.79070  -0.00013   168   % 21.7941
   169.000     404  -169.36397   16.57327  -152.79070  -0.00012   169   % 21.9252
   170.000     410  -169.09998   16.30929  -152.79069  -0.00010   170   % 22.0545
   171.000     416  -168.75114   15.96047  -152.79066  -0.00006   171   % 22.1823
   172.000     422  -168.32290   15.53226  -152.79064  -0.00003   172   % 22.3092
   173.000     428  -167.83029   15.03965  -152.79064  -0.00001   173   % 22.4357
   174.000     434  -167.30123   14.51057  -152.79066  -0.00002   174   % 22.5625
   175.000     440  -166.76798   13.99798  -152.77000   0.02065   175   % 22.6899
   176.000     445  -166.32334   13.53258  -152.79076  -0.00011   176   % 22.8182
   177.000     449  -166.06960   13.27878  -152.79081  -0.00015   177   % 22.9473
   178.000     452  -166.06166   13.27094  -152.79072  -0.00005   178   % 23.0770
   179.000     455  -166.32644   13.53601  -152.79044   0.00024   179   % 23.2071
   180.000     458  -166.83225   14.04185  -152.79040   0.00029   180   % 23.3375
   181.000     463  -167.50001   14.70943  -152.79058   0.00012   181   % 23.4681
   182.000     469  -168.22997   15.43934  -152.79064   0.00008   182   % 23.5993
   183.000     475  -168.96232   16.13648  -152.82584  -0.03512   183   % 23.7314
   184.000     482  -169.55670   16.76604  -152.79066   0.00007   184   % 23.8648
   185.000     489  -169.99246   17.20179  -152.79067   0.00007   185   % 23.9999
   186.000     496  -170.24501   17.45432  -152.79069   0.00007   186   % 24.1369
   187.000     503  -170.31880   17.52808  -152.79072   0.00005   187   % 24.2757
   188.000     508  -170.24883   17.45808  -152.79075   0.00004   188   % 24.4160
   189.000     513  -170.09138   17.30063  -152.79075   0.00004   189   % 24.5574
   190.000     518  -169.90463   17.11391  -152.79072   0.00008   190   % 24.6991
   191.000     522  -169.72971   16.93905  -152.79066   0.00016   191   % 24.8409
   192.000     526  -169.58290   16.79229  -152.79060   0.00023   192   % 24.9825
   193.000     530  -169.52295   16.65543  -152.86752  -0.07668   193   % 25.1239
   194.000     534  -169.45598   16.66533  -152.79065   0.00021   194   % 25.2656
   195.000     539  -169.34313   16.55241  -152.79073   0.00014   195   % 25.4076
   196.000     544  -169.19550   16.40470  -152.79080   0.00007   196   % 25.5502
   197.000     550  -168.97259   16.18171  -152.79088   0.00001   197   % 25.6934
   198.000     557  -168.63369   15.84275  -152.79094  -0.00004   198   % 25.8373
   199.000     564  -168.16024   15.36925  -152.79099  -0.00008   199   % 25.9819
   200.000     570  -167.57640   14.78537  -152.79103  -0.00011   200   % 26.1268
   201.000     576  -166.95172   14.16065  -152.79107  -0.00014   201   % 26.2718
   202.000     581  -166.37994   13.58885  -152.79109  -0.00015   202   % 26.4163
   203.000     585  -165.94527   13.15427  -152.79100  -0.00005   203   % 26.5603
   204.000     588  -165.69580   12.90498  -152.79082   0.00014   204   % 26.7033
   205.000     591  -165.63735   12.84658  -152.79077   0.00020   205   % 26.8453
   206.000     595  -165.74491   12.95390  -152.79101  -0.00004   206   % 26.9863
   207.000     600  -165.97796   13.18689  -152.79108  -0.00009   207   % 27.1261
   208.000     605  -166.28973   13.49866  -152.79107  -0.00008   208   % 27.2647
   209.000     611  -166.63154   13.84050  -152.79104  -0.00004   209   % 27.4020
   210.000     616  -166.95999   14.16895  -152.79104  -0.00003   210   % 27.5382
   211.000     622  -167.24915   14.45808  -152.79107  -0.00005   211   % 27.6733
   212.000     627  -167.50014   14.70903  -152.79111  -0.00008   212   % 27.8072
   213.000     632  -167.73790   14.94676  -152.79114  -0.00010   213   % 27.9400
   214.000     636  -167.99456   15.20342  -152.79114  -0.00009   214   % 28.0717
   215.000     640  -168.29012   15.49902  -152.79110  -0.00003   215   % 28.2024
   216.000     643  -168.62417   15.83315  -152.79102   0.00006   216   % 28.3321
   217.000     646  -168.98100   16.19003  -152.79097   0.00012   217   % 28.4610
   218.000     649  -169.33839   16.54744  -152.79094   0.00015   218   % 28.5890
   219.000     653  -169.66980   16.87885  -152.79095   0.00016   219   % 28.7164
   220.000     657  -169.93915   17.14816  -152.79098   0.00014   220   % 28.8432
   221.000     662  -170.09983   17.30881  -152.79103   0.00011   221   % 28.9698
   222.000     667  -170.10573   17.31467  -152.79106   0.00008   222   % 29.0964
   223.000     672  -169.93133   17.14023  -152.79109   0.00006   223   % 29.2237
   224.000     677  -169.58646   16.79534  -152.79112   0.00005   224   % 29.3519
   225.000     681  -169.11233   16.32121  -152.79112   0.00006   225   % 29.4813
   226.000     685  -168.56102   15.76993  -152.79109   0.00010   226   % 29.6124
   227.000     688  -167.97461   15.18355  -152.79106   0.00014   227   % 29.7451
   228.000     691  -167.37647   14.58536  -152.79111   0.00011   228   % 29.8793
   229.000     695  -166.78069   13.98950  -152.79119   0.00003   229   % 30.0150
   230.000     698  -166.20503   13.41380  -152.79123  -0.00000   230   % 30.1517
   231.000     701  -165.67322   12.88200  -152.79122   0.00002   231   % 30.2889
   232.000     705  -165.20566   12.41448  -152.79118   0.00007   232   % 30.4264
   233.000     708  -164.81067   12.01947  -152.79119   0.00007   233   % 30.5638
   234.000     712  -164.48733   11.69605  -152.79127  -0.00001   234   % 30.7008
   235.000     716  -164.23867   11.44726  -152.79140  -0.00013   235   % 30.8375
   236.000     719  -164.08242   11.29083  -152.79159  -0.00031   236   % 30.9737
   237.000     722  -164.04793   11.25617  -152.79176  -0.00047   237   % 31.1093
   238.000     725  -164.15993   11.36840  -152.79153  -0.00023   238   % 31.2444
   239.000     727  -164.42223   11.63117  -152.79107   0.00024   239   % 31.3786
   240.000     730  -164.81504   12.02428  -152.79075   0.00056   240   % 31.5119
   241.000     732  -165.30545   12.51450  -152.79095   0.00037   241   % 31.6438
   242.000     735  -165.85979   13.06867  -152.79111   0.00022   242   % 31.7742
   243.000     738  -166.44813   13.65697  -152.79115   0.00019   243   % 31.9026
   244.000     741  -167.03828   14.24712  -152.79116   0.00019   244   % 32.0290
   245.000     745  -167.59365   14.80250  -152.79115   0.00021   245   % 32.1533
   246.000     749  -168.07915   15.28800  -152.79115   0.00022   246   % 32.2757
   247.000     752  -168.47337   15.68224  -152.79113   0.00025   247   % 32.3964
   248.000     755  -168.77437   15.98330  -152.79107   0.00032   248   % 32.5160
   249.000     758  -168.99222   16.20128  -152.79094   0.00046   249   % 32.6348
   250.000     761  -169.13276   16.34191  -152.79085   0.00056   250   % 32.7531
   251.000     764  -169.18617   16.39522  -152.79095   0.00048   251   % 32.8713
   252.000     767  -169.13127   16.34019  -152.79107   0.00037   252   % 32.9895
   253.000     771  -168.95130   16.16015  -152.79115   0.00030   253   % 33.1078
   254.000     775  -168.64706   15.85587  -152.79119   0.00027   254   % 33.2263
   255.000     779  -168.23684   15.44564  -152.79121   0.00026   255   % 33.3448
   256.000     782  -167.74610   14.95487  -152.79122   0.00026   256   % 33.4633
   257.000     786  -167.19868   14.40742  -152.79126   0.00023   257   % 33.5818
   258.000     789  -166.61813   13.82680  -152.79133   0.00017   258   % 33.7003
   259.000     793  -166.03532   13.24391  -152.79141   0.00010   259   % 33.8191
   260.000     795  -165.49445   12.70303  -152.79142   0.00010   260   % 33.9382
   261.000     798  -165.04440   12.25293  -152.79147   0.00006   261   % 34.0578
   262.000     800  -164.71825   11.92707  -152.79118   0.00036   262   % 34.1781
   263.000     803  -164.52240   11.73120  -152.79120   0.00035   263   % 34.2990
   264.000     806  -164.44036   11.64899  -152.79137   0.00018   264   % 34.4206
   265.000     810  -164.44878   11.65726  -152.79152   0.00004   265   % 34.5426
   266.000     814  -164.53479   11.74315  -152.79164  -0.00007   266   % 34.6651
   267.000     818  -164.70071   11.90901  -152.79169  -0.00012   267   % 34.7877
   268.000     822  -164.95692   12.16521  -152.79171  -0.00012   268   % 34.9102
   269.000     825  -165.31169   12.51998  -152.79171  -0.00012   269   % 35.0326
   270.000     828  -165.76611   12.97440  -152.79171  -0.00011   270   % 35.1548
   271.000     831  -166.31501   13.52329  -152.79172  -0.00011   271   % 35.2768
   272.000     834  -166.94774   14.15605  -152.79169  -0.00007   272   % 35.3986
   273.000     837  -167.55343   14.87467  -152.67876   0.11287   273   % 35.5204
   274.000     841  -168.21874   15.42712  -152.79162   0.00003   274   % 35.6418
   275.000     845  -168.90366   16.11201  -152.79165   0.00000   275   % 35.7628
   276.000     850  -169.48409   16.69239  -152.79169  -0.00003   276   % 35.8837
   277.000     855  -169.89890   17.10718  -152.79173  -0.00005   277   % 36.0043
   278.000     861  -170.11440   17.32264  -152.79176  -0.00007   278   % 36.1244
   279.000     866  -170.12956   17.33778  -152.79179  -0.00008   279   % 36.2438
   280.000     872  -169.96889   17.17709  -152.79180  -0.00009   280   % 36.3623
   281.000     876  -169.67140   16.87958  -152.79182  -0.00010   281   % 36.4799
   282.000     881  -169.28306   16.49122  -152.79184  -0.00010   282   % 36.5964
   283.000     884  -168.85405   16.06218  -152.79187  -0.00012   283   % 36.7121
   284.000     888  -168.43447   15.64258  -152.79188  -0.00013   284   % 36.8271
   285.000     891  -168.06504   15.27317  -152.79187  -0.00010   285   % 36.9416
   286.000     894  -167.76474   14.97286  -152.79188  -0.00010   286   % 37.0559
   287.000     898  -167.52390   14.73197  -152.79193  -0.00014   287   % 37.1700
   288.000     903  -167.31100   14.51904  -152.79196  -0.00016   288   % 37.2842
   289.000     909  -167.09018   14.29820  -152.79198  -0.00017   289   % 37.3984
   290.000     915  -166.83966   14.04768  -152.79198  -0.00016   290   % 37.5126
   291.000     921  -166.56081   13.76883  -152.79198  -0.00015   291   % 37.6267
   292.000     927  -166.27646   13.48450  -152.79196  -0.00012   292   % 37.7409
   293.000     933  -166.02433   13.23236  -152.79197  -0.00012   293   % 37.8551
   294.000     938  -165.84967   13.05765  -152.79202  -0.00016   294   % 37.9698
   295.000     943  -165.79331   13.00125  -152.79206  -0.00019   295   % 38.0852
   296.000     947  -165.90218   13.11007  -152.79211  -0.00024   296   % 38.2019
   297.000     950  -166.21068   13.41863  -152.79205  -0.00017   297   % 38.3202
   298.000     953  -166.71863   13.92679  -152.79184   0.00005   298   % 38.4402
   299.000     957  -167.37710   14.58527  -152.79183   0.00007   299   % 38.5623
   300.000     962  -168.09377   15.30189  -152.79188   0.00004   300   % 38.6862


           INITIAL VELOCITY IN DRC (Angstroms/Femtosecond)
         0.01636         0.05054        -0.13206
        -0.01218         0.01500        -0.03614
         0.00194         0.01324         0.01690
         0.00712         0.01323         0.00987
         0.01154         0.02125         0.01719
         0.00920         0.01621        -0.03672
        -0.03364        -0.06165         0.12037
        -0.01386         0.02206        -0.05994
        -0.00092         0.00518         0.03901
         0.00991         0.00820         0.00420
         0.01260         0.01979         0.04168
         0.01394         0.02458        -0.05797
         0.00668        -0.02130        -0.02221
        -0.00529         0.00996        -0.00306
         0.00777        -0.01219         0.02258
        -0.05710         0.03223         0.04357
        -0.03370         0.03144        -0.07942
         0.00756         0.01113        -0.01983
         0.00294        -0.00245        -0.00362
        -0.00614        -0.00153         0.00427
        -0.00228         0.00072         0.00430
        -0.00157        -0.00332        -0.00152
         0.00264        -0.02149         0.02406
         0.00154         0.01751        -0.00197
 THE VIBRATIONAL FREQUENCY (  -414.65CM(-1)) IS TOO SMALL
 FOR ONE QUANTUM TO BE USED
 INSTEAD 0.3KCAL/MOLE WILL BE USED TO START THE IRC

 TIME PRIORITY, INTERVAL = 1.00 FEMTOSECONDS



 FEMTOSECONDS  POINT  POTENTIAL + KINETIC  =   TOTAL     ERROR    REF%   MOVEMENT
     0.000       1  -153.08898    0.30000  -152.78898   0.00000     1   %  0.0000
     1.000       1  -153.09194    0.29849  -152.79345  -0.00447     2   %  0.0196
     2.000       1  -153.09905    0.30264  -152.79641  -0.00743     3   %  0.0395
     3.000       1  -153.11032    0.31245  -152.79787  -0.00889     4   %  0.0596
     4.000       2  -153.12574    0.32792  -152.79782  -0.00884     5   %  0.0801
     5.000       3  -153.14559    0.35530  -152.79030  -0.00131     6   %  0.1010
     6.000       3  -153.17214    0.38635  -152.78579   0.00319     7   %  0.1230
     7.000       4  -153.20459    0.41881  -152.78578   0.00320     8   %  0.1457
     8.000       4  -153.24532    0.45948  -152.78584   0.00314     9   %  0.1697
     9.000       5  -153.29287    0.50680  -152.78607   0.00291    10   %  0.1947
    10.000       5  -153.35161    0.56544  -152.78617   0.00282    11   %  0.2212
    11.000       6  -153.41955    0.63401  -152.78553   0.00345    12   %  0.2491
    12.000       6  -153.50266    0.71670  -152.78596   0.00303    13   %  0.2788
    13.000       7  -153.59889    0.80991  -152.78898   0.00001    14   %  0.3101
    14.000       7  -153.71443    0.92442  -152.79001  -0.00102    15   %  0.3438
    15.000       8  -153.84601    1.05886  -152.78715   0.00184    16   %  0.3799
    16.000       8  -154.00337    1.21729  -152.78608   0.00291    17   %  0.4185
    18.000      10  -154.39768    1.61067  -152.78700   0.00199    18   %  0.5036
    19.000      10  -154.64401    1.85831  -152.78570   0.00329    19   %  0.5507
    20.000      11  -154.92464    2.14008  -152.78456   0.00444    20   %  0.6012
    21.000      12  -155.24299    2.45798  -152.78501   0.00398    21   %  0.6560
    22.000      13  -155.60053    2.81464  -152.78589   0.00311    22   %  0.7150
    23.000      13  -155.99964    3.21458  -152.78506   0.00394    23   %  0.7782
    24.000      14  -156.43917    3.65677  -152.78240   0.00660    24   %  0.8460
    25.000      15  -156.90568    4.13092  -152.77476   0.01425    25   %  0.9192
    26.000      15  -157.38449    4.60965  -152.77484   0.01417    26   %  0.9980
    27.000      17  -157.86017    5.07407  -152.78611   0.00291    27   %  1.0826
    28.000      19  -158.30915    5.52191  -152.78725   0.00177    28   %  1.1727
    29.000      21  -158.70575    5.91743  -152.78832   0.00070    29   %  1.2683
    30.000      24  -159.01841    6.22964  -152.78877   0.00025    30   %  1.3697
    31.000      28  -159.21964    6.43065  -152.78898   0.00004    31   %  1.4772
    32.000      32  -159.30141    6.51235  -152.78907  -0.00003    32   %  1.5911
    33.000      37  -159.29269    6.50358  -152.78912  -0.00008    33   %  1.7117
    34.000      42  -159.27348    6.48433  -152.78915  -0.00010    34   %  1.8388
    35.000      46  -159.38304    6.59388  -152.78916  -0.00011    35   %  1.9729
    36.000      51  -159.82657    7.03751  -152.78906  -0.00000    36   %  2.1150
    37.000      55  -160.89176    8.10320  -152.78856   0.00049    37   %  2.2669
    38.000      61  -162.99526   10.20732  -152.78794   0.00113    38   %  2.4316
    39.000      69  -166.75712   13.96979  -152.78733   0.00174    39   %  2.6134
    40.000      78  -172.88272   20.17258  -152.71014   0.07894    40   %  2.8181
    41.000      88  -181.69534   28.91057  -152.78477   0.00433    41   %  3.0512
    42.000      98  -189.29743   36.51284  -152.78458   0.00454    42   %  3.3130
    43.000     108  -188.73162   35.94426  -152.78736   0.00179    43   %  3.5879
    44.000     118  -178.64370   25.85453  -152.78917   0.00000    44   %  3.8438
    45.000     128  -173.03578   20.24817  -152.78761   0.00157    45   %  4.0386
    46.000     138  -184.97885   32.18938  -152.78947  -0.00027    46   %  4.1542
    47.000     148  -196.74514   43.95635  -152.78880   0.00044    47   %  4.2255
    48.000     158  -196.44722   43.65554  -152.79168  -0.00241    48   %  4.2955
    49.000     168  -186.32486   33.53186  -152.79300  -0.00371    49   %  4.3939
    50.000     178  -175.63153   22.84188  -152.78966  -0.00035    50   %  4.5266
    51.000     187  -169.65086   16.86145  -152.78940  -0.00008    51   %  4.6845
    52.000     195  -170.37597   17.58680  -152.78916   0.00017    52   %  4.8584
    53.000     205  -177.79665   25.00724  -152.78941  -0.00006    53   %  5.0460
    54.000     215  -189.61533   36.83150  -152.78383   0.00554    54   %  5.2518
    55.000     225  -198.69328   45.90613  -152.78716   0.00224    55   %  5.4797
    56.000     235  -195.40091   42.61061  -152.79029  -0.00086    56   %  5.7179
    57.000     245  -180.87998   28.09225  -152.78774   0.00172    57   %  5.9340
    58.000     255  -173.56484   20.77863  -152.78621   0.00326    58   %  6.0846
    59.000     265  -188.23194   35.44087  -152.79106  -0.00157    59   %  6.1494
    60.000     275  -200.36536   47.57595  -152.78941   0.00011    60   %  6.1686
    61.000     285  -199.05566   46.26334  -152.79232  -0.00277    61   %  6.1880
    62.000     295  -188.90743   36.11459  -152.79285  -0.00326    62   %  6.2362
    63.000     305  -179.36570   26.57564  -152.79006  -0.00046    63   %  6.3188
    64.000     313  -175.16783   22.37829  -152.78954   0.00008    64   %  6.4279
    65.000     322  -177.54552   24.75596  -152.78957   0.00007    65   %  6.5575
    66.000     332  -186.03300   33.25504  -152.77796   0.01169    66   %  6.7098
    67.000     342  -198.09541   45.30749  -152.78792   0.00176    67   %  6.8933
    68.000     352  -206.37477   53.58693  -152.78784   0.00188    68   %  7.1133
    69.000     362  -202.27187   49.48237  -152.78949   0.00026    69   %  7.3582
    70.000     372  -186.36418   33.57694  -152.78724   0.00254    70   %  7.5954
    71.000     382  -180.87381   28.09177  -152.78204   0.00776    71   %  7.7745
    72.000     392  -198.30165   45.50694  -152.79471  -0.00488    72   %  7.8801
    73.000     402  -208.72899   55.93780  -152.79119  -0.00133    73   %  7.9607
    74.000     412  -205.47615   52.68327  -152.79288  -0.00298    74   %  8.0549
    75.000     422  -194.69120   41.89914  -152.79207  -0.00213    75   %  8.1807
    76.000     432  -185.33611   32.54588  -152.79022  -0.00026    76   %  8.3371
    77.000     441  -181.49184   28.70204  -152.78980   0.00018    77   %  8.5154
    78.000     449  -184.60357   31.64683  -152.95674  -0.16674    78   %  8.7110
    79.000     458  -193.85859   41.06637  -152.79221  -0.00219    79   %  8.9265
    80.000     468  -206.13909   53.35115  -152.78794   0.00212    80   %  9.1688
    81.000     478  -212.62852   59.84034  -152.78819   0.00191    81   %  9.4405
    82.000     488  -205.18203   52.39256  -152.78947   0.00067    82   %  9.7259
    83.000     498  -188.75704   35.96434  -152.79269  -0.00253    83   %  9.9887
    84.000     508  -187.90435   35.11905  -152.78531   0.00489    84   % 10.1842
    85.000     518  -203.93240   51.14063  -152.79176  -0.00154    85   % 10.3083
    86.000     528  -212.51148   59.72011  -152.79136  -0.00110    86   % 10.3989
    87.000     538  -206.96925   54.17604  -152.79320  -0.00290    87   % 10.4897
    88.000     548  -194.71882   41.92655  -152.79227  -0.00193    88   % 10.5964
    89.000     558  -185.25052   32.45978  -152.79075  -0.00039    89   % 10.7178
    90.000     565  -182.24422   29.45526  -152.78896   0.00142    90   % 10.8474
    91.000     572  -186.89388   34.10454  -152.78934   0.00106    91   % 10.9831
    92.000     582  -197.72110   44.93234  -152.78876   0.00167    92   % 11.1308
    93.000     592  -209.55871   56.77103  -152.78767   0.00279    93   % 11.3010
    94.000     602  -211.84989   59.05960  -152.79030   0.00021    94   % 11.4950
    95.000     612  -200.32332   47.53560  -152.78772   0.00283    95   % 11.6907
    96.000     622  -186.63543   33.83957  -152.79586  -0.00528    96   % 11.8438
    97.000     632  -196.50668   43.71656  -152.79012   0.00048    97   % 11.9092
    98.000     642  -210.50985   57.71794  -152.79191  -0.00128    98   % 11.9092
    99.000     652  -211.76334   58.97037  -152.79297  -0.00229    99   % 11.8927
   100.000     662  -201.71333   48.92150  -152.79183  -0.00112   100   % 11.8970
   101.000     672  -189.62450   36.78555  -152.83895  -0.04821   101   % 11.9436
   102.000     680  -182.30914   29.51833  -152.79081  -0.00005   102   % 12.0369
   103.000     687  -181.79495   29.00497  -152.78998   0.00080   103   % 12.1765
   104.000     693  -188.24888   35.48614  -152.76274   0.02806   104   % 12.3655
   105.000     702  -200.09688   47.31058  -152.78630   0.00454   105   % 12.6105
   106.000     712  -210.55200   57.76382  -152.78818   0.00269   106   % 12.9095
   107.000     722  -210.47031   57.68021  -152.79010   0.00082   107   % 13.2405
   108.000     732  -198.40347   45.61367  -152.78980   0.00115   108   % 13.5643
   109.000     742  -189.71317   36.92167  -152.79149  -0.00052   109   % 13.8318
   110.000     752  -201.99357   49.20134  -152.79223  -0.00123   110   % 14.0171
   111.000     762  -214.35615   61.56505  -152.79110  -0.00006   111   % 14.1587
   112.000     772  -213.78089   60.98701  -152.79388  -0.00279   112   % 14.3035
   113.000     782  -201.76111   48.94434  -152.81677  -0.02564   113   % 14.4828
   114.000     792  -190.64937   37.85931  -152.79006   0.00110   114   % 14.7004
   115.000     800  -184.47641   31.68538  -152.79102   0.00016   115   % 14.9402
   116.000     807  -184.01186   31.22083  -152.79103   0.00017   116   % 15.1892
   117.000     816  -189.00172   36.21064  -152.79108   0.00014   117   % 15.4413
   118.000     826  -198.14804   45.37976  -152.76828   0.02297   118   % 15.6975
   119.000     836  -210.11788   57.31430  -152.80358  -0.01229   119   % 15.9628
   120.000     846  -212.68876   59.89890  -152.78986   0.00147   120   % 16.2373
   121.000     856  -202.99158   50.19613  -152.79545  -0.00408   121   % 16.5056
   122.000     866  -190.79160   37.99826  -152.79333  -0.00194   122   % 16.7440
   123.000     876  -193.08726   40.29899  -152.78827   0.00316   123   % 16.9371
   124.000     886  -206.60004   53.80970  -152.79034   0.00112   124   % 17.0952
   125.000     896  -213.93214   61.13853  -152.79361  -0.00211   125   % 17.2427
   126.000     906  -209.38083   56.60335  -152.77748   0.01406   126   % 17.3936
   127.000     916  -199.68231   46.89227  -152.79004   0.00154   127   % 17.5461
   128.000     926  -191.90883   39.11691  -152.79192  -0.00032   128   % 17.6924
   129.000     936  -185.14280   32.35115  -152.79165  -0.00002   129   % 17.8250
   130.000     945  -183.03558   30.24396  -152.79162   0.00003   130   % 17.9420
   131.000     955  -183.04139   30.24971  -152.79167  -0.00000   131   % 18.0465
   132.000     965  -184.88518   32.09345  -152.79173  -0.00004   132   % 18.1413
   133.000     975  -191.00732   38.21573  -152.79159   0.00013   133   % 18.2303
   134.000     985  -197.92276   45.12711  -152.79565  -0.00390   134   % 18.3178
   135.000     995  -206.65658   53.91861  -152.73797   0.05381   135   % 18.4068
   136.000    1005  -209.46999   56.68131  -152.78868   0.00314   136   % 18.5047
   137.000    1015  -199.27617   46.48657  -152.78960   0.00226   137   % 18.6176
   138.000    1025  -181.03793   28.24532  -152.79261  -0.00073   138   % 18.7403
   139.000    1035  -180.81673   28.03001  -152.78673   0.00517   139   % 18.8616
   140.000    1045  -197.74533   44.94977  -152.79556  -0.00364   140   % 18.9829
   141.000    1055  -205.57775   52.78329  -152.79446  -0.00250   141   % 19.1182
   142.000    1065  -199.77743   46.98585  -152.79159   0.00041   142   % 19.2735
   143.000    1075  -187.96404   35.17067  -152.79337  -0.00135   143   % 19.4429
   144.000    1085  -178.27083   25.47836  -152.79248  -0.00043   144   % 19.6165
   145.000    1095  -173.07337   20.28136  -152.79201   0.00004   145   % 19.7877
   146.000    1105  -172.47185   19.67987  -152.79198   0.00009   146   % 19.9519
   147.000    1115  -176.21916   23.42714  -152.79202   0.00007   147   % 20.1062
   148.000    1125  -183.69839   30.90599  -152.79240  -0.00029   148   % 20.2502
   149.000    1135  -193.89517   41.10649  -152.78868   0.00345   149   % 20.3880
   150.000    1145  -202.30139   49.51092  -152.79048   0.00169   150   % 20.5285
   151.000    1155  -200.69548   47.90443  -152.79104   0.00115   151   % 20.6812
   152.000    1165  -186.94456   34.15468  -152.78988   0.00235   152   % 20.8439
   153.000    1175  -173.21979   20.42503  -152.79476  -0.00252   153   % 20.9947
   154.000    1185  -181.70783   28.91503  -152.79280  -0.00054   154   % 21.1072
   155.000    1195  -194.96632   42.17258  -152.79375  -0.00146   155   % 21.1908
   156.000    1205  -197.38568   44.59055  -152.79513  -0.00282   156   % 21.2724
   157.000    1215  -188.90239   36.12466  -152.77773   0.01462   157   % 21.3697
   158.000    1225  -178.64694   25.83889  -152.80805  -0.01569   158   % 21.4857
   159.000    1235  -171.26653   18.47472  -152.79180   0.00058   159   % 21.6120
   160.000    1245  -168.01063   15.21755  -152.79308  -0.00069   160   % 21.7384
   161.000    1255  -169.03789   16.24475  -152.79313  -0.00073   161   % 21.8595
   162.000    1265  -174.26795   21.47521  -152.79274  -0.00032   162   % 21.9737
   163.000    1275  -183.00416   30.20234  -152.80181  -0.00938   163   % 22.0835
   164.000    1285  -194.70322   41.89862  -152.80460  -0.01214   164   % 22.1938
   165.000    1295  -199.68038   46.89015  -152.79023   0.00226   165   % 22.3093
   166.000    1305  -191.96538   39.17286  -152.79252   0.00000   166   % 22.4246
   167.000    1315  -177.70730   24.91253  -152.79478  -0.00223   167   % 22.5240
   168.000    1325  -176.59579   23.80668  -152.78911   0.00345   168   % 22.5953
   169.000    1335  -189.50925   36.71797  -152.79128   0.00130   169   % 22.6478
   170.000    1345  -197.32114   44.52682  -152.79432  -0.00171   170   % 22.7013
   171.000    1355  -193.02649   40.23522  -152.79128   0.00136   171   % 22.7624
   172.000    1365  -182.82839   30.00149  -152.82690  -0.03424   172   % 22.8218
   173.000    1375  -174.07265   21.27956  -152.79308  -0.00040   173   % 22.8690
   174.000    1385  -169.77452   16.98153  -152.79299  -0.00030   174   % 22.8974
   175.000    1395  -170.06754   17.27473  -152.79281  -0.00011   175   % 22.9056
   176.000    1405  -175.52463   22.73163  -152.79301  -0.00029   176   % 22.8953
   177.000    1415  -185.79748   33.02079  -152.77669   0.01605   177   % 22.8721
   178.000    1425  -196.35724   43.56748  -152.78977   0.00300   178   % 22.8458
   179.000    1435  -195.34224   42.55037  -152.79187   0.00092   179   % 22.8329
   180.000    1445  -181.33785   28.54896  -152.78889   0.00392   180   % 22.8435
   181.000    1455  -170.23197   17.43964  -152.79233   0.00051   181   % 22.8770
   182.000    1465  -184.43336   31.63563  -152.79772  -0.00487   182   % 22.9317
   183.000    1475  -197.39262   44.59682  -152.79580  -0.00292   183   % 23.0074
   184.000    1485  -197.18689   44.39057  -152.79633  -0.00342   184   % 23.1000
   185.000    1495  -187.56220   34.76535  -152.79685  -0.00391   185   % 23.1953
   186.000    1505  -177.06309   24.27119  -152.79189   0.00106   186   % 23.2755
   187.000    1515  -172.14817   19.35524  -152.79293   0.00004   187   % 23.3285
   188.000    1525  -173.39726   20.60439  -152.79287   0.00011   188   % 23.3490
   189.000    1535  -181.47904   28.69944  -152.77960   0.01340   189   % 23.3365
   190.000    1545  -192.80487   40.01329  -152.79159   0.00144   190   % 23.2963
   191.000    1555  -199.91754   47.12722  -152.79032   0.00274   191   % 23.2420
   192.000    1565  -194.10443   41.31336  -152.79107   0.00201   192   % 23.1902
   193.000    1575  -177.07056   24.27896  -152.79160   0.00151   193   % 23.1502
   194.000    1585  -173.10521   20.31728  -152.78793   0.00519   194   % 23.1248
   195.000    1595  -189.95551   37.15748  -152.79803  -0.00489   195   % 23.1133
   196.000    1605  -199.99022   47.19491  -152.79531  -0.00213   196   % 23.1092
   197.000    1615  -196.32646   43.52987  -152.79659  -0.00339   197   % 23.1025
   198.000    1625  -185.55141   32.76146  -152.78996   0.00327   198   % 23.0763
   199.000    1635  -176.33920   23.54569  -152.79351  -0.00026   199   % 23.0169
   200.000    1645  -173.71317   20.91996  -152.79322   0.00005   200   % 22.9170
   201.000    1655  -177.97105   25.17790  -152.79315   0.00013   201   % 22.7747
   202.000    1665  -189.14766   36.36779  -152.77987   0.01343   202   % 22.5936
   203.000    1675  -202.69639   49.90413  -152.79226   0.00107   203   % 22.3820
   204.000    1685  -209.43470   56.64349  -152.79121   0.00216   204   % 22.1606
   205.000    1695  -202.01675   49.22442  -152.79233   0.00108   205   % 21.9512
   206.000    1705  -187.02071   34.22499  -152.79571  -0.00228   206   % 21.7661
   207.000    1715  -189.13778   36.34877  -152.78901   0.00445   207   % 21.6082
   208.000    1725  -205.80948   53.01396  -152.79551  -0.00202   208   % 21.4773
   209.000    1735  -213.66491   60.86880  -152.79612  -0.00258   209   % 21.3759
   210.000    1745  -207.66608   54.87436  -152.79172   0.00185   210   % 21.3021
   211.000    1755  -194.70350   41.85478  -152.84872  -0.05511   211   % 21.2438
   212.000    1765  -185.28578   32.49260  -152.79318   0.00045   212   % 21.1889
   213.000    1775  -182.07101   29.27737  -152.79364   0.00002   213   % 21.1306
   214.000    1785  -185.29381   32.49946  -152.79435  -0.00067   214   % 21.0646
   215.000    1794  -195.27814   42.47000  -152.80815  -0.01445   215   % 20.9919
   216.000    1804  -210.24748   57.44274  -152.80473  -0.01100   216   % 20.9187
   217.000    1814  -217.07812   64.28649  -152.79163   0.00215   217   % 20.8605
   218.000    1824  -208.75435   55.96160  -152.79275   0.00107   218   % 20.8294
   219.000    1834  -191.62326   38.82483  -152.79843  -0.00458   219   % 20.8184
   220.000    1844  -191.96219   39.17341  -152.78878   0.00510   220   % 20.8062
   221.000    1854  -207.59436   54.79931  -152.79505  -0.00114   221   % 20.7866
   222.000    1864  -214.47506   61.67967  -152.79539  -0.00143   222   % 20.7729
   223.000    1874  -207.52128   54.73309  -152.78819   0.00580   223   % 20.7730
   224.000    1884  -193.88309   41.09859  -152.78450   0.00953   224   % 20.7785
   225.000    1894  -186.10706   33.31382  -152.79324   0.00081   225   % 20.7757
   226.000    1903  -184.49515   31.70125  -152.79390   0.00017   226   % 20.7563
   227.000    1911  -189.55654   36.76042  -152.79612  -0.00203   227   % 20.7179
   228.000    1921  -200.59142   47.80434  -152.78708   0.00704   228   % 20.6655
   229.000    1931  -213.95793   61.16260  -152.79533  -0.00117   229   % 20.6114
   230.000    1941  -216.15673   63.36360  -152.79313   0.00108   230   % 20.5709
   231.000    1951  -203.92557   51.13354  -152.79203   0.00222   231   % 20.5455
   232.000    1961  -188.52527   35.72773  -152.79754  -0.00326   232   % 20.5175
   233.000    1971  -196.89021   44.09773  -152.79248   0.00182   233   % 20.4677
   234.000    1981  -212.41878   59.62184  -152.79695  -0.00261   234   % 20.4089
   235.000    1991  -215.76476   62.96748  -152.79728  -0.00290   235   % 20.3656
   236.000    2001  -206.88275   54.09888  -152.78387   0.01056   236   % 20.3462
   237.000    2011  -194.22483   41.52736  -152.69747   0.09699   237   % 20.3421
   238.000    2021  -187.70443   34.91052  -152.79391   0.00057   238   % 20.3423
   239.000    2031  -187.04706   34.25247  -152.79459  -0.00009   239   % 20.3409
   240.000    2041  -192.15392   39.35476  -152.79916  -0.00463   240   % 20.3364
   241.000    2051  -202.55526   49.76384  -152.79142   0.00314   241   % 20.3324
   242.000    2061  -213.64818   60.85410  -152.79407   0.00053   242   % 20.3361
   243.000    2071  -214.41308   61.61929  -152.79379   0.00086   243   % 20.3593
   244.000    2081  -202.38097   49.58600  -152.79497  -0.00029   244   % 20.4062
   245.000    2091  -188.67632   35.87884  -152.79747  -0.00276   245   % 20.4724
   246.000    2101  -192.70058   39.90823  -152.79235   0.00239   246   % 20.5562
   247.000    2111  -205.63422   52.84031  -152.79391   0.00086   247   % 20.6557
   248.000    2121  -210.29384   57.49694  -152.79690  -0.00209   248   % 20.7630
   249.000    2131  -203.11709   50.32340  -152.79369   0.00116   249   % 20.8617
   250.000    2141  -191.92253   39.12853  -152.79400   0.00088   250   % 20.9329
   251.000    2151  -184.70180   31.90690  -152.79491  -0.00000   251   % 20.9671
   252.000    2161  -183.38105   30.58624  -152.79481   0.00012   252   % 20.9609
   253.000    2171  -188.44503   35.64963  -152.79540  -0.00045   253   % 20.9152
   254.000    2181  -198.67473   45.88127  -152.79346   0.00151   254   % 20.8352
   255.000    2191  -208.59577   55.80300  -152.79277   0.00224   255   % 20.7302
   256.000    2201  -207.94418   55.15017  -152.79401   0.00104   256   % 20.6194
   257.000    2211  -194.72050   41.92697  -152.79353   0.00155   257   % 20.5239
   258.000    2221  -181.83586   29.03911  -152.79674  -0.00164   258   % 20.4581
   259.000    2231  -189.36314   36.56872  -152.79442   0.00071   259   % 20.4298
   260.000    2241  -200.87384   48.07744  -152.79640  -0.00124   260   % 20.4344
   261.000    2251  -201.00738   48.20940  -152.79798  -0.00279   261   % 20.4660
   262.000    2261  -190.93978   38.14474  -152.79504   0.00018   262   % 20.5140
   263.000    2271  -179.09370   26.29907  -152.79463   0.00062   263   % 20.5638
   264.000    2280  -172.45467   19.65985  -152.79483   0.00043   264   % 20.6057
   265.000    2288  -172.48260   19.68718  -152.79542  -0.00015   265   % 20.6367
   266.000    2298  -178.87214   25.91422  -152.95792  -0.16263   266   % 20.6579
   267.000    2308  -190.12825   37.33760  -152.79065   0.00466   267   % 20.6738
   268.000    2318  -199.90188   47.10867  -152.79321   0.00213   268   % 20.6932
   269.000    2328  -199.82022   47.02639  -152.79383   0.00154   269   % 20.7288
   270.000    2338  -187.05285   34.26179  -152.79106   0.00435   270   % 20.7877
   271.000    2348  -174.45836   21.66225  -152.79611  -0.00069   271   % 20.8698
   272.000    2358  -185.79421   32.99510  -152.79911  -0.00367   272   % 20.9767
   273.000    2368  -198.81904   46.02232  -152.79672  -0.00125   273   % 21.1038
   274.000    2378  -199.57598   46.77747  -152.79852  -0.00302   274   % 21.2435
   275.000    2388  -189.70906   36.90781  -152.80125  -0.00572   275   % 21.3814
   276.000    2398  -178.74182   25.94789  -152.79393   0.00162   276   % 21.5024
   277.000    2408  -173.15021   20.35465  -152.79556   0.00001   277   % 21.5993
   278.000    2418  -173.83620   21.04076  -152.79544   0.00014   278   % 21.6700
   279.000    2428  -180.37229   27.57629  -152.79601  -0.00041   279   % 21.7150
   280.000    2438  -191.26018   38.46922  -152.79096   0.00466   280   % 21.7372
   281.000    2448  -200.65770   47.86474  -152.79297   0.00268   281   % 21.7434
   282.000    2458  -199.42562   46.63112  -152.79450   0.00118   282   % 21.7489
   283.000    2468  -186.02739   33.23327  -152.79413   0.00159   283   % 21.7707
   284.000    2478  -174.05856   21.26170  -152.79685  -0.00112   284   % 21.8223
   285.000    2488  -183.61982   30.82448  -152.79534   0.00041   285   % 21.9149
   286.000    2498  -198.55211   45.75566  -152.79646  -0.00068   286   % 22.0448
   287.000    2508  -201.78279   48.98434  -152.79845  -0.00264   287   % 22.2024
   288.000    2518  -192.67513   39.88125  -152.79388   0.00196   288   % 22.3724
   289.000    2528  -180.14303   27.39642  -152.74661   0.04925   289   % 22.5366
   290.000    2538  -172.41131   19.61549  -152.79583   0.00005   290   % 22.6837
   291.000    2548  -170.90255   18.10652  -152.79602  -0.00013   291   % 22.8072
   292.000    2558  -175.89789   23.09785  -152.80003  -0.00413   292   % 22.9022
   293.000    2568  -186.71904   33.93787  -152.78118   0.01475   293   % 22.9671
   294.000    2578  -196.48333   43.69009  -152.79324   0.00271   294   % 23.0052
   295.000    2588  -195.22988   42.43490  -152.79498   0.00100   295   % 23.0318
   296.000    2598  -181.15341   28.36129  -152.79212   0.00389   296   % 23.0633
   297.000    2608  -169.27277   16.47716  -152.79561   0.00041   297   % 23.1131
   298.000    2618  -182.46832   29.66934  -152.79898  -0.00295   298   % 23.1914
   299.000    2628  -196.09976   43.30303  -152.79673  -0.00066   299   % 23.2914
   300.000    2638  -196.51140   43.71253  -152.79886  -0.00277   300   % 23.4040



 **********************
 *                    *
 * JOB ENDED NORMALLY *
 *                    *
 **********************



 TOTAL JOB TIME:            81.18 SECONDS

 == MOPAC DONE ==
