 *******************************************************************************
 ** Site#: 37037        For non-commercial use only           Version 21.158W **
 *******************************************************************************
 ** Cite this program as: MOPAC2016, Version: 21.158W, James J. P. Stewart,   **
 ** Stewart Computational Chemistry, web: HTTP://OpenMOPAC.net. Days left: 364**
 *******************************************************************************
 **                                                                           **
 **                                MOPAC2016                                  **
 **                                                                           **
 *******************************************************************************

                              PM7 CALCULATION RESULTS

 *******************************************************************************
 *  CALCULATION DONE:                                Tue Jun  8 10:08:42 2021  *
 *  GEO-OK     - OVERRIDE INTERATOMIC DISTANCE AND OTHER SAFETY CHECKS
 *  1SCF       - DO 1 SCF AND THEN STOP 
 *  T=         - A TIME OF 172800.0 SECONDS REQUESTED
 *  DUMP=N     - RESTART FILE WRITTEN EVERY 7200.0 SECONDS REQUESTED
 *  HTML       - WRITE HTML SCRIPT TO READ PDB FILE USING JSMOL
 *******************************************************************************
 1scf HTML geo-ok
 Move the reactant and product nearer to the transition state
 (Bias=10.0 first)
   ATOM                 CHEMICAL                   X               Y               Z
  NUMBER                 SYMBOL               (ANGSTROMS)     (ANGSTROMS)     (ANGSTROMS)
 
     1       C(HETATM    1  C1  HET A   1)    0.43635318  *   1.64153252  *   0.91627660  *
     2       C(HETATM    2  C2  HET A   1)    1.75370543  *   1.39772753  *   0.51723156  *
     3       C(HETATM    3  C3  HET A   1)    2.42043993  *   2.38509325  *  -0.17704024  *
     4       C(HETATM    4  C4  HET A   1)    1.74160213  *   3.56114416  *  -0.47374488  *
     5       C(HETATM    5  C5  HET A   1)    0.41456170  *   3.77687968  *  -0.12418877  *
     6       C(HETATM    6  C6  HET A   1)   -0.26251178  *   2.79578653  *   0.57082246  *
     7       N(HETATM    7  N   HET B   1)   -0.22233827  *   0.68795152  *   1.79532118  *
     8       H(HETATM    8  H2  HET A   1)    2.25609406  *   0.43252077  *   0.62241512  *
     9       H(HETATM    9  H3  HET A   1)    3.46921912  *   2.22155550  *  -0.41152313  *
    10       H(HETATM   10  H4  HET A   1)    2.31605215  *   4.38495404  *  -0.86032112  *
    11       H(HETATM   11  H5  HET A   1)   -0.09708432  *   4.71748782  *  -0.29804529  *
    12       H(HETATM   12  H6  HET A   1)   -1.33329530  *   2.93325612  *   0.73570855  *
    13       O(HETATM   13  O1  HET D   1)    0.17417686  *  -0.47766401  *   1.81864673  *
    14       O(HETATM   14  O2  HET D   1)   -1.09870679  *   1.07293307  *   2.52116209  *
    15       O(HETATM   15  O   HOH E   2)   -2.52241518  *   0.55021061  *   0.22376429  *
    16       H(HETATM   16  H4  SO4 H   3)    0.14542423  *  -0.51490188  *   0.00282120  *
    17       H(HETATM   17 1H   HOH E   2)   -3.29711377  *   0.25003165  *   0.69435238  *
    18       H(HETATM   18 2H   HOH E   2)   -2.29406529  *  -0.15624787  *  -0.38213018  *
    19       S(HETATM   19  S   SO4 H   3)   -0.41300079  *  -2.12346381  *  -1.48212764  *
    20       O(HETATM   20  O1  SO4 H   3)   -0.79079235  *  -3.17179381  *  -0.59269034  *
    21       O(HETATM   21  O2  SO4 H   3)   -1.78787929  *  -1.20002773  *  -1.68123794  *
    22       O(HETATM   22  O3  SO4 H   3)    0.11934633  *  -2.35080700  *  -2.78931567  *
    23       O(HETATM   23  O4  SO4 H   3)    0.48353899  *  -0.97137981  *  -0.79251111  *
    24       H(HETATM   24  H2  SO4 H   3)   -1.98947182  *  -0.97079471  *  -2.59588095  *
 

 General Reference for PM7:
 "Optimization of Parameters for Semiempirical Methods VI: More Modifications to the 
 NDDO Approximations and Re-optimization of Parameters", J. J. P. Stewart, J. Mol. Mod., 1:32, 19 (2013)
 https://link.springer.com/article/10.1007/s00894-012-1667-x

           Empirical Formula: C6 H9 N O7 S  =    24 atoms



      MOLECULAR POINT GROUP   :   C1  


      RHF CALCULATION, NO. OF DOUBLY OCCUPIED LEVELS = 43


 -------------------------------------------------------------------------------
 1scf HTML geo-ok
 Move the reactant and product nearer to the transition state
 (Bias=10.0 first)


     1SCF WAS SPECIFIED, SO BFGS WAS NOT USED                 
     SCF FIELD WAS ACHIEVED                                   


                              PM7 CALCULATION
                                                       MOPAC2016 (Version: 21.158W)
                                                       Tue Jun  8 10:08:42 2021
                                                       No. of days remaining = 364




          FINAL HEAT OF FORMATION =       -223.92064 KCAL/MOL =    -936.88397 KJ/MOL


          TOTAL ENERGY            =      -3285.88144 EV
          ELECTRONIC ENERGY       =     -17868.58143 EV  POINT GROUP:     C1  
          CORE-CORE REPULSION     =      14582.69999 EV
          COSMO AREA              =        228.67 SQUARE ANGSTROMS
          COSMO VOLUME            =        245.44 CUBIC ANGSTROMS

          IONIZATION POTENTIAL    =         10.769266 EV
          HOMO LUMO ENERGIES (EV) =        -10.769 -1.340
          NO. OF FILLED LEVELS    =         43
          MOLECULAR WEIGHT        =        239.1996

          MOLECULAR DIMENSIONS (Angstroms)

            Atom       Atom       Distance
            O    20    H    10     8.17487
            O    14    O    22     5.91740
            H     9    H    17     4.62863


          SCF CALCULATIONS        =          1
 
          WALL-CLOCK TIME         =          0.066 SECONDS
          COMPUTATION TIME        =          0.203 SECONDS




   ATOM                 CHEMICAL                   X               Y               Z
  NUMBER                 SYMBOL               (ANGSTROMS)     (ANGSTROMS)     (ANGSTROMS)
 
     1       C(HETATM    1  C1  HET A   1)    0.43635318  *   1.64153252  *   0.91627660  *
     2       C(HETATM    2  C2  HET A   1)    1.75370543  *   1.39772753  *   0.51723156  *
     3       C(HETATM    3  C3  HET A   1)    2.42043993  *   2.38509325  *  -0.17704024  *
     4       C(HETATM    4  C4  HET A   1)    1.74160213  *   3.56114416  *  -0.47374488  *
     5       C(HETATM    5  C5  HET A   1)    0.41456170  *   3.77687968  *  -0.12418877  *
     6       C(HETATM    6  C6  HET A   1)   -0.26251178  *   2.79578653  *   0.57082246  *
     7       N(HETATM    7  N   HET B   1)   -0.22233827  *   0.68795152  *   1.79532118  *
     8       H(HETATM    8  H2  HET A   1)    2.25609406  *   0.43252077  *   0.62241512  *
     9       H(HETATM    9  H3  HET A   1)    3.46921912  *   2.22155550  *  -0.41152313  *
    10       H(HETATM   10  H4  HET A   1)    2.31605215  *   4.38495404  *  -0.86032112  *
    11       H(HETATM   11  H5  HET A   1)   -0.09708432  *   4.71748782  *  -0.29804529  *
    12       H(HETATM   12  H6  HET A   1)   -1.33329530  *   2.93325612  *   0.73570855  *
    13       O(HETATM   13  O1  HET D   1)    0.17417686  *  -0.47766401  *   1.81864673  *
    14       O(HETATM   14  O2  HET D   1)   -1.09870679  *   1.07293307  *   2.52116209  *
    15       O(HETATM   15  O   HOH E   2)   -2.52241518  *   0.55021061  *   0.22376429  *
    16       H(HETATM   16  H4  SO4 H   3)    0.14542423  *  -0.51490188  *   0.00282120  *
    17       H(HETATM   17 1H   HOH E   2)   -3.29711377  *   0.25003165  *   0.69435238  *
    18       H(HETATM   18 2H   HOH E   2)   -2.29406529  *  -0.15624787  *  -0.38213018  *
    19       S(HETATM   19  S   SO4 H   3)   -0.41300079  *  -2.12346381  *  -1.48212764  *
    20       O(HETATM   20  O1  SO4 H   3)   -0.79079235  *  -3.17179381  *  -0.59269034  *
    21       O(HETATM   21  O2  SO4 H   3)   -1.78787929  *  -1.20002773  *  -1.68123794  *
    22       O(HETATM   22  O3  SO4 H   3)    0.11934633  *  -2.35080700  *  -2.78931567  *
    23       O(HETATM   23  O4  SO4 H   3)    0.48353899  *  -0.97137981  *  -0.79251111  *
    24       H(HETATM   24  H2  SO4 H   3)   -1.98947182  *  -0.97079471  *  -2.59588095  *

                             CARTESIAN COORDINATES

   1    C        0.436353180     1.641532520     0.916276600
   2    C        1.753705430     1.397727530     0.517231560
   3    C        2.420439930     2.385093250    -0.177040240
   4    C        1.741602130     3.561144160    -0.473744880
   5    C        0.414561700     3.776879680    -0.124188770
   6    C       -0.262511780     2.795786530     0.570822460
   7    N       -0.222338270     0.687951520     1.795321180
   8    H        2.256094060     0.432520770     0.622415120
   9    H        3.469219120     2.221555500    -0.411523130
  10    H        2.316052150     4.384954040    -0.860321120
  11    H       -0.097084320     4.717487820    -0.298045290
  12    H       -1.333295300     2.933256120     0.735708550
  13    O        0.174176860    -0.477664010     1.818646730
  14    O       -1.098706790     1.072933070     2.521162090
  15    O       -2.522415180     0.550210610     0.223764290
  16    H        0.145424230    -0.514901880     0.002821200
  17    H       -3.297113770     0.250031650     0.694352380
  18    H       -2.294065290    -0.156247870    -0.382130180
  19    S       -0.413000790    -2.123463810    -1.482127640
  20    O       -0.790792350    -3.171793810    -0.592690340
  21    O       -1.787879290    -1.200027730    -1.681237940
  22    O        0.119346330    -2.350807000    -2.789315670
  23    O        0.483538990    -0.971379810    -0.792511110
  24    H       -1.989471820    -0.970794710    -2.595880950


           Empirical Formula: C6 H9 N O7 S  =    24 atoms



      MOLECULAR POINT GROUP   :   C1  


                  EIGENVALUES  
 -37.58423 -31.76314 -31.08818 -30.80124 -29.28475 -29.00510 -28.73243 -28.40324
 -27.73336 -27.10333 -24.75954 -21.93327 -21.60928 -21.06353 -19.59290 -18.96031
 -18.01306 -17.88048 -17.53697 -17.14688 -16.79711 -16.04724 -15.75863 -15.71628
 -15.23685 -15.18548 -14.53463 -14.34331 -13.95157 -13.45934 -13.31350 -13.16698
 -13.01464 -12.85619 -12.64709 -12.19932 -12.08399 -12.04829 -11.52790 -11.46705
 -11.28965 -10.82453 -10.76927  -1.33976  -0.61416  -0.16567   0.24531   0.59651
   1.67224   2.14916   2.79876   3.14082   3.29149   3.37641   3.98362   3.99289
   4.04989   4.16388   4.29573   4.32335   4.41464   4.57112   4.83268   4.88918
   5.04658   5.07910   5.36972   5.40004   5.42397   5.52715   5.57517   5.96086
   6.47086   6.90563


              NET ATOMIC CHARGES AND DIPOLE CONTRIBUTIONS

  ATOM NO.                 TYPE                        CHARGE      No. of ELECS.   s-Pop       p-Pop       d-Pop       
    1          C(HETATM    1  C1  HET A   1)          -0.089482        4.0895     1.07539     3.01409
    2          C(HETATM    2  C2  HET A   1)          -0.082233        4.0822     1.08990     2.99233
    3          C(HETATM    3  C3  HET A   1)          -0.172100        4.1721     1.08086     3.09124
    4          C(HETATM    4  C4  HET A   1)          -0.087644        4.0876     1.08454     3.00310
    5          C(HETATM    5  C5  HET A   1)          -0.180289        4.1803     1.08024     3.10005
    6          C(HETATM    6  C6  HET A   1)          -0.065595        4.0656     1.09177     2.97383
    7          N(HETATM    7  N   HET B   1)           0.631297        4.3687     1.45075     2.91795
    8          H(HETATM    8  H2  HET A   1)           0.192248        0.8078     0.80775
    9          H(HETATM    9  H3  HET A   1)           0.166554        0.8334     0.83345
   10          H(HETATM   10  H4  HET A   1)           0.153915        0.8461     0.84609
   11          H(HETATM   11  H5  HET A   1)           0.167131        0.8329     0.83287
   12          H(HETATM   12  H6  HET A   1)           0.193616        0.8064     0.80638
   13          O(HETATM   13  O1  HET D   1)          -0.464423        6.4644     1.94269     4.52173
   14          O(HETATM   14  O2  HET D   1)          -0.333049        6.3330     1.93620     4.39685
   15          O(HETATM   15  O   HOH E   2)          -0.720296        6.7203     1.80945     4.91084
   16          H(HETATM   16  H4  SO4 H   3)           0.411916        0.5881     0.58808
   17          H(HETATM   17 1H   HOH E   2)           0.344673        0.6553     0.65533
   18          H(HETATM   18 2H   HOH E   2)           0.360243        0.6398     0.63976
   19          S(HETATM   19  S   SO4 H   3)           2.587233        3.4128     1.10805     1.80138     0.50334
   20          O(HETATM   20  O1  SO4 H   3)          -0.835323        6.8353     1.89168     4.94364
   21          O(HETATM   21  O2  SO4 H   3)          -0.873623        6.8736     1.84077     5.03285
   22          O(HETATM   22  O3  SO4 H   3)          -0.874270        6.8743     1.89105     4.98322
   23          O(HETATM   23  O4  SO4 H   3)          -0.829663        6.8297     1.83467     4.99499
   24          H(HETATM   24  H2  SO4 H   3)           0.399163        0.6008     0.60084

          NET CHARGE ON RESIDUES

      Residue         Charge  Anion or
                              Cation?
      HET A   1       +0.196
      HET B   1       +0.631  CATION
      HET D   1       -0.797  ANION
      SO4 H   3       -0.015
 


                   No Salt Bridges Found


 DIPOLE           X         Y         Z       TOTAL
 POINT-CHG.     0.944     4.965    -2.288     5.547
 HYBRID        -0.525    -0.136     0.251     0.597
 SUM            0.420     4.829    -2.037     5.258


          ATOMIC ORBITAL ELECTRON POPULATIONS

                   Atom                  s        px        py        pz      x^2-y^2     xz        z^2       yz        xy
   C(HETATM    1  C1  HET A   1)   1.07539   0.99080   0.96883   1.05445
   C(HETATM    2  C2  HET A   1)   1.08990   0.97322   1.06735   0.95177
   C(HETATM    3  C3  HET A   1)   1.08086   1.08211   0.99668   1.01245
   C(HETATM    4  C4  HET A   1)   1.08454   1.00344   1.03495   0.96471
   C(HETATM    5  C5  HET A   1)   1.08024   1.01326   1.07056   1.01623
   C(HETATM    6  C6  HET A   1)   1.09177   1.08390   0.94844   0.94148
   N(HETATM    7  N   HET B   1)   1.45075   0.96073   0.98416   0.97307
   H(HETATM    8  H2  HET A   1)   0.80775
   H(HETATM    9  H3  HET A   1)   0.83345
   H(HETATM   10  H4  HET A   1)   0.84609
   H(HETATM   11  H5  HET A   1)   0.83287
   H(HETATM   12  H6  HET A   1)   0.80638
   O(HETATM   13  O1  HET D   1)   1.94269   1.67974   1.08259   1.75940
   O(HETATM   14  O2  HET D   1)   1.93620   1.23230   1.79344   1.37111
   O(HETATM   15  O   HOH E   2)   1.80945   1.61901   1.60466   1.68718
   H(HETATM   16  H4  SO4 H   3)   0.58808
   H(HETATM   17 1H   HOH E   2)   0.65533
   H(HETATM   18 2H   HOH E   2)   0.63976
   S(HETATM   19  S   SO4 H   3)   1.10805   0.58193   0.60291   0.61654   0.05609   0.09359   0.12345   0.13407   0.09614
   O(HETATM   20  O1  SO4 H   3)   1.89168   1.76392   1.54991   1.62981
   O(HETATM   21  O2  SO4 H   3)   1.84077   1.68868   1.82839   1.51578
   O(HETATM   22  O3  SO4 H   3)   1.89105   1.75245   1.81666   1.41411
   O(HETATM   23  O4  SO4 H   3)   1.83467   1.69043   1.67558   1.62898
   H(HETATM   24  H2  SO4 H   3)   0.60084

 **********************
 *                    *
 * JOB ENDED NORMALLY *
 *                    *
 **********************



 TOTAL JOB TIME:             0.10 SECONDS

 == MOPAC DONE ==
