 *******************************************************************************
 ** Site#: 37037        For non-commercial use only           Version 21.158W **
 *******************************************************************************
 ** Cite this program as: MOPAC2016, Version: 21.158W, James J. P. Stewart,   **
 ** Stewart Computational Chemistry, web: HTTP://OpenMOPAC.net. Days left: 364**
 *******************************************************************************
 **                                                                           **
 **                                MOPAC2016                                  **
 **                                                                           **
 *******************************************************************************

                              PM7 CALCULATION RESULTS

 *******************************************************************************
 *  CALCULATION DONE:                                Tue Jun  8 10:51:32 2021  *
 *  TS         - USE EF ROUTINE FOR TS SEARCH
 *  T=         - A TIME OF 172800.0 SECONDS REQUESTED
 *  DUMP=N     - RESTART FILE WRITTEN EVERY 7200.0 SECONDS REQUESTED
 *  HTML       - WRITE HTML SCRIPT TO READ PDB FILE USING JSMOL
 *******************************************************************************
 HTML TS
 Refine the transition state

   ATOM                 CHEMICAL                   X               Y               Z
  NUMBER                 SYMBOL               (ANGSTROMS)     (ANGSTROMS)     (ANGSTROMS)
 
     1       C(HETATM    1  C1  HET A   1)    0.34345661  *   1.41868324  *   0.07818805  *
     2       C(HETATM    2  C2  HET A   1)    1.75673197  *   1.33622440  *   0.05085717  *
     3       C(HETATM    3  C3  HET A   1)    2.52028964  *   2.49839922  *   0.00428902  *
     4       C(HETATM    4  C4  HET A   1)    1.89301050  *   3.74379822  *  -0.00609215  *
     5       C(HETATM    5  C5  HET A   1)    0.49479330  *   3.83891626  *  -0.04405869  *
     6       C(HETATM    6  C6  HET A   1)   -0.27625181  *   2.69011591  *  -0.03140213  *
     7       N(HETATM    7  N   HET B   1)   -0.34502247  *   0.59819032  *   1.62933176  *
     8       H(HETATM    8  H2  HET A   1)    2.22811707  *   0.34222123  *   0.03571463  *
     9       H(HETATM    9  H3  HET A   1)    3.60891843  *   2.43680687  *  -0.01814287  *
    10       H(HETATM   10  H4  HET A   1)    2.49415441  *   4.65893061  *   0.01000686  *
    11       H(HETATM   11  H5  HET A   1)    0.02416713  *   4.82218042  *  -0.06922246  *
    12       H(HETATM   12  H6  HET A   1)   -1.37015796  *   2.74298775  *  -0.06965597  *
    13       O(HETATM   13  O1  HET D   1)   -0.06177907  *  -0.52463670  *   1.69272540  *
    14       O(HETATM   14  O2  HET D   1)   -0.86417426  *   1.46400806  *   2.23138146  *
    15       O(HETATM   15  O   HOH E   2)   -2.49550428  *   0.32565212  *   0.55223089  *
    16       H(HETATM   16  H4  SO4 H   3)   -0.13718856  *   0.49089386  *  -0.55811218  *
    17       H(HETATM   17 1H   HOH E   2)   -3.41061872  *   0.22726870  *   0.78484195  *
    18       H(HETATM   18 2H   HOH E   2)   -2.33034426  *  -0.35997020  *  -0.13625195  *
    19       S(HETATM   19  S   SO4 H   3)   -0.40587578  *  -2.22141215  *  -1.16823515  *
    20       O(HETATM   20  O1  SO4 H   3)   -0.50504513  *  -3.25655758  *  -0.16016454  *
    21       O(HETATM   21  O2  SO4 H   3)   -1.98995920  *  -1.54877800  *  -1.28949643  *
    22       O(HETATM   22  O3  SO4 H   3)   -0.13456483  *  -2.57941921  *  -2.54682742  *
    23       O(HETATM   23  O4  SO4 H   3)    0.30896925  *  -0.98064503  *  -0.68995838  *
    24       H(HETATM   24  H2  SO4 H   3)   -2.33403901  *  -1.49761232  *  -2.17938300  *
 

 General Reference for PM7:
 "Optimization of Parameters for Semiempirical Methods VI: More Modifications to the 
 NDDO Approximations and Re-optimization of Parameters", J. J. P. Stewart, J. Mol. Mod., 1:32, 19 (2013)
 https://link.springer.com/article/10.1007/s00894-012-1667-x

           Empirical Formula: C6 H9 N O7 S  =    24 atoms



      MOLECULAR POINT GROUP   :   C1  


      RHF CALCULATION, NO. OF DOUBLY OCCUPIED LEVELS = 43


          Transition state refinement using EF

          HESSIAN CALCULATED NUMERICALLY

 CYCLE:     1 TIME:   1.312 TIME LEFT:  2.00D  GRAD.:    13.529 HEAT: -152.0924
 CYCLE:     2 TIME:   0.031 TIME LEFT:  2.00D  GRAD.:     6.227 HEAT: -152.2532
 CYCLE:     3 TIME:   0.016 TIME LEFT:  2.00D  GRAD.:     3.505 HEAT: -152.5996
 CYCLE:     4 TIME:   0.031 TIME LEFT:  2.00D  GRAD.:     8.975 HEAT: -152.8754
 CYCLE:     5 TIME:   0.031 TIME LEFT:  2.00D  GRAD.:    16.027 HEAT: -152.8948
 CYCLE:     6 TIME:   0.016 TIME LEFT:  2.00D  GRAD.:    23.223 HEAT: -152.9180
 CYCLE:     7 TIME:   0.031 TIME LEFT:  2.00D  GRAD.:     9.284 HEAT: -153.0255
 CYCLE:     8 TIME:   0.031 TIME LEFT:  2.00D  GRAD.:     8.723 HEAT: -153.0453
 CYCLE:     9 TIME:   0.031 TIME LEFT:  2.00D  GRAD.:     7.384 HEAT: -153.0553
 CYCLE:    10 TIME:   0.047 TIME LEFT:  2.00D  GRAD.:     5.966 HEAT: -153.0660
 CYCLE:    11 TIME:   0.016 TIME LEFT:  2.00D  GRAD.:     5.215 HEAT: -153.0721
 CYCLE:    12 TIME:   0.031 TIME LEFT:  2.00D  GRAD.:     6.107 HEAT: -153.0736
 CYCLE:    13 TIME:   0.016 TIME LEFT:  2.00D  GRAD.:     5.752 HEAT: -153.0759
 CYCLE:    14 TIME:   0.047 TIME LEFT:  2.00D  GRAD.:     4.089 HEAT: -153.0790
 CYCLE:    15 TIME:   0.016 TIME LEFT:  2.00D  GRAD.:     2.282 HEAT: -153.0811
 CYCLE:    16 TIME:   0.016 TIME LEFT:  2.00D  GRAD.:     1.633 HEAT: -153.0823
 CYCLE:    17 TIME:   0.031 TIME LEFT:  2.00D  GRAD.:     1.006 HEAT: -153.0840
 CYCLE:    18 TIME:   0.016 TIME LEFT:  2.00D  GRAD.:     1.366 HEAT: -153.0853
 CYCLE:    19 TIME:   0.016 TIME LEFT:  2.00D  GRAD.:     2.118 HEAT: -153.0858
 CYCLE:    20 TIME:   0.031 TIME LEFT:  2.00D  GRAD.:     1.390 HEAT: -153.0874
 CYCLE:    21 TIME:   0.016 TIME LEFT:  2.00D  GRAD.:     1.956 HEAT: -153.0841
 CYCLE:    22 TIME:   0.031 TIME LEFT:  2.00D  GRAD.:     0.845 HEAT: -153.0890

     GRADIENT =  0.84472 IS LESS THAN CUTOFF =  1.00000



 -------------------------------------------------------------------------------
 HTML TS
 Refine the transition state



     GEOMETRY OPTIMISED USING EIGENVECTOR FOLLOWING (TS).     
     SCF FIELD WAS ACHIEVED                                   


                              PM7 CALCULATION
                                                       MOPAC2016 (Version: 21.158W)
                                                       Tue Jun  8 10:51:34 2021
                                                       No. of days remaining = 364




          FINAL HEAT OF FORMATION =       -153.08904 KCAL/MOL =    -640.52452 KJ/MOL


          TOTAL ENERGY            =      -3282.98789 EV
          ELECTRONIC ENERGY       =     -18012.07798 EV  POINT GROUP:     C1  
          CORE-CORE REPULSION     =      14729.09010 EV
          COSMO AREA              =        224.91 SQUARE ANGSTROMS
          COSMO VOLUME            =        240.42 CUBIC ANGSTROMS

          GRADIENT NORM           =          0.84472 = 0.17243 PER ATOM
          IONIZATION POTENTIAL    =          9.875304 EV
          HOMO LUMO ENERGIES (EV) =         -9.875 -3.380
          NO. OF FILLED LEVELS    =         43
          MOLECULAR WEIGHT        =        239.1996

          MOLECULAR DIMENSIONS (Angstroms)

            Atom       Atom       Distance
            O    20    H    10     8.41929
            H     9    H    17     5.86844
            O    22    O    14     4.54925


          SCF CALCULATIONS        =         97
 
          WALL-CLOCK TIME         =          1.906 SECONDS
          COMPUTATION TIME        =          7.484 SECONDS




   ATOM                 CHEMICAL                   X               Y               Z
  NUMBER                 SYMBOL               (ANGSTROMS)     (ANGSTROMS)     (ANGSTROMS)
 
     1       C(HETATM    1  C1  HET A   1)    0.21268433  *   1.44967048  *   0.00729602  *
     2       C(HETATM    2  C2  HET A   1)    1.62440052  *   1.28728958  *   0.04066694  *
     3       C(HETATM    3  C3  HET A   1)    2.44811623  *   2.40579071  *   0.07553241  *
     4       C(HETATM    4  C4  HET A   1)    1.88827696  *   3.68181229  *   0.05080749  *
     5       C(HETATM    5  C5  HET A   1)    0.49544117  *   3.86206075  *  -0.01800103  *
     6       C(HETATM    6  C6  HET A   1)   -0.33823707  *   2.76414073  *  -0.04558722  *
     7       N(HETATM    7  N   HET B   1)   -0.36472538  *   0.66196373  *   1.65144149  *
     8       H(HETATM    8  H2  HET A   1)    2.03376892  *   0.25987127  *   0.01400890  *
     9       H(HETATM    9  H3  HET A   1)    3.53138935  *   2.28632854  *   0.10421076  *
    10       H(HETATM   10  H4  HET A   1)    2.53906730  *   4.56138367  *   0.07859132  *
    11       H(HETATM   11  H5  HET A   1)    0.08671674  *   4.87180433  *  -0.05606095  *
    12       H(HETATM   12  H6  HET A   1)   -1.42834146  *   2.86821912  *  -0.09865277  *
    13       O(HETATM   13  O1  HET D   1)   -0.24177623  *  -0.48586282  *   1.60779388  *
    14       O(HETATM   14  O2  HET D   1)   -0.66479701  *   1.55973640  *   2.34683990  *
    15       O(HETATM   15  O   HOH E   2)   -2.41886720  *   0.49510080  *   0.44454494  *
    16       H(HETATM   16  H4  SO4 H   3)   -0.33260742  *   0.64530715  *  -0.60761010  *
    17       H(HETATM   17 1H   HOH E   2)   -3.32890642  *   0.40078170  *   0.69802874  *
    18       H(HETATM   18 2H   HOH E   2)   -2.24408058  *  -0.28130578  *  -0.15933813  *
    19       S(HETATM   19  S   SO4 H   3)   -0.32546285  *  -2.26646280  *  -1.19686120  *
    20       O(HETATM   20  O1  SO4 H   3)   -0.30210615  *  -3.35760624  *  -0.24042004  *
    21       O(HETATM   21  O2  SO4 H   3)   -1.94365489  *  -1.62777717  *  -1.10804085  *
    22       O(HETATM   22  O3  SO4 H   3)   -0.23613235  *  -2.57107027  *  -2.61652390  *
    23       O(HETATM   23  O4  SO4 H   3)    0.40738320  *  -1.04858346  *  -0.74051461  *
    24       H(HETATM   24  H2  SO4 H   3)   -2.44161374  *  -1.72838575  *  -1.91447029  *

                             CARTESIAN COORDINATES

   1    C        0.212684333     1.449670476     0.007296019
   2    C        1.624400521     1.287289576     0.040666942
   3    C        2.448116233     2.405790713     0.075532412
   4    C        1.888276958     3.681812293     0.050807485
   5    C        0.495441168     3.862060746    -0.018001034
   6    C       -0.338237065     2.764140730    -0.045587224
   7    N       -0.364725381     0.661963727     1.651441494
   8    H        2.033768920     0.259871266     0.014008902
   9    H        3.531389354     2.286328544     0.104210764
  10    H        2.539067297     4.561383671     0.078591318
  11    H        0.086716738     4.871804327    -0.056060950
  12    H       -1.428341464     2.868219120    -0.098652767
  13    O       -0.241776232    -0.485862817     1.607793877
  14    O       -0.664797014     1.559736400     2.346839898
  15    O       -2.418867198     0.495100798     0.444544937
  16    H       -0.332607417     0.645307149    -0.607610100
  17    H       -3.328906423     0.400781698     0.698028738
  18    H       -2.244080584    -0.281305780    -0.159338128
  19    S       -0.325462849    -2.266462805    -1.196861201
  20    O       -0.302106155    -3.357606239    -0.240420037
  21    O       -1.943654890    -1.627777166    -1.108040854
  22    O       -0.236132346    -2.571070272    -2.616523901
  23    O        0.407383202    -1.048583459    -0.740514612
  24    H       -2.441613736    -1.728385751    -1.914470289


           Empirical Formula: C6 H9 N O7 S  =    24 atoms



      MOLECULAR POINT GROUP   :   C1  


                  EIGENVALUES  
 -39.41036 -35.26614 -31.82611 -29.09826 -28.36912 -27.53833 -27.25208 -26.58964
 -26.14271 -25.74051 -25.39010 -22.36964 -22.19052 -19.92532 -19.69984 -19.51902
 -18.70792 -17.96542 -17.74296 -16.59476 -16.38035 -15.78321 -15.60890 -15.38417
 -14.68144 -14.26290 -13.81471 -13.51957 -13.45646 -13.42717 -13.09973 -12.99276
 -12.84309 -12.38736 -11.63853 -11.25105 -11.02402 -10.97382 -10.89525 -10.70662
 -10.37369 -10.17054  -9.87530  -3.38001  -1.24300  -1.11073  -0.91512   0.51849
   1.24010   2.20566   2.91783   3.08931   3.53880   3.56175   3.76079   3.82619
   4.08142   4.12200   4.51249   4.61567   4.74877   4.94279   5.02581   5.14313
   5.37340   5.59095   5.64413   6.35800   6.91302   6.97265   7.05064   7.50681
   8.35834   8.55705


              NET ATOMIC CHARGES AND DIPOLE CONTRIBUTIONS

  ATOM NO.                 TYPE                        CHARGE      No. of ELECS.   s-Pop       p-Pop       d-Pop       
    1          C(HETATM    1  C1  HET A   1)          -0.326194        4.3262     1.12358     3.20262
    2          C(HETATM    2  C2  HET A   1)           0.069296        3.9307     1.12713     2.80358
    3          C(HETATM    3  C3  HET A   1)          -0.281327        4.2813     1.08401     3.19732
    4          C(HETATM    4  C4  HET A   1)           0.030641        3.9694     1.10835     2.86101
    5          C(HETATM    5  C5  HET A   1)          -0.261716        4.2617     1.08332     3.17840
    6          C(HETATM    6  C6  HET A   1)           0.020014        3.9800     1.11308     2.86691
    7          N(HETATM    7  N   HET B   1)           0.667569        4.3324     1.47868     2.85375
    8          H(HETATM    8  H2  HET A   1)           0.218177        0.7818     0.78182
    9          H(HETATM    9  H3  HET A   1)           0.174729        0.8253     0.82527
   10          H(HETATM   10  H4  HET A   1)           0.158046        0.8420     0.84195
   11          H(HETATM   11  H5  HET A   1)           0.172980        0.8270     0.82702
   12          H(HETATM   12  H6  HET A   1)           0.178957        0.8210     0.82104
   13          O(HETATM   13  O1  HET D   1)           0.037103        5.9629     1.93175     4.03115
   14          O(HETATM   14  O2  HET D   1)          -0.202658        6.2027     1.93337     4.26928
   15          O(HETATM   15  O   HOH E   2)          -0.793752        6.7938     1.81943     4.97432
   16          H(HETATM   16  H4  SO4 H   3)           0.316750        0.6833     0.68325
   17          H(HETATM   17 1H   HOH E   2)           0.349593        0.6504     0.65041
   18          H(HETATM   18 2H   HOH E   2)           0.412040        0.5880     0.58796
   19          S(HETATM   19  S   SO4 H   3)           2.642643        3.3574     1.10033     1.78888     0.46815
   20          O(HETATM   20  O1  SO4 H   3)          -0.945614        6.9456     1.89683     5.04878
   21          O(HETATM   21  O2  SO4 H   3)          -0.946440        6.9464     1.84569     5.10075
   22          O(HETATM   22  O3  SO4 H   3)          -0.968374        6.9684     1.89758     5.07079
   23          O(HETATM   23  O4  SO4 H   3)          -1.100734        7.1007     1.90351     5.19723
   24          H(HETATM   24  H2  SO4 H   3)           0.378272        0.6217     0.62173

          NET CHARGE ON RESIDUES

      Residue         Charge  Anion or
                              Cation?
      HET A   1       +0.470
      HET B   1       +0.668  CATION
      HET D   1       -0.166
      SO4 H   3       -0.940  ANION
 


                   No Salt Bridges Found


 DIPOLE           X         Y         Z       TOTAL
 POINT-CHG.     1.093    10.998     5.035    12.145
 HYBRID        -0.369     0.373    -0.313     0.611
 SUM            0.725    11.371     4.723    12.334


          ATOMIC ORBITAL ELECTRON POPULATIONS

                   Atom                  s        px        py        pz      x^2-y^2     xz        z^2       yz        xy
   C(HETATM    1  C1  HET A   1)   1.12358   1.04842   1.07544   1.07876
   C(HETATM    2  C2  HET A   1)   1.12713   0.98590   1.07958   0.73810
   C(HETATM    3  C3  HET A   1)   1.08401   1.10712   0.99784   1.09235
   C(HETATM    4  C4  HET A   1)   1.10835   1.01351   1.04677   0.80072
   C(HETATM    5  C5  HET A   1)   1.08332   1.00604   1.09141   1.08095
   C(HETATM    6  C6  HET A   1)   1.11308   1.08938   0.97734   0.80019
   N(HETATM    7  N   HET B   1)   1.47868   0.93133   0.98119   0.94123
   H(HETATM    8  H2  HET A   1)   0.78182
   H(HETATM    9  H3  HET A   1)   0.82527
   H(HETATM   10  H4  HET A   1)   0.84195
   H(HETATM   11  H5  HET A   1)   0.82702
   H(HETATM   12  H6  HET A   1)   0.82104
   O(HETATM   13  O1  HET D   1)   1.93175   1.50506   0.88259   1.64350
   O(HETATM   14  O2  HET D   1)   1.93337   1.55496   1.32720   1.38712
   O(HETATM   15  O   HOH E   2)   1.81943   1.48508   1.68929   1.79995
   H(HETATM   16  H4  SO4 H   3)   0.68325
   H(HETATM   17 1H   HOH E   2)   0.65041
   H(HETATM   18 2H   HOH E   2)   0.58796
   S(HETATM   19  S   SO4 H   3)   1.10033   0.56820   0.60498   0.61569   0.06328   0.06248   0.13004   0.13603   0.07633
   O(HETATM   20  O1  SO4 H   3)   1.89683   1.83330   1.57590   1.63959
   O(HETATM   21  O2  SO4 H   3)   1.84569   1.60804   1.90264   1.59007
   O(HETATM   22  O3  SO4 H   3)   1.89758   1.84024   1.84243   1.38812
   O(HETATM   23  O4  SO4 H   3)   1.90351   1.76315   1.57450   1.85957
   H(HETATM   24  H2  SO4 H   3)   0.62173
 *******************************************************************************
 ** Site#: 37037        For non-commercial use only           Version 21.158W **
 *******************************************************************************
 ** Cite this program as: MOPAC2016, Version: 21.158W, James J. P. Stewart,   **
 ** Stewart Computational Chemistry, web: HTTP://OpenMOPAC.net. Days left: 364**
 *******************************************************************************
 **                                                                           **
 **                                MOPAC2016                                  **
 **                                                                           **
 *******************************************************************************

                              PM7 CALCULATION RESULTS

 *******************************************************************************
 *  CALCULATION DONE:                                Tue Jun  8 10:51:34 2021  *
 *  IRC=N      - INTRINSIC REACTION COORDINATE -1 DEFINED
 *  DRC        - DYNAMIC REACTION COORDINATE CALCULATION
 *  OLDGEO     - PREVIOUS GEOMETRY TO BE USED
 *  T=         - A TIME OF 172800.0 SECONDS REQUESTED
 *  DUMP=N     - RESTART FILE WRITTEN EVERY 7200.0 SECONDS REQUESTED
 *  CYCLES=    - DO A MAXIMUM OF 200 STEPS
 *  HTML       - WRITE HTML SCRIPT TO GENERATE ANIMATION USING JSMOL
 *             - TO DISPLAY IN PDB FORMAT, ADD "PDBOUT"
 *  T-PRIOR    - TIME TAKES PRIORITY IN DRC
 *******************************************************************************
oldgeo HTML IRC=-1* T-priority=1 cycles=200 DRC
 IRC for the reaction:   Benzene + [NO2](+) +[HSO4](-) <=> Nitrobenzene + H2SO4 + H2O

   ATOM                 CHEMICAL                   X               Y               Z
  NUMBER                 SYMBOL               (ANGSTROMS)     (ANGSTROMS)     (ANGSTROMS)
 
     1       C(HETATM    1  C1  HET A   1)    0.21268433  *   1.44967048  *   0.00729602  *
     2       C(HETATM    2  C2  HET A   1)    1.62440052  *   1.28728958  *   0.04066694  *
     3       C(HETATM    3  C3  HET A   1)    2.44811623  *   2.40579071  *   0.07553241  *
     4       C(HETATM    4  C4  HET A   1)    1.88827696  *   3.68181229  *   0.05080749  *
     5       C(HETATM    5  C5  HET A   1)    0.49544117  *   3.86206075  *  -0.01800103  *
     6       C(HETATM    6  C6  HET A   1)   -0.33823707  *   2.76414073  *  -0.04558722  *
     7       N(HETATM    7  N   HET B   1)   -0.36472538  *   0.66196373  *   1.65144149  *
     8       H(HETATM    8  H2  HET A   1)    2.03376892  *   0.25987127  *   0.01400890  *
     9       H(HETATM    9  H3  HET A   1)    3.53138935  *   2.28632854  *   0.10421076  *
    10       H(HETATM   10  H4  HET A   1)    2.53906730  *   4.56138367  *   0.07859132  *
    11       H(HETATM   11  H5  HET A   1)    0.08671674  *   4.87180433  *  -0.05606095  *
    12       H(HETATM   12  H6  HET A   1)   -1.42834146  *   2.86821912  *  -0.09865277  *
    13       O(HETATM   13  O1  HET D   1)   -0.24177623  *  -0.48586282  *   1.60779388  *
    14       O(HETATM   14  O2  HET D   1)   -0.66479701  *   1.55973640  *   2.34683990  *
    15       O(HETATM   15  O   HOH E   2)   -2.41886720  *   0.49510080  *   0.44454494  *
    16       H(HETATM   16  H4  SO4 H   3)   -0.33260742  *   0.64530715  *  -0.60761010  *
    17       H(HETATM   17 1H   HOH E   2)   -3.32890642  *   0.40078170  *   0.69802874  *
    18       H(HETATM   18 2H   HOH E   2)   -2.24408058  *  -0.28130578  *  -0.15933813  *
    19       S(HETATM   19  S   SO4 H   3)   -0.32546285  *  -2.26646280  *  -1.19686120  *
    20       O(HETATM   20  O1  SO4 H   3)   -0.30210615  *  -3.35760624  *  -0.24042004  *
    21       O(HETATM   21  O2  SO4 H   3)   -1.94365489  *  -1.62777717  *  -1.10804085  *
    22       O(HETATM   22  O3  SO4 H   3)   -0.23613235  *  -2.57107027  *  -2.61652390  *
    23       O(HETATM   23  O4  SO4 H   3)    0.40738320  *  -1.04858346  *  -0.74051461  *
    24       H(HETATM   24  H2  SO4 H   3)   -2.44161374  *  -1.72838575  *  -1.91447029  *
 

 General Reference for PM7:
 "Optimization of Parameters for Semiempirical Methods VI: More Modifications to the 
 NDDO Approximations and Re-optimization of Parameters", J. J. P. Stewart, J. Mol. Mod., 1:32, 19 (2013)
 https://link.springer.com/article/10.1007/s00894-012-1667-x

           Empirical Formula: C6 H9 N O7 S  =    24 atoms



      MOLECULAR POINT GROUP   :   C1  


      RHF CALCULATION, NO. OF DOUBLY OCCUPIED LEVELS = 43



          HEAT OF FORMATION =    -153.088983 KCALS/MOLE


          GRADIENT NORM =   0.83145


          TIME FOR SCF CALCULATION =    0.02

          TIME FOR DERIVATIVES     =    0.02

          MOLECULAR WEIGHT =  239.20


          ESTIMATED TIME TO COMPLETE CALCULATION =        4.50 SECONDS

    FOR POINT-GROUP C1   THERE ARE   1 UNIQUE SYMMETRY FUNCTIONS.

 STEP:   1 TIME =     0.03 SECS, INTEGRAL =      0.03 TIME LEFT: 172799.94
 STEP:   2 TIME =     0.03 SECS, INTEGRAL =      0.06 TIME LEFT: 172799.91
 STEP:   3 TIME =     0.05 SECS, INTEGRAL =      0.11 TIME LEFT: 172799.86
 STEP:   4 TIME =     0.03 SECS, INTEGRAL =      0.14 TIME LEFT: 172799.83
 STEP:   5 TIME =     0.03 SECS, INTEGRAL =      0.17 TIME LEFT: 172799.80
 STEP:   6 TIME =     0.05 SECS, INTEGRAL =      0.22 TIME LEFT: 172799.75
 STEP:   7 TIME =     0.03 SECS, INTEGRAL =      0.25 TIME LEFT: 172799.72
 STEP:   8 TIME =     0.03 SECS, INTEGRAL =      0.28 TIME LEFT: 172799.69
 STEP:   9 TIME =     0.03 SECS, INTEGRAL =      0.31 TIME LEFT: 172799.66
 STEP:  10 TIME =     0.03 SECS, INTEGRAL =      0.34 TIME LEFT: 172799.62
 STEP:  11 TIME =     0.03 SECS, INTEGRAL =      0.38 TIME LEFT: 172799.59
 STEP:  12 TIME =     0.03 SECS, INTEGRAL =      0.41 TIME LEFT: 172799.56
 STEP:  13 TIME =     0.03 SECS, INTEGRAL =      0.44 TIME LEFT: 172799.53
 STEP:  14 TIME =     0.03 SECS, INTEGRAL =      0.47 TIME LEFT: 172799.50
 STEP:  15 TIME =     0.03 SECS, INTEGRAL =      0.50 TIME LEFT: 172799.47
 STEP:  16 TIME =     0.03 SECS, INTEGRAL =      0.53 TIME LEFT: 172799.44
 STEP:  17 TIME =     0.05 SECS, INTEGRAL =      0.58 TIME LEFT: 172799.39
 STEP:  18 TIME =     0.05 SECS, INTEGRAL =      0.62 TIME LEFT: 172799.34
 STEP:  19 TIME =     0.03 SECS, INTEGRAL =      0.66 TIME LEFT: 172799.31
 STEP:  20 TIME =     0.03 SECS, INTEGRAL =      0.69 TIME LEFT: 172799.28
 STEP:  21 TIME =     0.03 SECS, INTEGRAL =      0.72 TIME LEFT: 172799.25
 STEP:  22 TIME =     0.03 SECS, INTEGRAL =      0.75 TIME LEFT: 172799.22
 STEP:  23 TIME =     0.03 SECS, INTEGRAL =      0.78 TIME LEFT: 172799.19
 STEP:  24 TIME =     0.03 SECS, INTEGRAL =      0.81 TIME LEFT: 172799.16
 STEP:  25 TIME =     0.03 SECS, INTEGRAL =      0.84 TIME LEFT: 172799.12
 STEP:  26 TIME =     0.03 SECS, INTEGRAL =      0.88 TIME LEFT: 172799.09
 STEP:  27 TIME =     0.03 SECS, INTEGRAL =      0.91 TIME LEFT: 172799.06
 STEP:  28 TIME =     0.03 SECS, INTEGRAL =      0.94 TIME LEFT: 172799.03
 STEP:  29 TIME =     0.03 SECS, INTEGRAL =      0.97 TIME LEFT: 172799.00
 STEP:  30 TIME =     0.03 SECS, INTEGRAL =      1.00 TIME LEFT: 172798.97
 STEP:  31 TIME =     0.05 SECS, INTEGRAL =      1.05 TIME LEFT: 172798.92
 STEP:  32 TIME =     0.03 SECS, INTEGRAL =      1.08 TIME LEFT: 172798.89
 STEP:  33 TIME =     0.03 SECS, INTEGRAL =      1.11 TIME LEFT: 172798.86
 STEP:  34 TIME =     0.03 SECS, INTEGRAL =      1.14 TIME LEFT: 172798.83
 STEP:  35 TIME =     0.03 SECS, INTEGRAL =      1.17 TIME LEFT: 172798.80
 STEP:  36 TIME =     0.03 SECS, INTEGRAL =      1.20 TIME LEFT: 172798.77
 STEP:  37 TIME =     0.03 SECS, INTEGRAL =      1.23 TIME LEFT: 172798.73
 STEP:  38 TIME =     0.03 SECS, INTEGRAL =      1.27 TIME LEFT: 172798.70
 STEP:  39 TIME =     0.03 SECS, INTEGRAL =      1.30 TIME LEFT: 172798.67
 STEP:  40 TIME =     0.03 SECS, INTEGRAL =      1.33 TIME LEFT: 172798.64
 STEP:  41 TIME =     0.03 SECS, INTEGRAL =      1.36 TIME LEFT: 172798.61
 STEP:  42 TIME =     0.03 SECS, INTEGRAL =      1.39 TIME LEFT: 172798.58
 STEP:  43 TIME =     0.05 SECS, INTEGRAL =      1.44 TIME LEFT: 172798.53
 STEP:  44 TIME =     0.03 SECS, INTEGRAL =      1.47 TIME LEFT: 172798.50
 STEP:  45 TIME =     0.03 SECS, INTEGRAL =      1.50 TIME LEFT: 172798.47
 STEP:  46 TIME =     0.05 SECS, INTEGRAL =      1.55 TIME LEFT: 172798.42
 STEP:  47 TIME =     0.03 SECS, INTEGRAL =      1.58 TIME LEFT: 172798.39
 STEP:  48 TIME =     0.05 SECS, INTEGRAL =      1.62 TIME LEFT: 172798.34
 STEP:  49 TIME =     0.03 SECS, INTEGRAL =      1.66 TIME LEFT: 172798.31
 STEP:  50 TIME =     0.03 SECS, INTEGRAL =      1.69 TIME LEFT: 172798.28
 STEP:  51 TIME =     0.03 SECS, INTEGRAL =      1.72 TIME LEFT: 172798.25
 STEP:  52 TIME =     0.03 SECS, INTEGRAL =      1.75 TIME LEFT: 172798.22
 STEP:  53 TIME =     0.03 SECS, INTEGRAL =      1.78 TIME LEFT: 172798.19
 STEP:  54 TIME =     0.03 SECS, INTEGRAL =      1.81 TIME LEFT: 172798.16
 STEP:  55 TIME =     0.03 SECS, INTEGRAL =      1.84 TIME LEFT: 172798.12
 STEP:  56 TIME =     0.03 SECS, INTEGRAL =      1.88 TIME LEFT: 172798.09
 STEP:  57 TIME =     0.05 SECS, INTEGRAL =      1.92 TIME LEFT: 172798.05
 STEP:  58 TIME =     0.05 SECS, INTEGRAL =      1.97 TIME LEFT: 172798.00
 STEP:  59 TIME =     0.03 SECS, INTEGRAL =      2.00 TIME LEFT: 172797.97
 STEP:  60 TIME =     0.05 SECS, INTEGRAL =      2.05 TIME LEFT: 172797.92
 STEP:  61 TIME =     0.06 SECS, INTEGRAL =      2.11 TIME LEFT: 172797.86
 STEP:  62 TIME =     0.06 SECS, INTEGRAL =      2.17 TIME LEFT: 172797.80
 STEP:  63 TIME =     0.05 SECS, INTEGRAL =      2.22 TIME LEFT: 172797.75
 STEP:  64 TIME =     0.05 SECS, INTEGRAL =      2.27 TIME LEFT: 172797.70
 STEP:  65 TIME =     0.06 SECS, INTEGRAL =      2.33 TIME LEFT: 172797.64
 STEP:  66 TIME =     0.06 SECS, INTEGRAL =      2.39 TIME LEFT: 172797.58
 STEP:  67 TIME =     0.06 SECS, INTEGRAL =      2.45 TIME LEFT: 172797.52
 STEP:  68 TIME =     0.05 SECS, INTEGRAL =      2.50 TIME LEFT: 172797.47
 STEP:  69 TIME =     0.06 SECS, INTEGRAL =      2.56 TIME LEFT: 172797.41
 STEP:  70 TIME =     0.03 SECS, INTEGRAL =      2.59 TIME LEFT: 172797.38
 STEP:  71 TIME =     0.06 SECS, INTEGRAL =      2.66 TIME LEFT: 172797.31
 STEP:  72 TIME =     0.05 SECS, INTEGRAL =      2.70 TIME LEFT: 172797.27
           INITIAL VELOCITY IN DRC (Angstroms/Femtosecond)
        -0.01636        -0.05054         0.13206
         0.01218        -0.01500         0.03614
        -0.00194        -0.01324        -0.01690
        -0.00712        -0.01323        -0.00987
        -0.01154        -0.02125        -0.01719
        -0.00920        -0.01621         0.03672
         0.03364         0.06165        -0.12037
         0.01386        -0.02206         0.05994
         0.00092        -0.00518        -0.03901
        -0.00991        -0.00820        -0.00420
        -0.01260        -0.01979        -0.04168
        -0.01394        -0.02458         0.05797
        -0.00668         0.02130         0.02221
         0.00529        -0.00996         0.00306
        -0.00777         0.01219        -0.02258
         0.05710        -0.03223        -0.04357
         0.03370        -0.03144         0.07942
        -0.00756        -0.01113         0.01983
        -0.00294         0.00245         0.00362
         0.00614         0.00153        -0.00427
         0.00228        -0.00072        -0.00430
         0.00157         0.00332         0.00152
        -0.00264         0.02149        -0.02406
        -0.00154        -0.01751         0.00197
 THE VIBRATIONAL FREQUENCY (  -414.65CM(-1)) IS TOO SMALL
 FOR ONE QUANTUM TO BE USED
 INSTEAD 0.3KCAL/MOLE WILL BE USED TO START THE IRC

 TIME PRIORITY, INTERVAL = 1.00 FEMTOSECONDS



 FEMTOSECONDS  POINT  POTENTIAL + KINETIC  =   TOTAL     ERROR    REF%   MOVEMENT
     0.000       1  -153.08903    0.30000  -152.78903   0.00000     1   %  0.0000
     1.000       1  -153.09015    0.29623  -152.79392  -0.00488     2   %  0.0195
     2.000       1  -153.09528    0.29825  -152.79703  -0.00800     3   %  0.0391
     3.000       1  -153.10444    0.30606  -152.79838  -0.00935     4   %  0.0588
     4.000       2  -153.11762    0.31966  -152.79796  -0.00893     5   %  0.0787
     5.000       3  -153.13468    0.34133  -152.79336  -0.00432     6   %  0.0988
     6.000       3  -153.15757    0.36775  -152.78982  -0.00078     7   %  0.1198
     7.000       4  -153.18569    0.39854  -152.78716   0.00188     8   %  0.1414
     8.000       4  -153.22081    0.43486  -152.78595   0.00309     9   %  0.1641
     9.000       5  -153.26190    0.47467  -152.78722   0.00181    10   %  0.1879
    10.000       5  -153.31200    0.52411  -152.78789   0.00115    11   %  0.2130
    11.000       6  -153.36959    0.58185  -152.78774   0.00130    12   %  0.2392
    12.000       6  -153.43925    0.65185  -152.78740   0.00164    13   %  0.2671
    13.000       7  -153.51965    0.73297  -152.78668   0.00236    14   %  0.2964
    14.000       7  -153.61479    0.82862  -152.78617   0.00287    15   %  0.3276
    15.000       8  -153.72221    0.93618  -152.78603   0.00301    16   %  0.3608
    16.000       8  -153.84930    1.06349  -152.78581   0.00323    17   %  0.3962
    18.000      10  -154.16272    1.37805  -152.78467   0.00437    18   %  0.4735
    19.000      10  -154.35573    1.57497  -152.78076   0.00828    19   %  0.5159
    20.000      11  -154.57557    1.79493  -152.78064   0.00840    20   %  0.5615
    21.000      11  -154.82251    2.03845  -152.78405   0.00499    21   %  0.6102
    22.000      12  -155.10055    2.31439  -152.78617   0.00288    22   %  0.6623
    23.000      13  -155.41694    2.63184  -152.78510   0.00395    23   %  0.7175
    24.000      14  -155.77247    2.99001  -152.78246   0.00660    24   %  0.7762
    25.000      14  -156.16658    3.38660  -152.77998   0.00907    25   %  0.8385
    26.000      15  -156.59572    3.81232  -152.78341   0.00565    26   %  0.9047
    27.000      16  -157.06046    4.27486  -152.78560   0.00346    27   %  0.9747
    28.000      17  -157.56521    4.77987  -152.78534   0.00372    28   %  1.0481
    29.000      18  -158.11013    5.32678  -152.78336   0.00571    29   %  1.1250
    30.000      19  -158.68573    5.90524  -152.78049   0.00858    30   %  1.2058
    31.000      20  -159.27938    6.49825  -152.78113   0.00794    31   %  1.2906
    32.000      21  -159.87957    7.09253  -152.78704   0.00204    32   %  1.3797
    33.000      22  -160.47829    7.69007  -152.78822   0.00086    33   %  1.4728
    34.000      23  -161.07105    8.28351  -152.78754   0.00155    34   %  1.5694
    35.000      24  -161.64645    8.86006  -152.78638   0.00271    35   %  1.6694
    36.000      26  -162.18582    9.39791  -152.78791   0.00120    36   %  1.7725
    37.000      28  -162.66942    9.88051  -152.78891   0.00020    37   %  1.8786
    38.000      29  -163.08725   10.29813  -152.78912   0.00000    38   %  1.9874
    39.000      31  -163.43878   10.64970  -152.78908   0.00004    39   %  2.0987
    40.000      33  -163.72631   10.93747  -152.78884   0.00029    40   %  2.2124
    41.000      35  -163.94753   11.15876  -152.78877   0.00037    41   %  2.3287
    42.000      36  -164.09649   11.30753  -152.78896   0.00019    42   %  2.4484
    43.000      38  -164.17058   11.38140  -152.78917  -0.00002    43   %  2.5720
    44.000      40  -164.17756   11.38825  -152.78931  -0.00014    44   %  2.7001
    45.000      42  -164.13415   11.34486  -152.78930  -0.00012    45   %  2.8328
    46.000      44  -164.05761   11.26856  -152.78905   0.00013    46   %  2.9699
    47.000      46  -163.95747   11.16852  -152.78895   0.00024    47   %  3.1111
    48.000      47  -163.83715   11.04901  -152.78815   0.00105    48   %  3.2562
    49.000      50  -163.70209   10.91324  -152.78885   0.00035    49   %  3.4048
    50.000      52  -163.56615   10.77722  -152.78893   0.00028    50   %  3.5561
    51.000      54  -163.44956   10.66073  -152.78883   0.00039    51   %  3.7097
    52.000      56  -163.37045   10.58178  -152.78867   0.00056    52   %  3.8648
    53.000      58  -163.33941   10.55081  -152.78860   0.00063    53   %  4.0213
    54.000      60  -163.36199   10.57333  -152.78866   0.00058    54   %  4.1791
    55.000      62  -163.44650   10.65777  -152.78872   0.00052    55   %  4.3383
    56.000      64  -163.60855   10.81976  -152.78880   0.00046    56   %  4.4988
    57.000      65  -163.86590   11.07690  -152.78900   0.00026    57   %  4.6606
    58.000      67  -164.22968   11.44041  -152.78927   0.00000    58   %  4.8232
    59.000      68  -164.69571   11.90631  -152.78940  -0.00012    59   %  4.9860
    60.000      69  -165.24784   12.45831  -152.78952  -0.00024    60   %  5.1488
    61.000      71  -165.86857   13.07900  -152.78958  -0.00028    61   %  5.3113
    62.000      73  -166.54222   13.75268  -152.78954  -0.00024    62   %  5.4734
    63.000      75  -167.25425   14.46487  -152.78938  -0.00007    63   %  5.6349
    64.000      78  -167.98412   15.19487  -152.78925   0.00008    64   %  5.7960
    65.000      80  -168.70311   15.91390  -152.78921   0.00013    65   %  5.9570
    66.000      83  -169.38187   16.59270  -152.78917   0.00018    66   %  6.1181
    67.000      86  -169.99945   17.21028  -152.78917   0.00019    67   %  6.2799
    68.000      89  -170.54830   17.75921  -152.78910   0.00027    68   %  6.4425
    69.000      91  -171.02931   18.24038  -152.78893   0.00046    69   %  6.6058
    70.000      94  -171.44243   18.65374  -152.78869   0.00071    70   %  6.7698
    71.000      96  -171.78163   18.99308  -152.78855   0.00086    71   %  6.9343
    72.000      98  -172.03869   19.25014  -152.78854   0.00088    72   %  7.0994
    73.000     101  -172.21070   19.42214  -152.78856   0.00088    73   %  7.2649
    74.000     103  -172.30274   19.51380  -152.78894   0.00051    74   %  7.4309
    75.000     105  -172.32250   19.53358  -152.78892   0.00054    75   %  7.5975
    76.000     107  -172.27215   19.48366  -152.78849   0.00099    76   %  7.7648
    77.000     110  -172.14631   19.35761  -152.78870   0.00079    77   %  7.9334
    78.000     113  -171.93814   19.14925  -152.78889   0.00062    78   %  8.1037
    79.000     115  -171.64901   18.86002  -152.78898   0.00053    79   %  8.2765
    80.000     118  -171.29248   18.50344  -152.78904   0.00049    80   %  8.4517
    81.000     121  -170.88999   18.10098  -152.78901   0.00053    81   %  8.6296
    82.000     123  -170.46211   17.67317  -152.78895   0.00061    82   %  8.8098
    83.000     126  -170.02410   17.23517  -152.78893   0.00063    83   %  8.9921
    84.000     128  -169.58936   16.80035  -152.78901   0.00057    84   %  9.1762
    85.000     129  -169.17579   16.38663  -152.78916   0.00043    85   %  9.3618
    86.000     131  -168.80579   16.01653  -152.78925   0.00035    86   %  9.5486
    87.000     133  -168.50138   15.71226  -152.78912   0.00050    87   %  9.7362
    88.000     134  -168.27364   15.48483  -152.78881   0.00081    88   %  9.9246
    89.000     136  -168.12177   15.33290  -152.78888   0.00076    89   % 10.1139
    90.000     137  -168.03928   15.24998  -152.78930   0.00034    90   % 10.3044
    91.000     139  -168.02319   15.23349  -152.78970  -0.00005    91   % 10.4961
    92.000     141  -168.07774   15.28797  -152.78976  -0.00010    92   % 10.6888
    93.000     143  -168.20900   15.41939  -152.78962   0.00006    93   % 10.8822
    94.000     145  -168.41638   15.62703  -152.78935   0.00033    94   % 11.0756
    95.000     147  -168.69004   15.90073  -152.78931   0.00039    95   % 11.2684
    96.000     148  -169.01744   16.22799  -152.78946   0.00025    96   % 11.4599
    97.000     150  -169.39014   16.60003  -152.79011  -0.00039    97   % 11.6496
    98.000     152  -169.80520   17.01534  -152.78986  -0.00013    98   % 11.8370
    99.000     153  -170.25866   17.46916  -152.78949   0.00025    99   % 12.0219
   100.000     154  -170.73655   17.94768  -152.78887   0.00088   100   % 12.2045
   101.000     156  -171.21776   18.42846  -152.78930   0.00047   101   % 12.3852
   102.000     158  -171.67767   18.88809  -152.78958   0.00021   102   % 12.5647
   103.000     160  -172.09993   19.31027  -152.78966   0.00013   103   % 12.7434
   104.000     162  -172.47602   19.68649  -152.78953   0.00028   104   % 12.9214
   105.000     164  -172.79848   20.00915  -152.78933   0.00049   105   % 13.0986
   106.000     166  -173.05351   20.26419  -152.78932   0.00052   106   % 13.2747
   107.000     168  -173.22123   20.43175  -152.78948   0.00037   107   % 13.4494
   108.000     171  -173.28361   20.49479  -152.78883   0.00104   108   % 13.6224
   109.000     174  -173.23241   20.44335  -152.78905   0.00083   109   % 13.7934
   110.000     176  -173.07058   20.28149  -152.78910   0.00080   110   % 13.9625
   111.000     179  -172.80654   20.01746  -152.78908   0.00083   111   % 14.1298
   112.000     182  -172.44874   19.65960  -152.78914   0.00078   112   % 14.2957
   113.000     185  -172.00611   19.21686  -152.78925   0.00068   113   % 14.4609
   114.000     187  -171.49389   18.70454  -152.78935   0.00060   114   % 14.6259
   115.000     190  -170.93864   18.14924  -152.78940   0.00057   115   % 14.7911
   116.000     193  -170.37694   17.58757  -152.78936   0.00061   116   % 14.9563
   117.000     195  -169.84579   17.05653  -152.78926   0.00072   117   % 15.1212
   118.000     197  -169.37470   16.58549  -152.78920   0.00079   118   % 15.2853
   119.000     200  -168.98137   16.19213  -152.78924   0.00077   119   % 15.4480
   120.000     203  -168.67662   15.88730  -152.78932   0.00070   120   % 15.6089
   121.000     206  -168.47351   15.68414  -152.78937   0.00066   121   % 15.7677
   122.000     209  -168.38749   15.59805  -152.78945   0.00059   122   % 15.9242
   123.000     211  -168.43118   15.64168  -152.78950   0.00055   123   % 16.0786
   124.000     214  -168.60825   15.81875  -152.78949   0.00057   124   % 16.2311
   125.000     217  -168.91133   16.12187  -152.78946   0.00061   125   % 16.3822
   126.000     219  -169.32516   16.53574  -152.78942   0.00066   126   % 16.5322
   127.000     221  -169.83022   17.04084  -152.78937   0.00072   127   % 16.6813
   128.000     224  -170.40333   17.61400  -152.78934   0.00077   128   % 16.8293
   129.000     226  -171.01180   18.22239  -152.78942   0.00071   129   % 16.9757
   130.000     230  -171.61394   18.82008  -152.79386  -0.00372   130   % 17.1199
   131.000     233  -172.05423   19.26458  -152.78965   0.00050   131   % 17.2613
   132.000     238  -172.45907   19.66925  -152.78982   0.00034   132   % 17.3993
   133.000     243  -172.69351   19.90363  -152.78988   0.00029   133   % 17.5338
   134.000     248  -172.73584   19.94593  -152.78992   0.00027   134   % 17.6649
   135.000     253  -172.58777   19.79783  -152.78993   0.00027   135   % 17.7926
   136.000     257  -172.26907   19.47913  -152.78994   0.00028   136   % 17.9173
   137.000     262  -171.81200   19.02206  -152.78994   0.00029   137   % 18.0394
   138.000     266  -171.25822   18.46827  -152.78994   0.00030   138   % 18.1594
   139.000     269  -170.65684   17.86690  -152.78994   0.00031   139   % 18.2776
   140.000     272  -170.05975   17.26982  -152.78993   0.00034   140   % 18.3942
   141.000     275  -169.51048   16.72060  -152.78988   0.00040   141   % 18.5089
   142.000     277  -169.03158   16.24166  -152.78992   0.00037   142   % 18.6216
   143.000     281  -168.61898   15.82891  -152.79008   0.00023   143   % 18.7323
   144.000     285  -168.24756   15.45736  -152.79020   0.00011   144   % 18.8412
   145.000     290  -167.88636   15.09607  -152.79029   0.00003   145   % 18.9487
   146.000     296  -167.51345   14.72309  -152.79035  -0.00002   146   % 19.0553
   147.000     301  -167.12449   14.33408  -152.79041  -0.00007   147   % 19.1617
   148.000     307  -166.73371   13.94324  -152.79047  -0.00012   148   % 19.2688
   149.000     312  -166.37316   13.58262  -152.79054  -0.00018   149   % 19.3775
   150.000     317  -166.09022   13.29959  -152.79063  -0.00026   150   % 19.4883
   151.000     321  -165.94238   13.15165  -152.79073  -0.00035   151   % 19.6018
   152.000     324  -165.98486   13.19414  -152.79073  -0.00034   152   % 19.7180
   153.000     327  -166.25066   13.46010  -152.79056  -0.00016   153   % 19.8367
   154.000     330  -166.73073   13.94046  -152.79027   0.00014   154   % 19.9576
   155.000     333  -167.36769   14.57723  -152.79046  -0.00004   155   % 20.0802
   156.000     339  -168.07032   15.27982  -152.79050  -0.00007   156   % 20.2045
   157.000     345  -168.74249   15.95197  -152.79052  -0.00008   157   % 20.3304
   158.000     351  -169.31029   16.51975  -152.79054  -0.00009   158   % 20.4579
   159.000     357  -169.73390   16.94335  -152.79055  -0.00009   159   % 20.5869
   160.000     364  -170.00550   17.21495  -152.79056  -0.00008   160   % 20.7175
   161.000     369  -170.13856   17.34800  -152.79056  -0.00007   161   % 20.8497
   162.000     374  -170.15883   17.36828  -152.79055  -0.00005   162   % 20.9835
   163.000     379  -170.09978   17.30923  -152.79055  -0.00004   163   % 21.1188
   164.000     383  -169.99863   17.20806  -152.79057  -0.00005   164   % 21.2549
   165.000     386  -169.88791   17.09732  -152.79059  -0.00006   165   % 21.3911
   166.000     390  -169.78396   16.99333  -152.79063  -0.00009   166   % 21.5268
   167.000     394  -169.67989   16.88922  -152.79067  -0.00011   167   % 21.6613
   168.000     399  -169.55008   16.75939  -152.79070  -0.00013   168   % 21.7941
   169.000     404  -169.36397   16.57327  -152.79070  -0.00012   169   % 21.9252
   170.000     410  -169.09998   16.30929  -152.79069  -0.00010   170   % 22.0545
   171.000     416  -168.75114   15.96047  -152.79066  -0.00006   171   % 22.1823
   172.000     422  -168.32290   15.53226  -152.79064  -0.00003   172   % 22.3092
   173.000     428  -167.83029   15.03965  -152.79064  -0.00001   173   % 22.4357
   174.000     434  -167.30123   14.51057  -152.79066  -0.00002   174   % 22.5625
   175.000     440  -166.76798   13.99798  -152.77000   0.02065   175   % 22.6899
   176.000     445  -166.32334   13.53258  -152.79076  -0.00011   176   % 22.8182
   177.000     449  -166.06960   13.27878  -152.79081  -0.00015   177   % 22.9473
   178.000     452  -166.06166   13.27094  -152.79072  -0.00005   178   % 23.0770
   179.000     455  -166.32644   13.53601  -152.79044   0.00024   179   % 23.2071
   180.000     458  -166.83226   14.04185  -152.79040   0.00029   180   % 23.3375
   181.000     463  -167.50001   14.70943  -152.79058   0.00012   181   % 23.4681
   182.000     469  -168.22997   15.43934  -152.79064   0.00008   182   % 23.5993
   183.000     475  -168.96232   16.13648  -152.82584  -0.03512   183   % 23.7314
   184.000     482  -169.55670   16.76604  -152.79066   0.00007   184   % 23.8648
   185.000     489  -169.99246   17.20179  -152.79067   0.00007   185   % 23.9999
   186.000     496  -170.24501   17.45432  -152.79069   0.00007   186   % 24.1369
   187.000     503  -170.31880   17.52808  -152.79072   0.00005   187   % 24.2757
   188.000     508  -170.24883   17.45808  -152.79075   0.00004   188   % 24.4160
   189.000     513  -170.09138   17.30063  -152.79075   0.00004   189   % 24.5574
   190.000     518  -169.90463   17.11391  -152.79072   0.00008   190   % 24.6991
   191.000     522  -169.72971   16.93905  -152.79066   0.00016   191   % 24.8409
   192.000     526  -169.58290   16.79229  -152.79060   0.00023   192   % 24.9825
   193.000     530  -169.52294   16.65543  -152.86751  -0.07667   193   % 25.1239
   194.000     534  -169.45598   16.66533  -152.79065   0.00021   194   % 25.2656
   195.000     539  -169.34313   16.55241  -152.79073   0.00014   195   % 25.4076
   196.000     544  -169.19550   16.40469  -152.79080   0.00007   196   % 25.5502
   197.000     550  -168.97259   16.18171  -152.79088   0.00001   197   % 25.6934
   198.000     557  -168.63369   15.84275  -152.79094  -0.00004   198   % 25.8373
   199.000     564  -168.16024   15.36925  -152.79099  -0.00008   199   % 25.9819
   200.000     570  -167.57640   14.78537  -152.79103  -0.00011   200   % 26.1268


           INITIAL VELOCITY IN DRC (Angstroms/Femtosecond)
         0.01636         0.05054        -0.13206
        -0.01218         0.01500        -0.03614
         0.00194         0.01324         0.01690
         0.00712         0.01323         0.00987
         0.01154         0.02125         0.01719
         0.00920         0.01621        -0.03672
        -0.03364        -0.06165         0.12037
        -0.01386         0.02206        -0.05994
        -0.00092         0.00518         0.03901
         0.00991         0.00820         0.00420
         0.01260         0.01979         0.04168
         0.01394         0.02458        -0.05797
         0.00668        -0.02130        -0.02221
        -0.00529         0.00996        -0.00306
         0.00777        -0.01219         0.02258
        -0.05710         0.03223         0.04357
        -0.03370         0.03144        -0.07942
         0.00756         0.01113        -0.01983
         0.00294        -0.00245        -0.00362
        -0.00614        -0.00153         0.00427
        -0.00228         0.00072         0.00430
        -0.00157        -0.00332        -0.00152
         0.00264        -0.02149         0.02406
         0.00154         0.01751        -0.00197
 THE VIBRATIONAL FREQUENCY (  -414.65CM(-1)) IS TOO SMALL
 FOR ONE QUANTUM TO BE USED
 INSTEAD 0.3KCAL/MOLE WILL BE USED TO START THE IRC

 TIME PRIORITY, INTERVAL = 1.00 FEMTOSECONDS



 FEMTOSECONDS  POINT  POTENTIAL + KINETIC  =   TOTAL     ERROR    REF%   MOVEMENT
     0.000       1  -153.08898    0.30000  -152.78898   0.00000     1   %  0.0000
     1.000       1  -153.09194    0.29849  -152.79345  -0.00447     2   %  0.0196
     2.000       1  -153.09905    0.30264  -152.79641  -0.00743     3   %  0.0395
     3.000       1  -153.11032    0.31245  -152.79787  -0.00889     4   %  0.0596
     4.000       2  -153.12574    0.32792  -152.79782  -0.00884     5   %  0.0801
     5.000       3  -153.14559    0.35530  -152.79030  -0.00131     6   %  0.1010
     6.000       3  -153.17214    0.38635  -152.78579   0.00319     7   %  0.1230
     7.000       4  -153.20459    0.41881  -152.78578   0.00320     8   %  0.1457
     8.000       4  -153.24532    0.45948  -152.78584   0.00314     9   %  0.1697
     9.000       5  -153.29287    0.50680  -152.78607   0.00291    10   %  0.1947
    10.000       5  -153.35161    0.56544  -152.78617   0.00282    11   %  0.2212
    11.000       6  -153.41955    0.63401  -152.78553   0.00345    12   %  0.2491
    12.000       6  -153.50266    0.71670  -152.78596   0.00303    13   %  0.2788
    13.000       7  -153.59889    0.80991  -152.78898   0.00001    14   %  0.3101
    14.000       7  -153.71443    0.92442  -152.79001  -0.00102    15   %  0.3438
    15.000       8  -153.84601    1.05886  -152.78715   0.00184    16   %  0.3799
    16.000       8  -154.00337    1.21729  -152.78608   0.00291    17   %  0.4185
    18.000      10  -154.39768    1.61067  -152.78700   0.00199    18   %  0.5036
    19.000      10  -154.64401    1.85831  -152.78570   0.00329    19   %  0.5507
    20.000      11  -154.92464    2.14008  -152.78456   0.00444    20   %  0.6012
    21.000      12  -155.24299    2.45798  -152.78501   0.00398    21   %  0.6560
    22.000      13  -155.60053    2.81464  -152.78589   0.00311    22   %  0.7150
    23.000      13  -155.99964    3.21458  -152.78506   0.00394    23   %  0.7782
    24.000      14  -156.43916    3.65677  -152.78240   0.00660    24   %  0.8460
    25.000      15  -156.90568    4.13092  -152.77476   0.01425    25   %  0.9192
    26.000      15  -157.38449    4.60965  -152.77484   0.01417    26   %  0.9980
    27.000      17  -157.86017    5.07407  -152.78611   0.00291    27   %  1.0826
    28.000      19  -158.30915    5.52191  -152.78725   0.00177    28   %  1.1727
    29.000      21  -158.70575    5.91743  -152.78832   0.00070    29   %  1.2683
    30.000      24  -159.01841    6.22964  -152.78877   0.00025    30   %  1.3697
    31.000      28  -159.21964    6.43065  -152.78898   0.00004    31   %  1.4772
    32.000      32  -159.30141    6.51235  -152.78907  -0.00003    32   %  1.5911
    33.000      37  -159.29269    6.50358  -152.78912  -0.00008    33   %  1.7117
    34.000      42  -159.27348    6.48433  -152.78915  -0.00010    34   %  1.8388
    35.000      46  -159.38304    6.59388  -152.78916  -0.00011    35   %  1.9729
    36.000      51  -159.82657    7.03751  -152.78906  -0.00000    36   %  2.1150
    37.000      55  -160.89176    8.10320  -152.78856   0.00049    37   %  2.2669
    38.000      61  -162.99525   10.20732  -152.78794   0.00113    38   %  2.4316
    39.000      69  -166.75712   13.96978  -152.78733   0.00174    39   %  2.6134
    40.000      78  -172.88271   20.17257  -152.71014   0.07894    40   %  2.8181
    41.000      88  -181.69534   28.91056  -152.78477   0.00433    41   %  3.0512
    42.000      98  -189.29742   36.51284  -152.78458   0.00454    42   %  3.3130
    43.000     108  -188.73163   35.94426  -152.78736   0.00179    43   %  3.5879
    44.000     118  -178.64371   25.85454  -152.78917   0.00000    44   %  3.8438
    45.000     128  -173.03578   20.24817  -152.78761   0.00157    45   %  4.0386
    46.000     138  -184.97884   32.18937  -152.78947  -0.00027    46   %  4.1542
    47.000     148  -196.74514   43.95634  -152.78880   0.00044    47   %  4.2255
    48.000     158  -196.44723   43.65555  -152.79168  -0.00241    48   %  4.2955
    49.000     168  -186.32487   33.53187  -152.79300  -0.00371    49   %  4.3939
    50.000     178  -175.63154   22.84189  -152.78966  -0.00035    50   %  4.5266
    51.000     187  -169.65086   16.86146  -152.78940  -0.00008    51   %  4.6845
    52.000     195  -170.37596   17.58680  -152.78916   0.00017    52   %  4.8584
    53.000     205  -177.79665   25.00724  -152.78941  -0.00006    53   %  5.0460
    54.000     215  -189.61532   36.83149  -152.78383   0.00554    54   %  5.2518
    55.000     225  -198.69328   45.90612  -152.78716   0.00224    55   %  5.4797
    56.000     235  -195.40091   42.61062  -152.79029  -0.00086    56   %  5.7179
    57.000     245  -180.87999   28.09226  -152.78774   0.00172    57   %  5.9340
    58.000     255  -173.56483   20.77862  -152.78621   0.00326    58   %  6.0846
    59.000     265  -188.23192   35.44086  -152.79106  -0.00157    59   %  6.1494
    60.000     275  -200.36535   47.57594  -152.78941   0.00011    60   %  6.1686
    61.000     285  -199.05566   46.26334  -152.79232  -0.00277    61   %  6.1880
    62.000     295  -188.90744   36.11460  -152.79285  -0.00326    62   %  6.2362
    63.000     305  -179.36570   26.57564  -152.79006  -0.00046    63   %  6.3188
    64.000     313  -175.16783   22.37829  -152.78954   0.00008    64   %  6.4279
    65.000     322  -177.54552   24.75595  -152.78957   0.00007    65   %  6.5575
    66.000     332  -186.03300   33.25504  -152.77796   0.01169    66   %  6.7098
    67.000     342  -198.09540   45.30748  -152.78792   0.00176    67   %  6.8933
    68.000     352  -206.37476   53.58693  -152.78784   0.00188    68   %  7.1133
    69.000     362  -202.27187   49.48238  -152.78949   0.00026    69   %  7.3582
    70.000     372  -186.36419   33.57695  -152.78724   0.00254    70   %  7.5954
    71.000     382  -180.87380   28.09176  -152.78204   0.00776    71   %  7.7745
    72.000     392  -198.30163   45.50693  -152.79471  -0.00488    72   %  7.8801
    73.000     402  -208.72899   55.93780  -152.79119  -0.00133    73   %  7.9607
    74.000     412  -205.47615   52.68327  -152.79288  -0.00298    74   %  8.0549
    75.000     422  -194.69121   41.89914  -152.79207  -0.00213    75   %  8.1807
    76.000     432  -185.33611   32.54589  -152.79022  -0.00026    76   %  8.3371
    77.000     441  -181.49184   28.70204  -152.78980   0.00018    77   %  8.5154
    78.000     449  -184.60357   31.64683  -152.95674  -0.16674    78   %  8.7110
    79.000     458  -193.85858   41.06636  -152.79221  -0.00219    79   %  8.9265
    80.000     468  -206.13908   53.35114  -152.78794   0.00212    80   %  9.1688
    81.000     478  -212.62852   59.84034  -152.78819   0.00191    81   %  9.4405
    82.000     488  -205.18204   52.39257  -152.78947   0.00067    82   %  9.7259
    83.000     498  -188.75705   35.96436  -152.79269  -0.00253    83   %  9.9887
    84.000     508  -187.90434   35.11904  -152.78531   0.00489    84   % 10.1842
    85.000     518  -203.93238   51.14062  -152.79176  -0.00154    85   % 10.3083
    86.000     528  -212.51148   59.72011  -152.79136  -0.00110    86   % 10.3989
    87.000     538  -206.96926   54.17605  -152.79320  -0.00290    87   % 10.4897
    88.000     548  -194.71883   41.92656  -152.79227  -0.00193    88   % 10.5964
    89.000     558  -185.25053   32.45978  -152.79075  -0.00039    89   % 10.7178
    90.000     565  -182.24422   29.45526  -152.78896   0.00142    90   % 10.8474
    91.000     572  -186.89388   34.10453  -152.78934   0.00106    91   % 10.9831
    92.000     582  -197.72109   44.93232  -152.78876   0.00167    92   % 11.1308
    93.000     592  -209.55870   56.77102  -152.78767   0.00279    93   % 11.3010
    94.000     602  -211.84990   59.05960  -152.79030   0.00021    94   % 11.4950
    95.000     612  -200.32333   47.53561  -152.78772   0.00283    95   % 11.6907
    96.000     622  -186.63543   33.83957  -152.79586  -0.00528    96   % 11.8438
    97.000     632  -196.50667   43.71655  -152.79012   0.00048    97   % 11.9092
    98.000     642  -210.50984   57.71793  -152.79191  -0.00128    98   % 11.9092
    99.000     652  -211.76334   58.97038  -152.79297  -0.00229    99   % 11.8927
   100.000     662  -201.71334   48.92151  -152.79183  -0.00112   100   % 11.8970
   101.000     672  -189.62451   36.78556  -152.83895  -0.04821   101   % 11.9436
   102.000     680  -182.30914   29.51833  -152.79081  -0.00005   102   % 12.0369
   103.000     687  -181.79494   29.00496  -152.78998   0.00080   103   % 12.1765
   104.000     693  -188.24887   35.48613  -152.76274   0.02806   104   % 12.3655
   105.000     702  -200.09686   47.31057  -152.78630   0.00454   105   % 12.6105
   106.000     712  -210.55199   57.76382  -152.78818   0.00269   106   % 12.9095
   107.000     722  -210.47031   57.68022  -152.79010   0.00082   107   % 13.2405
   108.000     732  -198.40349   45.61369  -152.78980   0.00115   108   % 13.5643
   109.000     742  -189.71316   36.92167  -152.79149  -0.00052   109   % 13.8318
   110.000     752  -201.99356   49.20132  -152.79223  -0.00123   110   % 14.0171
   111.000     762  -214.35614   61.56504  -152.79110  -0.00006   111   % 14.1587
   112.000     772  -213.78090   60.98702  -152.79388  -0.00279   112   % 14.3035
   113.000     782  -201.76112   48.94435  -152.81677  -0.02564   113   % 14.4828
   114.000     792  -190.64937   37.85932  -152.79006   0.00110   114   % 14.7004
   115.000     800  -184.47641   31.68539  -152.79102   0.00016   115   % 14.9402
   116.000     807  -184.01186   31.22083  -152.79103   0.00017   116   % 15.1892
   117.000     816  -189.00172   36.21063  -152.79108   0.00014   117   % 15.4413
   118.000     826  -198.14802   45.37974  -152.76828   0.02297   118   % 15.6975
   119.000     836  -210.11787   57.31429  -152.80358  -0.01229   119   % 15.9628
   120.000     846  -212.68877   59.89891  -152.78986   0.00147   120   % 16.2373
   121.000     856  -202.99160   50.19615  -152.79545  -0.00408   121   % 16.5056
   122.000     866  -190.79161   37.99828  -152.79333  -0.00194   122   % 16.7440
   123.000     876  -193.08725   40.29898  -152.78827   0.00316   123   % 16.9371
   124.000     886  -206.60002   53.80969  -152.79034   0.00112   124   % 17.0952
   125.000     896  -213.93214   61.13853  -152.79361  -0.00211   125   % 17.2427
   126.000     906  -209.38085   56.60337  -152.77748   0.01406   126   % 17.3936
   127.000     916  -199.68232   46.89228  -152.79004   0.00154   127   % 17.5461
   128.000     926  -191.90884   39.11691  -152.79192  -0.00032   128   % 17.6924
   129.000     936  -185.14280   32.35116  -152.79165  -0.00002   129   % 17.8250
   130.000     945  -183.03558   30.24396  -152.79162   0.00003   130   % 17.9420
   131.000     955  -183.04139   30.24971  -152.79167  -0.00000   131   % 18.0465
   132.000     965  -184.88518   32.09345  -152.79173  -0.00004   132   % 18.1413
   133.000     975  -191.00732   38.21573  -152.79159   0.00013   133   % 18.2303
   134.000     985  -197.92276   45.12711  -152.79565  -0.00390   134   % 18.3178
   135.000     995  -206.65659   53.91861  -152.73797   0.05381   135   % 18.4068
   136.000    1005  -209.46999   56.68131  -152.78868   0.00314   136   % 18.5047
   137.000    1015  -199.27617   46.48657  -152.78960   0.00226   137   % 18.6176
   138.000    1025  -181.03793   28.24532  -152.79261  -0.00073   138   % 18.7403
   139.000    1035  -180.81674   28.03001  -152.78673   0.00517   139   % 18.8616
   140.000    1045  -197.74533   44.94977  -152.79556  -0.00364   140   % 18.9829
   141.000    1055  -205.57775   52.78329  -152.79446  -0.00250   141   % 19.1182
   142.000    1065  -199.77743   46.98585  -152.79159   0.00041   142   % 19.2735
   143.000    1075  -187.96404   35.17067  -152.79337  -0.00135   143   % 19.4429
   144.000    1085  -178.27083   25.47836  -152.79248  -0.00043   144   % 19.6165
   145.000    1095  -173.07337   20.28136  -152.79201   0.00004   145   % 19.7877
   146.000    1105  -172.47185   19.67987  -152.79198   0.00009   146   % 19.9519
   147.000    1115  -176.21915   23.42713  -152.79202   0.00007   147   % 20.1062
   148.000    1125  -183.69838   30.90598  -152.79240  -0.00029   148   % 20.2502
   149.000    1135  -193.89515   41.10647  -152.78868   0.00345   149   % 20.3880
   150.000    1145  -202.30138   49.51091  -152.79048   0.00169   150   % 20.5285
   151.000    1155  -200.69549   47.90445  -152.79104   0.00115   151   % 20.6812
   152.000    1165  -186.94459   34.15471  -152.78988   0.00235   152   % 20.8439
   153.000    1175  -173.21979   20.42503  -152.79476  -0.00252   153   % 20.9947
   154.000    1185  -181.70779   28.91499  -152.79280  -0.00054   154   % 21.1072
   155.000    1195  -194.96630   42.17255  -152.79375  -0.00146   155   % 21.1908
   156.000    1205  -197.38568   44.59055  -152.79513  -0.00282   156   % 21.2724
   157.000    1215  -188.90241   36.12469  -152.77773   0.01462   157   % 21.3697
   158.000    1225  -178.64696   25.83890  -152.80805  -0.01569   158   % 21.4857
   159.000    1235  -171.26653   18.47473  -152.79180   0.00058   159   % 21.6120
   160.000    1245  -168.01063   15.21755  -152.79308  -0.00069   160   % 21.7384
   161.000    1255  -169.03788   16.24475  -152.79313  -0.00073   161   % 21.8595
   162.000    1265  -174.26794   21.47520  -152.79274  -0.00032   162   % 21.9737
   163.000    1275  -183.00415   30.20234  -152.80181  -0.00938   163   % 22.0835
   164.000    1285  -194.70322   41.89862  -152.80460  -0.01214   164   % 22.1938
   165.000    1295  -199.68038   46.89015  -152.79023   0.00226   165   % 22.3093
   166.000    1305  -191.96539   39.17288  -152.79252   0.00000   166   % 22.4246
   167.000    1315  -177.70732   24.91254  -152.79478  -0.00223   167   % 22.5240
   168.000    1325  -176.59579   23.80668  -152.78911   0.00345   168   % 22.5953
   169.000    1335  -189.50924   36.71797  -152.79128   0.00130   169   % 22.6478
   170.000    1345  -197.32114   44.52682  -152.79432  -0.00171   170   % 22.7013
   171.000    1355  -193.02650   40.23522  -152.79128   0.00136   171   % 22.7624
   172.000    1365  -182.82840   30.00149  -152.82690  -0.03424   172   % 22.8218
   173.000    1375  -174.07265   21.27957  -152.79308  -0.00040   173   % 22.8690
   174.000    1385  -169.77452   16.98153  -152.79299  -0.00030   174   % 22.8974
   175.000    1395  -170.06754   17.27473  -152.79281  -0.00011   175   % 22.9056
   176.000    1405  -175.52463   22.73163  -152.79301  -0.00029   176   % 22.8953
   177.000    1415  -185.79748   33.02079  -152.77669   0.01605   177   % 22.8721
   178.000    1425  -196.35724   43.56748  -152.78977   0.00300   178   % 22.8458
   179.000    1435  -195.34224   42.55037  -152.79187   0.00092   179   % 22.8329
   180.000    1445  -181.33785   28.54896  -152.78889   0.00392   180   % 22.8435
   181.000    1455  -170.23197   17.43965  -152.79233   0.00051   181   % 22.8770
   182.000    1465  -184.43336   31.63564  -152.79772  -0.00487   182   % 22.9317
   183.000    1475  -197.39262   44.59682  -152.79580  -0.00292   183   % 23.0073
   184.000    1485  -197.18689   44.39057  -152.79633  -0.00342   184   % 23.1000
   185.000    1495  -187.56220   34.76535  -152.79685  -0.00391   185   % 23.1953
   186.000    1505  -177.06309   24.27119  -152.79189   0.00106   186   % 23.2755
   187.000    1515  -172.14817   19.35524  -152.79293   0.00004   187   % 23.3285
   188.000    1525  -173.39726   20.60439  -152.79287   0.00011   188   % 23.3490
   189.000    1535  -181.47904   28.69944  -152.77960   0.01340   189   % 23.3365
   190.000    1545  -192.80487   40.01329  -152.79159   0.00144   190   % 23.2963
   191.000    1555  -199.91754   47.12722  -152.79032   0.00274   191   % 23.2420
   192.000    1565  -194.10443   41.31336  -152.79107   0.00201   192   % 23.1902
   193.000    1575  -177.07056   24.27896  -152.79160   0.00151   193   % 23.1502
   194.000    1585  -173.10522   20.31729  -152.78793   0.00519   194   % 23.1248
   195.000    1595  -189.95552   37.15749  -152.79803  -0.00489   195   % 23.1133
   196.000    1605  -199.99022   47.19491  -152.79531  -0.00213   196   % 23.1092
   197.000    1615  -196.32646   43.52986  -152.79659  -0.00339   197   % 23.1025
   198.000    1625  -185.55141   32.76145  -152.78996   0.00327   198   % 23.0763
   199.000    1635  -176.33919   23.54569  -152.79351  -0.00026   199   % 23.0168
   200.000    1645  -173.71317   20.91995  -152.79322   0.00005   200   % 22.9170



 **********************
 *                    *
 * JOB ENDED NORMALLY *
 *                    *
 **********************



 TOTAL JOB TIME:            88.80 SECONDS

 == MOPAC DONE ==
