 *******************************************************************************
 ** Site#: 37037        For non-commercial use only           Version 21.158W **
 *******************************************************************************
 ** Cite this program as: MOPAC2016, Version: 21.158W, James J. P. Stewart,   **
 ** Stewart Computational Chemistry, web: HTTP://OpenMOPAC.net. Days left: 364**
 *******************************************************************************
 **                                                                           **
 **                                MOPAC2016                                  **
 **                                                                           **
 *******************************************************************************

                              PM7 CALCULATION RESULTS

 *******************************************************************************
 *  CALCULATION DONE:                                Tue Jun  8 10:05:53 2021  *
 *  T=         - A TIME OF 172800.0 SECONDS REQUESTED
 *  DUMP=N     - RESTART FILE WRITTEN EVERY 7200.0 SECONDS REQUESTED
 *  NOTXT      - DO NOT PRINT TEXT ASSOCIATED WITH AN ATOM
 *  HTML       - WRITE HTML SCRIPT TO READ PDB FILE USING JSMOL
 *******************************************************************************
 notxt HTML
 Nitrobenzene + H2SO4 + H2O

   ATOM   CHEMICAL          X               Y               Z
  NUMBER   SYMBOL      (ANGSTROMS)     (ANGSTROMS)     (ANGSTROMS)
 
     1       C          0.30048000  *   1.74830000  *   0.87126000  *
     2       C          1.57603000  *   1.51518000  *   0.34686000  *
     3       C          2.07491000  *   2.39195000  *  -0.61075000  *
     4       C          1.30509000  *   3.47412000  *  -1.04105000  *
     5       C          0.02804000  *   3.68435000  *  -0.52319000  *
     6       C         -0.48750000  *   2.81805000  *   0.43801000  *
     7       N         -0.22410000  *   0.86067000  *   1.88978000  *
     8       H          2.17055000  *   0.65761000  *   0.67773000  *
     9       H          3.06683000  *   2.22714000  *  -1.03093000  *
    10       H          1.70443000  *   4.15677000  *  -1.79242000  *
    11       H         -0.57314000  *   4.52302000  *  -0.87314000  *
    12       H         -1.49767000  *   2.95532000  *   0.83723000  *
    13       O          0.23167000  *  -0.28624000  *   1.95761000  *
    14       O         -1.06006000  *   1.27235000  *   2.66598000  *
    15       O         -2.05722000  *   0.55231000  *   0.17582000  *
    16       H          0.65215000  *  -1.03089000  *   0.50426000  *
    17       H         -2.78689000  *   0.27768000  *   0.72816000  *
    18       H         -1.83257000  *  -0.21461000  *  -0.35672000  *
    19       S         -0.03279000  *  -2.59606000  *  -0.98439000  *
    20       O         -0.33938000  *  -3.57015000  *   0.00966000  *
    21       O         -1.39342000  *  -1.65002000  *  -1.22168000  *
    22       O          0.41018000  *  -2.93078000  *  -2.30402000  *
    23       O          0.91302000  *  -1.44035000  *  -0.36461000  *
    24       H         -1.63026000  *  -1.47836000  *  -2.14625000  *
 


          CARTESIAN COORDINATES 

    NO.       ATOM           X           Y           Z

     1         C          0.3005      1.7483      0.8713
     2         C          1.5760      1.5152      0.3469
     3         C          2.0749      2.3920     -0.6108
     4         C          1.3051      3.4741     -1.0411
     5         C          0.0280      3.6844     -0.5232
     6         C         -0.4875      2.8180      0.4380
     7         N         -0.2241      0.8607      1.8898
     8         H          2.1705      0.6576      0.6777
     9         H          3.0668      2.2271     -1.0309
    10         H          1.7044      4.1568     -1.7924
    11         H         -0.5731      4.5230     -0.8731
    12         H         -1.4977      2.9553      0.8372
    13         O          0.2317     -0.2862      1.9576
    14         O         -1.0601      1.2724      2.6660
    15         O         -2.0572      0.5523      0.1758
    16         H          0.6522     -1.0309      0.5043
    17         H         -2.7869      0.2777      0.7282
    18         H         -1.8326     -0.2146     -0.3567
    19         S         -0.0328     -2.5961     -0.9844
    20         O         -0.3394     -3.5701      0.0097
    21         O         -1.3934     -1.6500     -1.2217
    22         O          0.4102     -2.9308     -2.3040
    23         O          0.9130     -1.4404     -0.3646
    24         H         -1.6303     -1.4784     -2.1463

 General Reference for PM7:
 "Optimization of Parameters for Semiempirical Methods VI: More Modifications to the 
 NDDO Approximations and Re-optimization of Parameters", J. J. P. Stewart, J. Mol. Mod., 1:32, 19 (2013)
 https://link.springer.com/article/10.1007/s00894-012-1667-x

           Empirical Formula: C6 H9 N O7 S  =    24 atoms



      MOLECULAR POINT GROUP   :   C1  


      RHF CALCULATION, NO. OF DOUBLY OCCUPIED LEVELS = 43


          Geometry optimization using EF

     GRADIENT =  0.67563 IS LESS THAN CUTOFF =  1.00000



 -------------------------------------------------------------------------------
 notxt HTML
 Nitrobenzene + H2SO4 + H2O



     GRADIENTS WERE INITIALLY ACCEPTABLY SMALL                
     SCF FIELD WAS ACHIEVED                                   


                              PM7 CALCULATION
                                                       MOPAC2016 (Version: 21.158W)
                                                       Tue Jun  8 10:05:53 2021
                                                       No. of days remaining = 364




          FINAL HEAT OF FORMATION =       -236.05004 KCAL/MOL =    -987.63337 KJ/MOL


          TOTAL ENERGY            =      -3286.33733 EV
          ELECTRONIC ENERGY       =     -17867.07094 EV  POINT GROUP:     C1  
          CORE-CORE REPULSION     =      14580.73361 EV
          COSMO AREA              =        226.91 SQUARE ANGSTROMS
          COSMO VOLUME            =        243.37 CUBIC ANGSTROMS

          GRADIENT NORM           =          0.67563 = 0.13791 PER ATOM
          IONIZATION POTENTIAL    =         10.609331 EV
          HOMO LUMO ENERGIES (EV) =        -10.609 -1.304
          NO. OF FILLED LEVELS    =         43
          MOLECULAR WEIGHT        =        239.1996

          MOLECULAR DIMENSIONS (Angstroms)

            Atom       Atom       Distance
            O    20    H    10     8.19329
            O    22    O    14     6.18537
            H    17    H     8     4.42141


          SCF CALCULATIONS        =          1
 
          WALL-CLOCK TIME         =          0.078 SECONDS
          COMPUTATION TIME        =          0.219 SECONDS




   ATOM   CHEMICAL          X               Y               Z
  NUMBER   SYMBOL      (ANGSTROMS)     (ANGSTROMS)     (ANGSTROMS)
 
     1       C          0.30048000  *   1.74830000  *   0.87126000  *
     2       C          1.57603000  *   1.51518000  *   0.34686000  *
     3       C          2.07491000  *   2.39195000  *  -0.61075000  *
     4       C          1.30509000  *   3.47412000  *  -1.04105000  *
     5       C          0.02804000  *   3.68435000  *  -0.52319000  *
     6       C         -0.48750000  *   2.81805000  *   0.43801000  *
     7       N         -0.22410000  *   0.86067000  *   1.88978000  *
     8       H          2.17055000  *   0.65761000  *   0.67773000  *
     9       H          3.06683000  *   2.22714000  *  -1.03093000  *
    10       H          1.70443000  *   4.15677000  *  -1.79242000  *
    11       H         -0.57314000  *   4.52302000  *  -0.87314000  *
    12       H         -1.49767000  *   2.95532000  *   0.83723000  *
    13       O          0.23167000  *  -0.28624000  *   1.95761000  *
    14       O         -1.06006000  *   1.27235000  *   2.66598000  *
    15       O         -2.05722000  *   0.55231000  *   0.17582000  *
    16       H          0.65215000  *  -1.03089000  *   0.50426000  *
    17       H         -2.78689000  *   0.27768000  *   0.72816000  *
    18       H         -1.83257000  *  -0.21461000  *  -0.35672000  *
    19       S         -0.03279000  *  -2.59606000  *  -0.98439000  *
    20       O         -0.33938000  *  -3.57015000  *   0.00966000  *
    21       O         -1.39342000  *  -1.65002000  *  -1.22168000  *
    22       O          0.41018000  *  -2.93078000  *  -2.30402000  *
    23       O          0.91302000  *  -1.44035000  *  -0.36461000  *
    24       H         -1.63026000  *  -1.47836000  *  -2.14625000  *

                             CARTESIAN COORDINATES

   1    C        0.300480000     1.748300000     0.871260000
   2    C        1.576030000     1.515180000     0.346860000
   3    C        2.074910000     2.391950000    -0.610750000
   4    C        1.305090000     3.474120000    -1.041050000
   5    C        0.028040000     3.684350000    -0.523190000
   6    C       -0.487500000     2.818050000     0.438010000
   7    N       -0.224100000     0.860670000     1.889780000
   8    H        2.170550000     0.657610000     0.677730000
   9    H        3.066830000     2.227140000    -1.030930000
  10    H        1.704430000     4.156770000    -1.792420000
  11    H       -0.573140000     4.523020000    -0.873140000
  12    H       -1.497670000     2.955320000     0.837230000
  13    O        0.231670000    -0.286240000     1.957610000
  14    O       -1.060060000     1.272350000     2.665980000
  15    O       -2.057220000     0.552310000     0.175820000
  16    H        0.652150000    -1.030890000     0.504260000
  17    H       -2.786890000     0.277680000     0.728160000
  18    H       -1.832570000    -0.214610000    -0.356720000
  19    S       -0.032790000    -2.596060000    -0.984390000
  20    O       -0.339380000    -3.570150000     0.009660000
  21    O       -1.393420000    -1.650020000    -1.221680000
  22    O        0.410180000    -2.930780000    -2.304020000
  23    O        0.913020000    -1.440350000    -0.364610000
  24    H       -1.630260000    -1.478360000    -2.146250000


           Empirical Formula: C6 H9 N O7 S  =    24 atoms



      MOLECULAR POINT GROUP   :   C1  


                  EIGENVALUES  
 -37.34198 -31.42544 -30.91408 -30.70214 -29.40045 -28.94503 -28.53557 -28.23743
 -27.67751 -26.72787 -24.75921 -21.92533 -21.46640 -20.94744 -19.54277 -18.72828
 -18.10279 -17.89974 -17.45920 -17.18404 -16.82745 -15.89969 -15.72967 -15.61221
 -15.15277 -15.09389 -14.55491 -14.20519 -13.97335 -13.42489 -13.30122 -13.21235
 -12.82005 -12.76833 -12.59819 -12.19411 -12.17849 -12.05962 -11.68530 -11.65957
 -11.38749 -10.73220 -10.60933  -1.30440  -0.52289  -0.14795   0.24462   0.55184
   1.75658   2.19403   2.82849   3.20460   3.29619   3.47377   3.95697   4.08878
   4.11816   4.15696   4.31435   4.41054   4.49428   4.56500   4.76015   4.84261
   5.01613   5.14439   5.34343   5.43264   5.48208   5.56466   5.68625   6.06686
   6.50078   6.80296


              NET ATOMIC CHARGES AND DIPOLE CONTRIBUTIONS

  ATOM NO.   TYPE          CHARGE      No. of ELECS.   s-Pop       p-Pop       d-Pop       
    1          C          -0.072102        4.0721     1.07296     2.99915
    2          C          -0.083329        4.0833     1.09091     2.99242
    3          C          -0.170660        4.1707     1.08262     3.08804
    4          C          -0.092952        4.0930     1.09132     3.00163
    5          C          -0.180147        4.1801     1.08298     3.09716
    6          C          -0.047208        4.0472     1.09383     2.95338
    7          N           0.665042        4.3350     1.44912     2.88584
    8          H           0.184784        0.8152     0.81522
    9          H           0.164272        0.8357     0.83573
   10          H           0.156646        0.8434     0.84335
   11          H           0.165145        0.8349     0.83486
   12          H           0.186866        0.8131     0.81313
   13          O          -0.489728        6.4897     1.93924     4.55049
   14          O          -0.349895        6.3499     1.93974     4.41016
   15          O          -0.728695        6.7287     1.81138     4.91731
   16          H           0.424643        0.5754     0.57536
   17          H           0.344795        0.6552     0.65520
   18          H           0.367355        0.6326     0.63264
   19          S           2.599277        3.4007     1.10715     1.79471     0.49886
   20          O          -0.844891        6.8449     1.89078     4.95411
   21          O          -0.878685        6.8787     1.84257     5.03612
   22          O          -0.879132        6.8791     1.89182     4.98732
   23          O          -0.841343        6.8413     1.84218     4.99916
   24          H           0.399942        0.6001     0.60006
 DIPOLE           X         Y         Z       TOTAL
 POINT-CHG.     0.396     4.885    -2.776     5.633
 HYBRID        -0.523    -0.250     0.308     0.656
 SUM           -0.127     4.635    -2.468     5.253


          ATOMIC ORBITAL ELECTRON POPULATIONS

                  Atom                 s        px        py        pz      x^2-y^2     xz        z^2       yz        xy
   C(HETATM    1  C   HET A   1)   1.07296   1.00870   0.98990   1.00055
   C(HETATM    2  C   HET A   1)   1.09091   0.98709   1.03535   0.96998
   C(HETATM    3  C   HET A   1)   1.08262   1.07831   0.99438   1.01535
   C(HETATM    4  C   HET A   1)   1.09132   0.98943   1.00706   1.00514
   C(HETATM    5  C   HET A   1)   1.08298   1.02153   1.06014   1.01550
   C(HETATM    6  C   HET A   1)   1.09383   1.05828   0.93457   0.96052
   N(HETATM    7  N   HET A   1)   1.44912   0.94329   0.97320   0.96935
   H(HETATM    8  H   HET A   1)   0.81522
   H(HETATM    9  H   HET A   1)   0.83573
   H(HETATM   10  H   HET A   1)   0.84335
   H(HETATM   11  H   HET A   1)   0.83486
   H(HETATM   12  H   HET A   1)   0.81313
   O(HETATM   13  O   HET A   1)   1.93924   1.63675   1.11941   1.79433
   O(HETATM   14  O   HET A   1)   1.93974   1.25954   1.76213   1.38849
   O(HETATM   15  O   HET A   1)   1.81138   1.65877   1.56901   1.68953
   H(HETATM   16  H   HET A   1)   0.57536
   H(HETATM   17  H   HET A   1)   0.65520
   H(HETATM   18  H   HET A   1)   0.63264
   S(HETATM   19  S   HET A   1)   1.10715   0.57818   0.59814   0.61838   0.04759   0.09468   0.12632   0.13911   0.09116
   O(HETATM   20  O   HET A   1)   1.89078   1.78052   1.59096   1.58263
   O(HETATM   21  O   HET A   1)   1.84257   1.69680   1.82625   1.51307
   O(HETATM   22  O   HET A   1)   1.89182   1.77450   1.80275   1.41007
   O(HETATM   23  O   HET A   1)   1.84218   1.70654   1.69079   1.60183
   H(HETATM   24  H   HET A   1)   0.60006

 **********************
 *                    *
 * JOB ENDED NORMALLY *
 *                    *
 **********************



 TOTAL JOB TIME:             0.09 SECONDS

 == MOPAC DONE ==
