 *******************************************************************************
 ** Site#: 37037        For non-commercial use only           Version 21.158W **
 *******************************************************************************
 ** Cite this program as: MOPAC2016, Version: 21.158W, James J. P. Stewart,   **
 ** Stewart Computational Chemistry, web: HTTP://OpenMOPAC.net. Days left: 364**
 *******************************************************************************
 **                                                                           **
 **                                MOPAC2016                                  **
 **                                                                           **
 *******************************************************************************

                              PM7 CALCULATION RESULTS

 *******************************************************************************
 *  CALCULATION DONE:                                Tue Jun  8 10:10:42 2021  *
 *  GEO-OK     - OVERRIDE INTERATOMIC DISTANCE AND OTHER SAFETY CHECKS
 *  GEO_DAT    - DATA SET GEOMETRY IS IN FILE "Locate-ts bias=10.0 second.arc"
 *  GEO_REF    - REFERENCE GEOMETRY IS IN FILE "Locate-ts bias=10.0 first.arc"
 *               (NO BIAS TOWARDS THE REFERENCE GEOMETRY WILL BE APPLIED)
 *  SADDLE     - TRANSITION STATE TO BE OPTIMIZED
 *  T=         - A TIME OF 172800.0 SECONDS REQUESTED
 *  DUMP=N     - RESTART FILE WRITTEN EVERY 7200.0 SECONDS REQUESTED
 *  HTML       - WRITE HTML SCRIPT TO READ PDB FILE USING JSMOL
 *******************************************************************************
GEO_dat="Locate-ts bias=10.0 second.arc" GEO_REF="Locate-ts bias=10.0 first.arc" saddle   HTML geo-ok
 Move reactants and products near to the transition state

   ATOM                 CHEMICAL                   X               Y               Z
  NUMBER                 SYMBOL               (ANGSTROMS)     (ANGSTROMS)     (ANGSTROMS)
 
     1       C(HETATM    1  C1  HET A   1)    0.36971899  *   1.72157477  *  -0.74265112  *
     2       C(HETATM    2  C2  HET A   1)    1.68485305  *   1.39098557  *  -0.42534870  *
     3       C(HETATM    3  C3  HET A   1)    2.45241831  *   2.27994579  *   0.29955968  *
     4       C(HETATM    4  C4  HET A   1)    1.86986834  *   3.47033443  *   0.70934724  *
     5       C(HETATM    5  C5  HET A   1)    0.54512473  *   3.79444877  *   0.43480002  *
     6       C(HETATM    6  C6  HET A   1)   -0.21908463  *   2.90541859  *  -0.29539834  *
     7       N(HETATM    7  N   HET B   1)   -0.40873650  *   0.12706817  *   1.88953396  *
     8       H(HETATM    8  H2  HET A   1)    2.11809221  *   0.41379742  *  -0.64463132  *
     9       H(HETATM    9  H3  HET A   1)    3.50184178  *   2.04695633  *   0.44468075  *
    10       H(HETATM   10  H4  HET A   1)    2.50529438  *   4.23308418  *   1.11634449  *
    11       H(HETATM   11  H5  HET A   1)    0.09731268  *   4.74750350  *   0.69363398  *
    12       H(HETATM   12  H6  HET A   1)   -1.27877557  *   3.12657613  *  -0.41216771  *
    13       O(HETATM   13  O1  HET D   1)   -0.58221607  *  -0.60431877  *   2.73842533  *
    14       O(HETATM   14  O2  HET D   1)   -0.24297082  *   0.96974383  *   1.17224944  *
    15       O(HETATM   15  O   HOH E   2)   -2.50146089  *   0.43645270  *   0.34524938  *
    16       H(HETATM   16  H4  SO4 H   3)   -0.18835479  *   0.91913136  *  -1.25186044  *
    17       H(HETATM   17 1H   HOH E   2)   -3.39703806  *   0.23620668  *   0.57615868  *
    18       H(HETATM   18 2H   HOH E   2)   -2.26081164  *  -0.21786607  *  -0.36146740  *
    19       S(HETATM   19  S   SO4 H   3)   -0.31707106  *  -2.05295346  *  -1.21226249  *
    20       O(HETATM   20  O1  SO4 H   3)   -0.46822611  *  -3.29498938  *  -0.48829461  *
    21       O(HETATM   21  O2  SO4 H   3)   -1.89877199  *  -1.41309079  *  -1.50775028  *
    22       O(HETATM   22  O3  SO4 H   3)    0.20999523  *  -2.07529767  *  -2.56724585  *
    23       O(HETATM   23  O4  SO4 H   3)    0.16016882  *  -0.94098312  *  -0.31600300  *
    24       H(HETATM   24  H2  SO4 H   3)   -2.12932690  *  -1.34775681  *  -2.43709341  *
 

                        After docking

                     Atoms that move a lot

                     Atom Label             GEO_REF Coordinates       Movement    Integral

            (HETATM   16  H4  SO4 H   3)   0.145  -0.515   0.003        1.90         1.90
            (HETATM    1  C1  HET A   1)   0.436   1.642   0.916        1.73         3.63
            (HETATM   14  O2  HET D   1)  -1.099   1.073   2.521        1.64         5.27
            (HETATM   10  H4  HET A   1)   2.316   4.385  -0.860        1.63         6.90
            (HETATM    8  H2  HET A   1)   2.256   0.433   0.622        1.41         8.31
            (HETATM   12  H6  HET A   1)  -1.333   2.933   0.736        1.17         9.49
            (HETATM   13  O1  HET D   1)   0.174  -0.478   1.819        1.14        10.63
            (HETATM    2  C2  HET A   1)   1.754   1.398   0.517        1.10        11.73
            (HETATM    6  C6  HET A   1)  -0.263   2.796   0.571        0.95        12.68
            (HETATM    4  C4  HET A   1)   1.742   3.561  -0.474        0.92        13.60
            (HETATM   11  H5  HET A   1)  -0.097   4.717  -0.298        0.81        14.41
            (HETATM   24  H2  SO4 H   3)  -1.989  -0.971  -2.596        0.73        15.14
            (HETATM   23  O4  SO4 H   3)   0.484  -0.971  -0.793        0.63        15.77
            (HETATM   21  O2  SO4 H   3)  -1.788  -1.200  -1.681        0.56        16.33
            (HETATM   20  O1  SO4 H   3)  -0.791  -3.172  -0.593        0.55        16.88
            (HETATM    9  H3  HET A   1)   3.469   2.222  -0.412        0.54        17.42
            (HETATM    7  N   HET B   1)  -0.222   0.688   1.795        0.49        17.91
            (HETATM   19  S   SO4 H   3)  -0.413  -2.123  -1.482        0.45        18.36
            (HETATM   22  O3  SO4 H   3)   0.119  -2.351  -2.789        0.39        18.75
            (HETATM    5  C5  HET A   1)   0.415   3.777  -0.124        0.39        19.14
            (HETATM   15  O   HOH E   2)  -2.522   0.550   0.224        0.36        19.51
            (HETATM   18 2H   HOH E   2)  -2.294  -0.156  -0.382        0.28        19.78
            (HETATM    3  C3  HET A   1)   2.420   2.385  -0.177        0.23        20.01
            (HETATM   17 1H   HOH E   2)  -3.297   0.250   0.694        0.17        20.18

     Residues that move a lot and their (Movement in Angstroms, per atom)


   Difference between GEO_DAT and GEO_REF: 20.180 = total,  0.8408 = Average,  0.9815 = RMS, in Angstroms

 General Reference for PM7:
 "Optimization of Parameters for Semiempirical Methods VI: More Modifications to the 
 NDDO Approximations and Re-optimization of Parameters", J. J. P. Stewart, J. Mol. Mod., 1:32, 19 (2013)
 https://link.springer.com/article/10.1007/s00894-012-1667-x

           Empirical Formula: C6 H9 N O7 S  =    24 atoms



      MOLECULAR POINT GROUP   :   C1  


      RHF CALCULATION, NO. OF DOUBLY OCCUPIED LEVELS = 43



  CARTESIAN GEOMETRY OF FIRST SYSTEM


   1    C          0.43635       1.64153       0.91628
   2    C          1.75371       1.39773       0.51723
   3    C          2.42044       2.38509      -0.17704
   4    C          1.74160       3.56114      -0.47374
   5    C          0.41456       3.77688      -0.12419
   6    C         -0.26251       2.79579       0.57082
   7    N         -0.22234       0.68795       1.79532
   8    H          2.25609       0.43252       0.62242
   9    H          3.46922       2.22156      -0.41152
  10    H          2.31605       4.38495      -0.86032
  11    H         -0.09708       4.71749      -0.29805
  12    H         -1.33330       2.93326       0.73571
  13    O          0.17418      -0.47766       1.81865
  14    O         -1.09871       1.07293       2.52116
  15    O         -2.52242       0.55021       0.22376
  16    H          0.14542      -0.51490       0.00282
  17    H         -3.29711       0.25003       0.69435
  18    H         -2.29407      -0.15625      -0.38213
  19    S         -0.41300      -2.12346      -1.48213
  20    O         -0.79079      -3.17179      -0.59269
  21    O         -1.78788      -1.20003      -1.68124
  22    O          0.11935      -2.35081      -2.78932
  23    O          0.48354      -0.97138      -0.79251
  24    H         -1.98947      -0.97079      -2.59588


  CARTESIAN GEOMETRY OF SECOND SYSTEM


   1    C          0.29854       1.69631      -0.81016
   2    C          1.64164       1.41260      -0.57536
   3    C          2.43593       2.35455       0.04653
   4    C          1.85317       3.55039       0.43982
   5    C          0.50377       3.82957       0.24863
   6    C         -0.28755       2.88737      -0.37878
   7    N         -0.24336       0.21944       1.94702
   8    H          2.08372       0.43582      -0.77823
   9    H          3.49898       2.15345       0.12474
  10    H          2.49594       4.34719       0.76099
  11    H          0.05069       4.78392       0.49315
  12    H         -1.35846       3.07785      -0.42741
  13    O         -0.33499      -0.47188       2.84106
  14    O         -0.15282       1.02836       1.17921
  15    O         -2.45047       0.40200       0.54867
  16    H         -0.27349       0.85649      -1.23693
  17    H         -3.32119       0.19309       0.85474
  18    H         -2.24452      -0.28150      -0.14119
  19    S         -0.31955      -2.11197      -1.04310
  20    O         -0.38437      -3.31895      -0.25025
  21    O         -1.93509      -1.52450      -1.25150
  22    O          0.10788      -2.19065      -2.43068
  23    O          0.19180      -0.94538      -0.23990
  24    H         -2.23435      -1.51159      -2.16330


   "DISTANCE":     4.808410


  REACTION COORDINATE VECTOR


   1    C          0.13781      -0.05478       1.72644
   2    C          0.11206      -0.01488       1.09259
   3    C         -0.01549       0.03055      -0.22357
   4    C         -0.11157       0.01076      -0.91356
   5    C         -0.08921      -0.05269      -0.37282
   6    C          0.02504      -0.09158       0.94960
   7    N          0.02102       0.46851      -0.15170
   8    H          0.17238      -0.00330       1.40064
   9    H         -0.02976       0.06810      -0.53627
  10    H         -0.17988       0.03776      -1.62131
  11    H         -0.14778      -0.06643      -0.79119
  12    H          0.02516      -0.14459       1.16312
  13    O          0.50916      -0.00578      -1.02241
  14    O         -0.94589       0.04457       1.34195
  15    O         -0.07194       0.14821      -0.32491
  16    H          0.41891      -1.37139       1.23976
  17    H          0.02408       0.05694      -0.16039
  18    H         -0.04955       0.12525      -0.24094
  19    S         -0.09345      -0.01150      -0.43903
  20    O         -0.40642       0.14716      -0.34244
  21    O          0.14721       0.32448      -0.42973
  22    O          0.01146      -0.16016      -0.35864
  23    O          0.29174      -0.02600      -0.55261
  24    H          0.24488       0.54079      -0.43258
 *+*+*+*+*+*+*+*+*+*+*+*+*+*+*+*+*+*+*+*+*+*+*+*+*+*+*+*+*+*+*+*+*+*+*+*+*+*+*+*+
            BAR SHORTENED BY       0.000 PERCENT
 GRADIENT CRITERION IN FLEPO =     1.000
           THERE HAVE BEEN 3 ATTEMPTS TO REDUCE THE GRADIENT.
           DURING THESE ATTEMPTS THE ENERGY DROPPED BY LESS THAN 0.3 KCAL/MOLE
           FURTHER CALCULATION IS NOT JUSTIFIED AT THIS TIME.
           TO CONTINUE, START AGAIN WITH THE WORD "PRECISE"


          FOR POINT    1 SECOND STRUCTURE
 DISTANCE A - B      4.808410
 HEAT             -233.626735
 GRADIENT NORM      10.187731
 DIRECTION COSINE    0.000101
 HTML geo-ok
 Move reactants and products near to the transition state

  C(HETATM    1  C1  HET A   1)   0.00000000 +0    0.0000000 +0    0.0000000 +0
  C(HETATM    2  C2  HET A   1)   1.39910340 +1    0.0000000 +0    0.0000000 +0     1     0     0
  C(HETATM    3  C3  HET A   1)   1.39011901 +1  118.4890279 +1    0.0000000 +0     2     1     0
  C(HETATM    4  C4  HET A   1)   1.39560791 +1  120.2173494 +1   -1.6799450 +1     3     2     1
  C(HETATM    5  C5  HET A   1)   1.39371817 +1  120.2844933 +1   -5.5614894 +1     4     3     2
  C(HETATM    6  C6  HET A   1)   1.39168637 +1  120.0148832 +1    5.6510701 +1     5     4     3
  N(HETATM    7  N   HET B   1)   1.45333206 +1  119.6824702 +1 -167.2358525 +1     1     2     3
  H(HETATM    8  H2  HET A   1)   1.09365758 +1  121.1372598 +1  179.4422654 +1     2     1     3
  H(HETATM    9  H3  HET A   1)   1.08834392 +1  119.6203401 +1  177.3311205 +1     3     2     1
  H(HETATM   10  H4  HET A   1)   1.08961974 +1  119.7513956 +1  173.9495306 +1     4     3     2
  H(HETATM   11  H5  HET A   1)   1.08842098 +1  120.3066663 +1 -175.7102042 +1     5     4     3
  H(HETATM   12  H6  HET A   1)   1.09598883 +1  120.8375363 +1 -178.5907788 +1     6     5     4
  O(HETATM   13  O1  HET D   1)   1.23410979 +1  118.3338563 +1  -28.1521497 +1     7     1     2
  O(HETATM   14  O2  HET D   1)   1.21126599 +1  119.0046600 +1  147.5314924 +1     7     1     2
  O(HETATM   15  O   HOH E   2)   2.46767538 +1   92.0174324 +1 -127.4057347 +1     7     1     2
  H(HETATM   16  H4  SO4 H   3)   1.69362693 +1  109.5315820 +1  -37.3870097 +1    13     7     1
  H(HETATM   17 1H   HOH E   2)   0.95659289 +1   94.9735523 +1 -156.7946906 +1    15     7     1
  H(HETATM   18 2H   HOH E   2)   0.95943339 +1  108.9690249 +1   94.5849982 +1    15     7     1
  S(HETATM   19  S   SO4 H   3)   2.24341549 +1  134.7607483 +1 -124.3032392 +1    16    13     7
  O(HETATM   20  O1  SO4 H   3)   1.42573781 +1   94.6918119 +1  -37.9432655 +1    19    16    13
  O(HETATM   21  O2  SO4 H   3)   1.67348894 +1   85.3977419 +1   69.5196822 +1    19    16    13
  O(HETATM   22  O3  SO4 H   3)   1.43039190 +1  132.7253512 +1  176.1757927 +1    19    16    13
  O(HETATM   23  O4  SO4 H   3)   0.99216909 +1  172.3307658 +1 -170.1666557 +1    16    13     7
  H(HETATM   24  H2  SO4 H   3)   0.96939244 +1  116.2869555 +1  135.5544972 +1    21    19    16
 
 TIME=     0.75
  REACTANTS AND PRODUCTS SWAPPED AROUND
 *+*+*+*+*+*+*+*+*+*+*+*+*+*+*+*+*+*+*+*+*+*+*+*+*+*+*+*+*+*+*+*+*+*+*+*+*+*+*+*+
            BAR SHORTENED BY       1.000 PERCENT
 GRADIENT CRITERION IN FLEPO =     7.188


          FOR POINT    2 FIRST  STRUCTURE
 DISTANCE A - B      4.760326
 HEAT             -176.287834
 GRADIENT NORM      21.107118
 DIRECTION COSINE    0.478804
 HTML geo-ok
 Move reactants and products near to the transition state

  C(HETATM    1  C1  HET A   1)   0.00000000 +0    0.0000000 +0    0.0000000 +0
  C(HETATM    2  C2  HET A   1)   1.40751914 +1    0.0000000 +0    0.0000000 +0     1     0     0
  C(HETATM    3  C3  HET A   1)   1.39123923 +1  119.8451008 +1    0.0000000 +0     2     1     0
  C(HETATM    4  C4  HET A   1)   1.39933928 +1  119.8779194 +1    0.4559592 +1     3     2     1
  C(HETATM    5  C5  HET A   1)   1.39043765 +1  120.1214816 +1    3.1539816 +1     4     3     2
  C(HETATM    6  C6  HET A   1)   1.39710679 +1  120.4872191 +1   -2.3493666 +1     5     4     3
  N(HETATM    7  N   HET B   1)   3.11450554 +1   87.1326862 +1  -95.4848422 +1     1     2     3
  H(HETATM    8  H2  HET A   1)   1.09882686 +1  118.8353985 +1  178.6596993 +1     2     1     3
  H(HETATM    9  H3  HET A   1)   1.08771554 +1  120.2473607 +1 -176.1459379 +1     3     2     1
  H(HETATM   10  H4  HET A   1)   1.08283075 +1  119.5190601 +1 -176.6557428 +1     4     3     2
  H(HETATM   11  H5  HET A   1)   1.08907760 +1  119.3176657 +1  179.7919011 +1     5     4     3
  H(HETATM   12  H6  HET A   1)   1.09233600 +1  121.2223487 +1  179.6081589 +1     6     5     4
  O(HETATM   13  O1  HET D   1)   1.14235079 +1  162.3082673 +1  -60.4718458 +1     7     1     2
  O(HETATM   14  O2  HET D   1)   1.12690472 +1   16.3319708 +1  112.2633873 +1     7     1     2
  O(HETATM   15  O   HOH E   2)   2.41833459 +1   85.3493903 +1   87.9979015 +1    14     7     1
  H(HETATM   16  H4  SO4 H   3)   1.10905713 +1  117.7749635 +1  177.0812582 +1     1     2     3
  H(HETATM   17 1H   HOH E   2)   0.94522906 +1  151.3588327 +1   46.8323283 +1    15    14     7
  H(HETATM   18 2H   HOH E   2)   0.99551097 +1   99.2835843 +1  -98.1193075 +1    15    14     7
  S(HETATM   19  S   SO4 H   3)   2.79854278 +1  142.9559803 +1   31.0883332 +1    18    15    14
  O(HETATM   20  O1  SO4 H   3)   1.44936887 +1  110.1949609 +1   76.3831947 +1    19    18    15
  O(HETATM   21  O2  SO4 H   3)   1.68776973 +1  171.4728220 +1  106.1051183 +1    18    15    14
  O(HETATM   22  O3  SO4 H   3)   1.45853868 +1  122.2542033 +1 -136.5313978 +1    19    18    15
  O(HETATM   23  O4  SO4 H   3)   1.49857878 +1   64.0085560 +1  -30.0311160 +1    19    18    15
  H(HETATM   24  H2  SO4 H   3)   0.95616084 +1  121.7309541 +1  136.5426843 +1    21    18    15
 
 TIME=     0.20
  REACTANTS AND PRODUCTS SWAPPED AROUND
 *+*+*+*+*+*+*+*+*+*+*+*+*+*+*+*+*+*+*+*+*+*+*+*+*+*+*+*+*+*+*+*+*+*+*+*+*+*+*+*+
            BAR SHORTENED BY       1.000 PERCENT
 GRADIENT CRITERION IN FLEPO =    10.000


          FOR POINT    3 SECOND STRUCTURE
 DISTANCE A - B      4.712722
 HEAT             -233.249909
 GRADIENT NORM      15.977929
 DIRECTION COSINE    0.417980
 HTML geo-ok
 Move reactants and products near to the transition state

  C(HETATM    1  C1  HET A   1)   0.00000000 +0    0.0000000 +0    0.0000000 +0
  C(HETATM    2  C2  HET A   1)   1.39960889 +1    0.0000000 +0    0.0000000 +0     1     0     0
  C(HETATM    3  C3  HET A   1)   1.38913834 +1  118.5686698 +1    0.0000000 +0     2     1     0
  C(HETATM    4  C4  HET A   1)   1.39417087 +1  119.9988347 +1   -1.9708110 +1     3     2     1
  C(HETATM    5  C5  HET A   1)   1.39225668 +1  120.6046110 +1   -5.3728645 +1     4     3     2
  C(HETATM    6  C6  HET A   1)   1.39226960 +1  119.9251265 +1    5.5773095 +1     5     4     3
  N(HETATM    7  N   HET B   1)   1.45540399 +1  119.4852929 +1 -165.8092210 +1     1     2     3
  H(HETATM    8  H2  HET A   1)   1.09442306 +1  121.0090764 +1  179.0176052 +1     2     1     3
  H(HETATM    9  H3  HET A   1)   1.08903601 +1  119.4215607 +1  177.0765175 +1     3     2     1
  H(HETATM   10  H4  HET A   1)   1.08607514 +1  119.5964579 +1  174.2126712 +1     4     3     2
  H(HETATM   11  H5  HET A   1)   1.08728167 +1  120.8196335 +1 -175.8148499 +1     5     4     3
  H(HETATM   12  H6  HET A   1)   1.09377666 +1  120.9602417 +1 -178.5866910 +1     6     5     4
  O(HETATM   13  O1  HET D   1)   1.23279412 +1  118.5673031 +1  -28.9092338 +1     7     1     2
  O(HETATM   14  O2  HET D   1)   1.21082285 +1  118.7676323 +1  147.5721770 +1     7     1     2
  O(HETATM   15  O   HOH E   2)   2.46970134 +1   91.6112938 +1 -128.0271780 +1     7     1     2
  H(HETATM   16  H4  SO4 H   3)   1.69560570 +1  108.4041057 +1  -36.8822443 +1    13     7     1
  H(HETATM   17 1H   HOH E   2)   0.96321539 +1   95.8085685 +1 -157.8048623 +1    15     7     1
  H(HETATM   18 2H   HOH E   2)   0.95853747 +1  108.9083399 +1   94.4356096 +1    15     7     1
  S(HETATM   19  S   SO4 H   3)   2.24445945 +1  134.2604556 +1 -125.8608975 +1    16    13     7
  O(HETATM   20  O1  SO4 H   3)   1.42651828 +1   95.0923435 +1  -36.4419319 +1    19    16    13
  O(HETATM   21  O2  SO4 H   3)   1.67290596 +1   85.2063305 +1   70.9784545 +1    19    16    13
  O(HETATM   22  O3  SO4 H   3)   1.42888589 +1  132.2435786 +1  177.3810809 +1    19    16    13
  O(HETATM   23  O4  SO4 H   3)   0.99088039 +1  170.6376131 +1 -175.0765471 +1    16    13     7
  H(HETATM   24  H2  SO4 H   3)   0.96846145 +1  116.0920532 +1  134.8085371 +1    21    19    16
 
 *+*+*+*+*+*+*+*+*+*+*+*+*+*+*+*+*+*+*+*+*+*+*+*+*+*+*+*+*+*+*+*+*+*+*+*+*+*+*+*+
            BAR SHORTENED BY       1.000 PERCENT
 GRADIENT CRITERION IN FLEPO =    10.000


          FOR POINT    4 SECOND STRUCTURE
 DISTANCE A - B      4.665595
 HEAT             -232.852539
 GRADIENT NORM      19.101758
 DIRECTION COSINE    0.212226
 HTML geo-ok
 Move reactants and products near to the transition state

  C(HETATM    1  C1  HET A   1)   0.00000000 +0    0.0000000 +0    0.0000000 +0
  C(HETATM    2  C2  HET A   1)   1.39822207 +1    0.0000000 +0    0.0000000 +0     1     0     0
  C(HETATM    3  C3  HET A   1)   1.39292727 +1  118.5402409 +1    0.0000000 +0     2     1     0
  C(HETATM    4  C4  HET A   1)   1.39309830 +1  119.8721390 +1   -2.0798079 +1     3     2     1
  C(HETATM    5  C5  HET A   1)   1.39181265 +1  120.7831281 +1   -5.6160947 +1     4     3     2
  C(HETATM    6  C6  HET A   1)   1.39273397 +1  119.8741950 +1    5.6656877 +1     5     4     3
  N(HETATM    7  N   HET B   1)   1.45062750 +1  119.2655665 +1 -164.4932871 +1     1     2     3
  H(HETATM    8  H2  HET A   1)   1.09494461 +1  121.0500941 +1  178.7867047 +1     2     1     3
  H(HETATM    9  H3  HET A   1)   1.08923575 +1  119.2334201 +1  176.9025464 +1     3     2     1
  H(HETATM   10  H4  HET A   1)   1.09077149 +1  119.4813457 +1  174.2232733 +1     4     3     2
  H(HETATM   11  H5  HET A   1)   1.09073948 +1  120.9396164 +1 -176.0103757 +1     5     4     3
  H(HETATM   12  H6  HET A   1)   1.09543520 +1  121.2067082 +1 -178.8778742 +1     6     5     4
  O(HETATM   13  O1  HET D   1)   1.23456430 +1  118.8480004 +1  -29.2746422 +1     7     1     2
  O(HETATM   14  O2  HET D   1)   1.21716365 +1  118.5945854 +1  147.5494976 +1     7     1     2
  O(HETATM   15  O   HOH E   2)   2.47133912 +1   91.5057319 +1 -128.5524837 +1     7     1     2
  H(HETATM   16  H4  SO4 H   3)   1.69552873 +1  107.0266347 +1  -36.7904439 +1    13     7     1
  H(HETATM   17 1H   HOH E   2)   0.95496198 +1   96.8639339 +1 -157.1679985 +1    15     7     1
  H(HETATM   18 2H   HOH E   2)   0.96134419 +1  108.7249884 +1   93.8570522 +1    15     7     1
  S(HETATM   19  S   SO4 H   3)   2.24546492 +1  133.8735143 +1 -127.4192571 +1    16    13     7
  O(HETATM   20  O1  SO4 H   3)   1.42615531 +1   95.6729885 +1  -34.6830468 +1    19    16    13
  O(HETATM   21  O2  SO4 H   3)   1.67334841 +1   85.0020618 +1   72.5521930 +1    19    16    13
  O(HETATM   22  O3  SO4 H   3)   1.43165900 +1  131.9416534 +1  178.7347408 +1    19    16    13
  O(HETATM   23  O4  SO4 H   3)   0.99307904 +1  168.9513488 +1 -178.9848189 +1    16    13     7
  H(HETATM   24  H2  SO4 H   3)   0.97068850 +1  115.8689024 +1  134.0400791 +1    21    19    16
 
 *+*+*+*+*+*+*+*+*+*+*+*+*+*+*+*+*+*+*+*+*+*+*+*+*+*+*+*+*+*+*+*+*+*+*+*+*+*+*+*+
            BAR SHORTENED BY       1.000 PERCENT
 GRADIENT CRITERION IN FLEPO =    10.000


          FOR POINT    5 SECOND STRUCTURE
 DISTANCE A - B      4.618939
 HEAT             -232.397590
 GRADIENT NORM      19.230090
 DIRECTION COSINE    0.370594
 HTML geo-ok
 Move reactants and products near to the transition state

  C(HETATM    1  C1  HET A   1)   0.00000000 +0    0.0000000 +0    0.0000000 +0
  C(HETATM    2  C2  HET A   1)   1.39759475 +1    0.0000000 +0    0.0000000 +0     1     0     0
  C(HETATM    3  C3  HET A   1)   1.38956593 +1  118.5430084 +1    0.0000000 +0     2     1     0
  C(HETATM    4  C4  HET A   1)   1.39507970 +1  119.8228607 +1   -2.2273146 +1     3     2     1
  C(HETATM    5  C5  HET A   1)   1.39377702 +1  120.7633586 +1   -5.5218949 +1     4     3     2
  C(HETATM    6  C6  HET A   1)   1.39306897 +1  119.8149772 +1    5.5786736 +1     5     4     3
  N(HETATM    7  N   HET B   1)   1.45606642 +1  119.0724751 +1 -163.3335191 +1     1     2     3
  H(HETATM    8  H2  HET A   1)   1.09490110 +1  121.0703602 +1  178.6521020 +1     2     1     3
  H(HETATM    9  H3  HET A   1)   1.08981954 +1  119.4428805 +1  176.4907476 +1     3     2     1
  H(HETATM   10  H4  HET A   1)   1.08575207 +1  119.5188863 +1  174.2621637 +1     4     3     2
  H(HETATM   11  H5  HET A   1)   1.08711193 +1  120.9226093 +1 -176.1708216 +1     5     4     3
  H(HETATM   12  H6  HET A   1)   1.09515952 +1  121.1172284 +1 -178.6435681 +1     6     5     4
  O(HETATM   13  O1  HET D   1)   1.23412877 +1  118.8889507 +1  -29.7605279 +1     7     1     2
  O(HETATM   14  O2  HET D   1)   1.21161134 +1  118.3735962 +1  147.5446647 +1     7     1     2
  O(HETATM   15  O   HOH E   2)   2.47176269 +1   91.1913013 +1 -128.9588101 +1     7     1     2
  H(HETATM   16  H4  SO4 H   3)   1.69943112 +1  105.9660061 +1  -36.5772991 +1    13     7     1
  H(HETATM   17 1H   HOH E   2)   0.95551876 +1   97.3306762 +1 -157.1201437 +1    15     7     1
  H(HETATM   18 2H   HOH E   2)   0.95860707 +1  108.9007840 +1   93.7015951 +1    15     7     1
  S(HETATM   19  S   SO4 H   3)   2.24690335 +1  133.3346557 +1 -128.8100621 +1    16    13     7
  O(HETATM   20  O1  SO4 H   3)   1.42455658 +1   96.2065078 +1  -33.1745151 +1    19    16    13
  O(HETATM   21  O2  SO4 H   3)   1.67189534 +1   84.8006906 +1   74.0838787 +1    19    16    13
  O(HETATM   22  O3  SO4 H   3)   1.42496241 +1  131.5075205 +1  179.9383197 +1    19    16    13
  O(HETATM   23  O4  SO4 H   3)   0.98930443 +1  167.2065304 +1  178.4394067 +1    16    13     7
  H(HETATM   24  H2  SO4 H   3)   0.96874952 +1  115.9477196 +1  133.4406516 +1    21    19    16
 
 TIME=     0.28
  REACTANTS AND PRODUCTS SWAPPED AROUND
 *+*+*+*+*+*+*+*+*+*+*+*+*+*+*+*+*+*+*+*+*+*+*+*+*+*+*+*+*+*+*+*+*+*+*+*+*+*+*+*+
            BAR SHORTENED BY       0.000 PERCENT
 GRADIENT CRITERION IN FLEPO =    10.000


          FOR POINT    6 FIRST  STRUCTURE
 DISTANCE A - B      4.618939
 HEAT             -176.670938
 GRADIENT NORM      24.450434
 DIRECTION COSINE    0.344225
 HTML geo-ok
 Move reactants and products near to the transition state

  C(HETATM    1  C1  HET A   1)   0.00000000 +0    0.0000000 +0    0.0000000 +0
  C(HETATM    2  C2  HET A   1)   1.40446963 +1    0.0000000 +0    0.0000000 +0     1     0     0
  C(HETATM    3  C3  HET A   1)   1.38716377 +1  120.0620004 +1    0.0000000 +0     2     1     0
  C(HETATM    4  C4  HET A   1)   1.39758676 +1  119.8422836 +1    1.0508618 +1     3     2     1
  C(HETATM    5  C5  HET A   1)   1.39261860 +1  120.1850086 +1    2.3471923 +1     4     3     2
  C(HETATM    6  C6  HET A   1)   1.39341756 +1  120.0699817 +1   -4.4135052 +1     1     2     3
  N(HETATM    7  N   HET B   1)   3.11151838 +1   87.2577987 +1  -95.9153050 +1     1     2     3
  H(HETATM    8  H2  HET A   1)   1.09733953 +1  118.6156101 +1  179.0672108 +1     2     1     3
  H(HETATM    9  H3  HET A   1)   1.08782168 +1  120.2450377 +1 -176.9873627 +1     3     2     1
  H(HETATM   10  H4  HET A   1)   1.08669703 +1  119.4445481 +1 -176.5533104 +1     4     3     2
  H(HETATM   11  H5  HET A   1)   1.09031697 +1  119.6688292 +1  179.5153786 +1     5     4     3
  H(HETATM   12  H6  HET A   1)   1.08720977 +1  120.2799933 +1 -174.6223976 +1     6     1     2
  O(HETATM   13  O1  HET D   1)   1.14127493 +1  161.5836137 +1  -60.2945098 +1     7     1     2
  O(HETATM   14  O2  HET D   1)   1.12530385 +1   16.5710482 +1  111.0941653 +1     7     1     2
  O(HETATM   15  O   HOH E   2)   2.41342176 +1   84.7032664 +1   87.2917028 +1    14     7     1
  H(HETATM   16  H4  SO4 H   3)   1.10175955 +1  118.2175857 +1  176.8289505 +1     1     2     3
  H(HETATM   17 1H   HOH E   2)   0.94549272 +1  152.2701981 +1   47.6146813 +1    15    14     7
  H(HETATM   18 2H   HOH E   2)   1.00488465 +1   98.8459479 +1  -98.0353193 +1    15    14     7
  S(HETATM   19  S   SO4 H   3)   2.79342958 +1  143.1904556 +1   31.7246689 +1    18    15    14
  O(HETATM   20  O1  SO4 H   3)   1.45371397 +1  110.2462246 +1   76.2238600 +1    19    18    15
  O(HETATM   21  O2  SO4 H   3)   1.68259979 +1  171.4610439 +1  108.5741372 +1    18    15    14
  O(HETATM   22  O3  SO4 H   3)   1.45533792 +1  121.9509573 +1 -136.8021411 +1    19    18    15
  O(HETATM   23  O4  SO4 H   3)   1.49978236 +1   64.2811384 +1  -29.8906117 +1    19    18    15
  H(HETATM   24  H2  SO4 H   3)   0.95573288 +1  121.9512977 +1  133.6201091 +1    21    18    15
 
 TIME=     0.09
  REACTANTS AND PRODUCTS SWAPPED AROUND
 *+*+*+*+*+*+*+*+*+*+*+*+*+*+*+*+*+*+*+*+*+*+*+*+*+*+*+*+*+*+*+*+*+*+*+*+*+*+*+*+
            BAR SHORTENED BY       1.000 PERCENT
 GRADIENT CRITERION IN FLEPO =    10.000


          FOR POINT    7 SECOND STRUCTURE
 DISTANCE A - B      4.572750
 HEAT             -231.846350
 GRADIENT NORM      24.480309
 DIRECTION COSINE    0.134612
 HTML geo-ok
 Move reactants and products near to the transition state

  C(HETATM    1  C1  HET A   1)   0.00000000 +0    0.0000000 +0    0.0000000 +0
  C(HETATM    2  C2  HET A   1)   1.39950388 +1    0.0000000 +0    0.0000000 +0     1     0     0
  C(HETATM    3  C3  HET A   1)   1.38734643 +1  118.6701813 +1    0.0000000 +0     2     1     0
  C(HETATM    4  C4  HET A   1)   1.39466763 +1  119.7329262 +1   -2.8749601 +1     3     2     1
  C(HETATM    5  C5  HET A   1)   1.39823736 +1  120.8398686 +1   -5.4332579 +1     4     3     2
  C(HETATM    6  C6  HET A   1)   1.39513854 +1  119.7020220 +1    5.6410545 +1     5     4     3
  N(HETATM    7  N   HET B   1)   1.45502168 +1  119.1672786 +1 -162.1957662 +1     1     2     3
  H(HETATM    8  H2  HET A   1)   1.09486540 +1  120.7838919 +1  177.8377291 +1     2     1     3
  H(HETATM    9  H3  HET A   1)   1.08760245 +1  119.2652599 +1  175.9796432 +1     3     2     1
  H(HETATM   10  H4  HET A   1)   1.08734560 +1  119.4591423 +1  174.0863928 +1     4     3     2
  H(HETATM   11  H5  HET A   1)   1.08509087 +1  120.7970024 +1 -176.5325988 +1     5     4     3
  H(HETATM   12  H6  HET A   1)   1.09228167 +1  120.8356113 +1 -178.7874232 +1     6     5     4
  O(HETATM   13  O1  HET D   1)   1.23426833 +1  119.1183623 +1  -29.2472483 +1     7     1     2
  O(HETATM   14  O2  HET D   1)   1.21290442 +1  118.0540508 +1  147.7796455 +1     7     1     2
  O(HETATM   15  O   HOH E   2)   2.47253802 +1   91.1081070 +1 -129.0917661 +1     7     1     2
  H(HETATM   16  H4  SO4 H   3)   1.70834482 +1  104.5013753 +1  -37.1576588 +1    13     7     1
  H(HETATM   17 1H   HOH E   2)   0.96023254 +1   98.0183348 +1 -157.0975522 +1    15     7     1
  H(HETATM   18 2H   HOH E   2)   0.95677709 +1  109.4318736 +1   94.0181402 +1    15     7     1
  S(HETATM   19  S   SO4 H   3)   2.24734076 +1  132.9445779 +1 -129.9227131 +1    16    13     7
  O(HETATM   20  O1  SO4 H   3)   1.43245417 +1   96.6624419 +1  -31.5899187 +1    19    16    13
  O(HETATM   21  O2  SO4 H   3)   1.67299464 +1   84.5642490 +1   75.7238833 +1    19    16    13
  O(HETATM   22  O3  SO4 H   3)   1.43020074 +1  131.1511636 +1 -178.6244740 +1    19    16    13
  O(HETATM   23  O4  SO4 H   3)   0.98912188 +1  165.4388214 +1  176.0355155 +1    16    13     7
  H(HETATM   24  H2  SO4 H   3)   0.96860568 +1  115.7620381 +1  133.0310303 +1    21    19    16
 
 *+*+*+*+*+*+*+*+*+*+*+*+*+*+*+*+*+*+*+*+*+*+*+*+*+*+*+*+*+*+*+*+*+*+*+*+*+*+*+*+
            BAR SHORTENED BY       1.000 PERCENT
 GRADIENT CRITERION IN FLEPO =    10.000


          FOR POINT    8 SECOND STRUCTURE
 DISTANCE A - B      4.527022
 HEAT             -231.270740
 GRADIENT NORM      26.593894
 DIRECTION COSINE    0.372360
 HTML geo-ok
 Move reactants and products near to the transition state

  C(HETATM    1  C1  HET A   1)   0.00000000 +0    0.0000000 +0    0.0000000 +0
  C(HETATM    2  C2  HET A   1)   1.40027199 +1    0.0000000 +0    0.0000000 +0     1     0     0
  C(HETATM    3  C3  HET A   1)   1.38865683 +1  118.7660938 +1    0.0000000 +0     2     1     0
  C(HETATM    4  C4  HET A   1)   1.39671366 +1  119.6101759 +1   -2.4997979 +1     3     2     1
  C(HETATM    5  C5  HET A   1)   1.39390604 +1  120.7339295 +1   -5.7294769 +1     4     3     2
  C(HETATM    6  C6  HET A   1)   1.38719654 +1  120.0147660 +1    5.4518164 +1     5     4     3
  N(HETATM    7  N   HET B   1)   1.45393646 +1  118.9848118 +1 -161.2510275 +1     1     2     3
  H(HETATM    8  H2  HET A   1)   1.09569278 +1  120.7697782 +1  178.4365786 +1     2     1     3
  H(HETATM    9  H3  HET A   1)   1.08950502 +1  119.1622697 +1  176.0207281 +1     3     2     1
  H(HETATM   10  H4  HET A   1)   1.08507276 +1  119.2794672 +1  173.7123894 +1     4     3     2
  H(HETATM   11  H5  HET A   1)   1.08915192 +1  120.7479212 +1 -176.7483780 +1     5     4     3
  H(HETATM   12  H6  HET A   1)   1.09890568 +1  121.2759101 +1 -179.1651576 +1     6     5     4
  O(HETATM   13  O1  HET D   1)   1.23264321 +1  119.4278542 +1  -29.9099703 +1     7     1     2
  O(HETATM   14  O2  HET D   1)   1.21312766 +1  117.8530697 +1  147.4051023 +1     7     1     2
  O(HETATM   15  O   HOH E   2)   2.47308766 +1   90.9282382 +1 -129.7940088 +1     7     1     2
  H(HETATM   16  H4  SO4 H   3)   1.71737043 +1  103.2699456 +1  -36.9618104 +1    13     7     1
  H(HETATM   17 1H   HOH E   2)   0.95668723 +1   98.8318789 +1 -156.5882327 +1    15     7     1
  H(HETATM   18 2H   HOH E   2)   0.95394957 +1  109.4145709 +1   93.1447650 +1    15     7     1
  S(HETATM   19  S   SO4 H   3)   2.24739954 +1  132.3529923 +1 -131.2711609 +1    16    13     7
  O(HETATM   20  O1  SO4 H   3)   1.42467608 +1   97.2561479 +1  -30.2174627 +1    19    16    13
  O(HETATM   21  O2  SO4 H   3)   1.67253362 +1   84.2950294 +1   77.2210900 +1    19    16    13
  O(HETATM   22  O3  SO4 H   3)   1.42958414 +1  130.6464912 +1 -177.6765588 +1    19    16    13
  O(HETATM   23  O4  SO4 H   3)   0.98059994 +1  164.8138209 +1  173.8817204 +1    16    13     7
  H(HETATM   24  H2  SO4 H   3)   0.96447636 +1  115.7948107 +1  133.0808735 +1    21    19    16
 
 *+*+*+*+*+*+*+*+*+*+*+*+*+*+*+*+*+*+*+*+*+*+*+*+*+*+*+*+*+*+*+*+*+*+*+*+*+*+*+*+
            BAR SHORTENED BY       1.000 PERCENT
 GRADIENT CRITERION IN FLEPO =    10.000


          FOR POINT    9 SECOND STRUCTURE
 DISTANCE A - B      4.481752
 HEAT             -230.760126
 GRADIENT NORM      25.191877
 DIRECTION COSINE    0.554735
 HTML geo-ok
 Move reactants and products near to the transition state

  C(HETATM    1  C1  HET A   1)   0.00000000 +0    0.0000000 +0    0.0000000 +0
  C(HETATM    2  C2  HET A   1)   1.39845931 +1    0.0000000 +0    0.0000000 +0     1     0     0
  C(HETATM    3  C3  HET A   1)   1.38807569 +1  118.6234390 +1    0.0000000 +0     2     1     0
  C(HETATM    4  C4  HET A   1)   1.39259392 +1  119.7204768 +1   -2.7958293 +1     3     2     1
  C(HETATM    5  C5  HET A   1)   1.39631848 +1  120.7950507 +1   -5.7693056 +1     4     3     2
  C(HETATM    6  C6  HET A   1)   1.39022265 +1  119.8852863 +1    5.8301431 +1     5     4     3
  N(HETATM    7  N   HET B   1)   1.45897150 +1  118.9006249 +1 -159.9715721 +1     1     2     3
  H(HETATM    8  H2  HET A   1)   1.09438218 +1  120.8567473 +1  177.9069596 +1     2     1     3
  H(HETATM    9  H3  HET A   1)   1.08706054 +1  119.1340288 +1  175.6485968 +1     3     2     1
  H(HETATM   10  H4  HET A   1)   1.09563552 +1  119.2091993 +1  173.4404948 +1     4     3     2
  H(HETATM   11  H5  HET A   1)   1.08660746 +1  121.0023645 +1 -176.7427842 +1     5     4     3
  H(HETATM   12  H6  HET A   1)   1.09470339 +1  121.2546686 +1 -178.9386708 +1     6     5     4
  O(HETATM   13  O1  HET D   1)   1.23287154 +1  119.4727306 +1  -30.1893523 +1     7     1     2
  O(HETATM   14  O2  HET D   1)   1.20985701 +1  117.7380536 +1  147.4268684 +1     7     1     2
  O(HETATM   15  O   HOH E   2)   2.47748825 +1   90.7780752 +1 -130.2817155 +1     7     1     2
  H(HETATM   16  H4  SO4 H   3)   1.70838451 +1  102.2002923 +1  -36.8099188 +1    13     7     1
  H(HETATM   17 1H   HOH E   2)   0.95393501 +1   99.2795003 +1 -157.1503253 +1    15     7     1
  H(HETATM   18 2H   HOH E   2)   0.95917742 +1  108.9524579 +1   92.5713922 +1    15     7     1
  S(HETATM   19  S   SO4 H   3)   2.25205862 +1  132.0930333 +1 -132.6123461 +1    16    13     7
  O(HETATM   20  O1  SO4 H   3)   1.42635266 +1   97.0961579 +1  -29.1675737 +1    19    16    13
  O(HETATM   21  O2  SO4 H   3)   1.67382541 +1   84.0841954 +1   78.5624653 +1    19    16    13
  O(HETATM   22  O3  SO4 H   3)   1.43096472 +1  130.7635358 +1 -176.6263819 +1    19    16    13
  O(HETATM   23  O4  SO4 H   3)   0.99466944 +1  163.0969924 +1  173.9183423 +1    16    13     7
  H(HETATM   24  H2  SO4 H   3)   0.96786110 +1  115.8327386 +1  133.0319513 +1    21    19    16
 
 TIME=     0.27
  REACTANTS AND PRODUCTS SWAPPED AROUND
 *+*+*+*+*+*+*+*+*+*+*+*+*+*+*+*+*+*+*+*+*+*+*+*+*+*+*+*+*+*+*+*+*+*+*+*+*+*+*+*+
            BAR SHORTENED BY       0.000 PERCENT
 GRADIENT CRITERION IN FLEPO =    10.000


          FOR POINT   10 FIRST  STRUCTURE
 DISTANCE A - B      4.481752
 HEAT             -183.331551
 GRADIENT NORM      24.171133
 DIRECTION COSINE   -0.011006
 HTML geo-ok
 Move reactants and products near to the transition state

  C(HETATM    1  C1  HET A   1)   0.00000000 +0    0.0000000 +0    0.0000000 +0
  C(HETATM    2  C2  HET A   1)   1.39913637 +1    0.0000000 +0    0.0000000 +0     1     0     0
  C(HETATM    3  C3  HET A   1)   1.38861012 +1  119.7862709 +1    0.0000000 +0     2     1     0
  C(HETATM    4  C4  HET A   1)   1.39447439 +1  119.8531438 +1    1.7704085 +1     3     2     1
  C(HETATM    5  C5  HET A   1)   1.39449625 +1  120.4608008 +1    3.0546093 +1     4     3     2
  C(HETATM    6  C6  HET A   1)   1.39728081 +1  119.7787405 +1   -2.8293917 +1     5     4     3
  N(HETATM    7  N   HET B   1)   3.15740951 +1   93.0676532 +1 -103.8737951 +1     1     2     3
  H(HETATM    8  H2  HET A   1)   1.09403910 +1  119.2654201 +1 -179.8813395 +1     2     1     3
  H(HETATM    9  H3  HET A   1)   1.08596978 +1  119.9504805 +1 -177.3649759 +1     3     2     1
  H(HETATM   10  H4  HET A   1)   1.08929050 +1  119.8230996 +1 -176.2337908 +1     4     3     2
  H(HETATM   11  H5  HET A   1)   1.08196723 +1  120.3264507 +1  178.7175160 +1     5     4     3
  H(HETATM   12  H6  HET A   1)   1.09136199 +1  120.7316511 +1  179.3768889 +1     6     5     4
  O(HETATM   13  O1  HET D   1)   1.13511000 +1  153.6599751 +1  -81.3679585 +1     7     1     2
  O(HETATM   14  O2  HET D   1)   1.13254505 +1   24.3205554 +1   96.9088707 +1     7     1     2
  O(HETATM   15  O   HOH E   2)   2.43911877 +1   76.7212295 +1   76.4844366 +1    14     7     1
  H(HETATM   16  H4  SO4 H   3)   1.09663339 +1  118.2039569 +1  173.0898568 +1     1     2     3
  H(HETATM   17 1H   HOH E   2)   0.94867865 +1  159.1926741 +1   70.2559470 +1    15    14     7
  H(HETATM   18 2H   HOH E   2)   0.99610844 +1   95.5014666 +1  -87.7250914 +1    15    14     7
  S(HETATM   19  S   SO4 H   3)   2.75885446 +1  145.8158846 +1   35.4937440 +1    18    15    14
  O(HETATM   20  O1  SO4 H   3)   1.45122452 +1  115.2780562 +1   86.0589191 +1    19    18    15
  O(HETATM   21  O2  SO4 H   3)   1.67099160 +1  172.5979604 +1  137.6485624 +1    18    15    14
  O(HETATM   22  O3  SO4 H   3)   1.46188509 +1  117.9540981 +1 -124.8873262 +1    19    18    15
  O(HETATM   23  O4  SO4 H   3)   1.49965467 +1   62.4325081 +1  -19.8163308 +1    19    18    15
  H(HETATM   24  H2  SO4 H   3)   0.95688742 +1  119.4858589 +1  113.4183353 +1    21    18    15
 
 TIME=     0.33
  REACTANTS AND PRODUCTS SWAPPED AROUND
 *+*+*+*+*+*+*+*+*+*+*+*+*+*+*+*+*+*+*+*+*+*+*+*+*+*+*+*+*+*+*+*+*+*+*+*+*+*+*+*+
            BAR SHORTENED BY       1.000 PERCENT
 GRADIENT CRITERION IN FLEPO =    10.000


          FOR POINT   11 SECOND STRUCTURE
 DISTANCE A - B      4.436935
 HEAT             -230.143588
 GRADIENT NORM      25.019942
 DIRECTION COSINE    0.139551
 HTML geo-ok
 Move reactants and products near to the transition state

  C(HETATM    1  C1  HET A   1)   0.00000000 +0    0.0000000 +0    0.0000000 +0
  C(HETATM    2  C2  HET A   1)   1.39766260 +1    0.0000000 +0    0.0000000 +0     1     0     0
  C(HETATM    3  C3  HET A   1)   1.38997965 +1  118.6982128 +1    0.0000000 +0     2     1     0
  C(HETATM    4  C4  HET A   1)   1.39731004 +1  119.7237144 +1   -2.8548649 +1     3     2     1
  C(HETATM    5  C5  HET A   1)   1.39509760 +1  120.5611003 +1   -6.0505169 +1     4     3     2
  C(HETATM    6  C6  HET A   1)   1.39127695 +1  120.0438813 +1    5.9213942 +1     5     4     3
  N(HETATM    7  N   HET B   1)   1.45952461 +1  118.9461167 +1 -159.3128186 +1     1     2     3
  H(HETATM    8  H2  HET A   1)   1.09373713 +1  121.1010869 +1  177.7817283 +1     2     1     3
  H(HETATM    9  H3  HET A   1)   1.09449863 +1  119.6390629 +1  175.6164819 +1     3     2     1
  H(HETATM   10  H4  HET A   1)   1.08518368 +1  119.2132015 +1  173.4905642 +1     4     3     2
  H(HETATM   11  H5  HET A   1)   1.08418869 +1  120.6495799 +1 -176.5484276 +1     5     4     3
  H(HETATM   12  H6  HET A   1)   1.09551432 +1  121.3584885 +1 -178.9863302 +1     6     5     4
  O(HETATM   13  O1  HET D   1)   1.23265017 +1  119.9719415 +1  -30.1151897 +1     7     1     2
  O(HETATM   14  O2  HET D   1)   1.21241576 +1  117.5108407 +1  147.3316450 +1     7     1     2
  O(HETATM   15  O   HOH E   2)   2.47290872 +1   90.8928624 +1 -130.4015909 +1     7     1     2
  H(HETATM   16  H4  SO4 H   3)   1.72279928 +1  100.8174648 +1  -36.9012493 +1    13     7     1
  H(HETATM   17 1H   HOH E   2)   0.95319754 +1  100.1167957 +1 -156.7225412 +1    15     7     1
  H(HETATM   18 2H   HOH E   2)   0.95922189 +1  109.0755052 +1   92.6886803 +1    15     7     1
  S(HETATM   19  S   SO4 H   3)   2.24719005 +1  131.4096922 +1 -134.1077494 +1    16    13     7
  O(HETATM   20  O1  SO4 H   3)   1.42469962 +1   97.9271070 +1  -27.4427740 +1    19    16    13
  O(HETATM   21  O2  SO4 H   3)   1.67106404 +1   83.7791679 +1   79.5930242 +1    19    16    13
  O(HETATM   22  O3  SO4 H   3)   1.42904151 +1  130.0179310 +1 -175.2939657 +1    19    16    13
  O(HETATM   23  O4  SO4 H   3)   0.98434757 +1  161.0203010 +1  172.4424925 +1    16    13     7
  H(HETATM   24  H2  SO4 H   3)   0.97181323 +1  115.5039610 +1  131.2470595 +1    21    19    16
 
 *+*+*+*+*+*+*+*+*+*+*+*+*+*+*+*+*+*+*+*+*+*+*+*+*+*+*+*+*+*+*+*+*+*+*+*+*+*+*+*+
            BAR SHORTENED BY       1.000 PERCENT
 GRADIENT CRITERION IN FLEPO =    10.000


          FOR POINT   12 SECOND STRUCTURE
 DISTANCE A - B      4.392565
 HEAT             -229.650536
 GRADIENT NORM      22.756625
 DIRECTION COSINE    0.616707
 HTML geo-ok
 Move reactants and products near to the transition state

  C(HETATM    1  C1  HET A   1)   0.00000000 +0    0.0000000 +0    0.0000000 +0
  C(HETATM    2  C2  HET A   1)   1.39980626 +1    0.0000000 +0    0.0000000 +0     1     0     0
  C(HETATM    3  C3  HET A   1)   1.38949962 +1  118.7740339 +1    0.0000000 +0     2     1     0
  C(HETATM    4  C4  HET A   1)   1.39681490 +1  119.8502771 +1   -2.6611194 +1     3     2     1
  C(HETATM    5  C5  HET A   1)   1.39469442 +1  120.2911416 +1   -6.7379036 +1     4     3     2
  C(HETATM    6  C6  HET A   1)   1.39250194 +1  120.1328981 +1    6.6398640 +1     5     4     3
  N(HETATM    7  N   HET B   1)   1.45290741 +1  119.5252699 +1 -158.9301356 +1     1     2     3
  H(HETATM    8  H2  HET A   1)   1.09360727 +1  121.3137604 +1  178.3613190 +1     2     1     3
  H(HETATM    9  H3  HET A   1)   1.08839997 +1  120.1422989 +1  174.7373648 +1     3     2     1
  H(HETATM   10  H4  HET A   1)   1.09240037 +1  119.7567246 +1  171.7065377 +1     4     3     2
  H(HETATM   11  H5  HET A   1)   1.09207407 +1  120.2160014 +1 -176.1761505 +1     5     4     3
  H(HETATM   12  H6  HET A   1)   1.09403264 +1  120.8657870 +1 -178.2363175 +1     6     5     4
  O(HETATM   13  O1  HET D   1)   1.23651328 +1  119.8092251 +1  -29.2288950 +1     7     1     2
  O(HETATM   14  O2  HET D   1)   1.21450808 +1  117.5758255 +1  146.7790953 +1     7     1     2
  O(HETATM   15  O   HOH E   2)   2.47551617 +1   91.4165306 +1 -130.4823208 +1     7     1     2
  H(HETATM   16  H4  SO4 H   3)   1.71645397 +1   99.6102117 +1  -38.0679089 +1    13     7     1
  H(HETATM   17 1H   HOH E   2)   0.95649029 +1  100.4281947 +1 -156.2996484 +1    15     7     1
  H(HETATM   18 2H   HOH E   2)   0.95667595 +1  109.4915604 +1   93.0103273 +1    15     7     1
  S(HETATM   19  S   SO4 H   3)   2.24970456 +1  131.3450705 +1 -135.1168967 +1    16    13     7
  O(HETATM   20  O1  SO4 H   3)   1.42287196 +1   98.4297798 +1  -25.6594629 +1    19    16    13
  O(HETATM   21  O2  SO4 H   3)   1.67845753 +1   83.6202959 +1   81.2388295 +1    19    16    13
  O(HETATM   22  O3  SO4 H   3)   1.42633345 +1  129.7858038 +1 -174.1980659 +1    19    16    13
  O(HETATM   23  O4  SO4 H   3)   0.98776616 +1  160.2556783 +1  170.5792553 +1    16    13     7
  H(HETATM   24  H2  SO4 H   3)   0.96894132 +1  115.7754381 +1  129.7181393 +1    21    19    16
 
 *+*+*+*+*+*+*+*+*+*+*+*+*+*+*+*+*+*+*+*+*+*+*+*+*+*+*+*+*+*+*+*+*+*+*+*+*+*+*+*+
            BAR SHORTENED BY       1.000 PERCENT
 GRADIENT CRITERION IN FLEPO =    10.000


          FOR POINT   13 SECOND STRUCTURE
 DISTANCE A - B      4.348640
 HEAT             -228.901728
 GRADIENT NORM      26.518039
 DIRECTION COSINE    0.617092
 HTML geo-ok
 Move reactants and products near to the transition state

  C(HETATM    1  C1  HET A   1)   0.00000000 +0    0.0000000 +0    0.0000000 +0
  C(HETATM    2  C2  HET A   1)   1.40141322 +1    0.0000000 +0    0.0000000 +0     1     0     0
  C(HETATM    3  C3  HET A   1)   1.38840911 +1  118.7123164 +1    0.0000000 +0     2     1     0
  C(HETATM    4  C4  HET A   1)   1.39400734 +1  119.8296609 +1   -3.1261941 +1     3     2     1
  C(HETATM    5  C5  HET A   1)   1.39453162 +1  120.4411344 +1   -7.1399090 +1     4     3     2
  C(HETATM    6  C6  HET A   1)   1.38955183 +1  120.0103218 +1    6.9282141 +1     5     4     3
  N(HETATM    7  N   HET B   1)   1.45928628 +1  119.6421093 +1 -157.9805809 +1     1     2     3
  H(HETATM    8  H2  HET A   1)   1.09547902 +1  121.1142236 +1  177.2674993 +1     2     1     3
  H(HETATM    9  H3  HET A   1)   1.09356223 +1  119.8097217 +1  174.2707395 +1     3     2     1
  H(HETATM   10  H4  HET A   1)   1.08878020 +1  119.7550045 +1  172.4917631 +1     4     3     2
  H(HETATM   11  H5  HET A   1)   1.08910650 +1  120.4855872 +1 -175.9321896 +1     5     4     3
  H(HETATM   12  H6  HET A   1)   1.09590882 +1  121.1824384 +1 -178.9630605 +1     6     5     4
  O(HETATM   13  O1  HET D   1)   1.23170741 +1  120.1869188 +1  -29.1706780 +1     7     1     2
  O(HETATM   14  O2  HET D   1)   1.21208477 +1  117.1489809 +1  147.0145009 +1     7     1     2
  O(HETATM   15  O   HOH E   2)   2.47513769 +1   91.3152212 +1 -130.4958351 +1     7     1     2
  H(HETATM   16  H4  SO4 H   3)   1.72653738 +1   98.7090538 +1  -37.7414175 +1    13     7     1
  H(HETATM   17 1H   HOH E   2)   0.95950747 +1  101.0992171 +1 -155.9024897 +1    15     7     1
  H(HETATM   18 2H   HOH E   2)   0.95561343 +1  108.9253249 +1   93.0444606 +1    15     7     1
  S(HETATM   19  S   SO4 H   3)   2.24702511 +1  130.5362876 +1 -136.1470222 +1    16    13     7
  O(HETATM   20  O1  SO4 H   3)   1.42456340 +1   99.0493583 +1  -25.1218119 +1    19    16    13
  O(HETATM   21  O2  SO4 H   3)   1.67442510 +1   83.4003492 +1   81.9148920 +1    19    16    13
  O(HETATM   22  O3  SO4 H   3)   1.42942624 +1  129.2243807 +1 -173.5208476 +1    19    16    13
  O(HETATM   23  O4  SO4 H   3)   0.98117529 +1  158.6493777 +1  170.4626383 +1    16    13     7
  H(HETATM   24  H2  SO4 H   3)   0.96010664 +1  115.4606974 +1  128.8492196 +1    21    19    16
 
 TIME=     0.34
  REACTANTS AND PRODUCTS SWAPPED AROUND
 *+*+*+*+*+*+*+*+*+*+*+*+*+*+*+*+*+*+*+*+*+*+*+*+*+*+*+*+*+*+*+*+*+*+*+*+*+*+*+*+
            BAR SHORTENED BY       0.000 PERCENT
 GRADIENT CRITERION IN FLEPO =    10.000


          FOR POINT   14 FIRST  STRUCTURE
 DISTANCE A - B      4.348640
 HEAT             -183.894790
 GRADIENT NORM      18.700833
 DIRECTION COSINE    0.265786
 HTML geo-ok
 Move reactants and products near to the transition state

  C(HETATM    1  C1  HET A   1)   0.00000000 +0    0.0000000 +0    0.0000000 +0
  C(HETATM    2  C2  HET A   1)   1.39980351 +1    0.0000000 +0    0.0000000 +0     1     0     0
  C(HETATM    3  C3  HET A   1)   1.38806240 +1  119.9264321 +1    0.0000000 +0     2     1     0
  C(HETATM    4  C4  HET A   1)   1.39446633 +1  119.9046551 +1    1.7958717 +1     3     2     1
  C(HETATM    5  C5  HET A   1)   1.39458139 +1  120.2282531 +1    3.1736333 +1     4     3     2
  C(HETATM    6  C6  HET A   1)   1.39196803 +1  119.9638068 +1   -3.1182552 +1     5     4     3
  N(HETATM    7  N   HET B   1)   3.16328891 +1   92.9544498 +1 -104.3499003 +1     1     2     3
  H(HETATM    8  H2  HET A   1)   1.09471168 +1  118.5755860 +1 -179.4513651 +1     2     1     3
  H(HETATM    9  H3  HET A   1)   1.08667170 +1  119.7987705 +1 -177.0096209 +1     3     2     1
  H(HETATM   10  H4  HET A   1)   1.08796974 +1  119.8046259 +1 -176.2280641 +1     4     3     2
  H(HETATM   11  H5  HET A   1)   1.08846218 +1  120.0408458 +1  178.3150540 +1     5     4     3
  H(HETATM   12  H6  HET A   1)   1.08873753 +1  120.4319105 +1  179.0533568 +1     6     5     4
  O(HETATM   13  O1  HET D   1)   1.13349404 +1  155.8703421 +1  -82.5550899 +1     7     1     2
  O(HETATM   14  O2  HET D   1)   1.13141809 +1   26.7338078 +1   94.5419838 +1     7     1     2
  O(HETATM   15  O   HOH E   2)   2.42686556 +1   72.4751932 +1 -167.4230384 +1     7     1     2
  H(HETATM   16  H4  SO4 H   3)   1.09809515 +1  119.1432621 +1  174.2436960 +1     1     2     3
  H(HETATM   17 1H   HOH E   2)   0.94790784 +1  142.2905530 +1 -169.4845688 +1    15     7     1
  H(HETATM   18 2H   HOH E   2)   0.99383873 +1   94.2584380 +1   69.2784545 +1    15     7     1
  S(HETATM   19  S   SO4 H   3)   2.78801075 +1  144.4561200 +1    8.9134986 +1    18    15     7
  O(HETATM   20  O1  SO4 H   3)   1.44436621 +1  115.0589015 +1   85.1395559 +1    19    18    15
  O(HETATM   21  O2  SO4 H   3)   1.68735422 +1  172.5424815 +1   95.5108143 +1    18    15     7
  O(HETATM   22  O3  SO4 H   3)   1.45088604 +1  117.7550388 +1 -125.3321742 +1    19    18    15
  O(HETATM   23  O4  SO4 H   3)   1.50372676 +1   63.4496106 +1  -20.8233422 +1    19    18    15
  H(HETATM   24  H2  SO4 H   3)   0.95770007 +1  118.9763752 +1  128.3089999 +1    21    18    15
 
 TIME=     0.12
  REACTANTS AND PRODUCTS SWAPPED AROUND
 *+*+*+*+*+*+*+*+*+*+*+*+*+*+*+*+*+*+*+*+*+*+*+*+*+*+*+*+*+*+*+*+*+*+*+*+*+*+*+*+
            BAR SHORTENED BY       1.000 PERCENT
 GRADIENT CRITERION IN FLEPO =    10.000


          FOR POINT   15 SECOND STRUCTURE
 DISTANCE A - B      4.305153
 HEAT             -228.482972
 GRADIENT NORM      21.309339
 DIRECTION COSINE    0.338239
 HTML geo-ok
 Move reactants and products near to the transition state

  C(HETATM    1  C1  HET A   1)   0.00000000 +0    0.0000000 +0    0.0000000 +0
  C(HETATM    2  C2  HET A   1)   1.39921244 +1    0.0000000 +0    0.0000000 +0     1     0     0
  C(HETATM    3  C3  HET A   1)   1.39332133 +1  118.4218149 +1    0.0000000 +0     2     1     0
  C(HETATM    4  C4  HET A   1)   1.39492612 +1  120.1291454 +1   -2.3338868 +1     3     2     1
  C(HETATM    5  C5  HET A   1)   1.39719091 +1  120.0096639 +1   -8.3755981 +1     4     3     2
  C(HETATM    6  C6  HET A   1)   1.39048873 +1  119.9997259 +1    8.1292790 +1     5     4     3
  N(HETATM    7  N   HET B   1)   1.45152746 +1  120.2620704 +1 -157.3188576 +1     1     2     3
  H(HETATM    8  H2  HET A   1)   1.09509236 +1  121.7070339 +1  178.5875425 +1     2     1     3
  H(HETATM    9  H3  HET A   1)   1.09044736 +1  119.9887555 +1  174.4693177 +1     3     2     1
  H(HETATM   10  H4  HET A   1)   1.09285698 +1  119.9601575 +1  170.6628248 +1     4     3     2
  H(HETATM   11  H5  HET A   1)   1.09104830 +1  119.8361231 +1 -175.4914381 +1     5     4     3
  H(HETATM   12  H6  HET A   1)   1.09418410 +1  121.0048174 +1 -178.2678606 +1     6     5     4
  O(HETATM   13  O1  HET D   1)   1.23355741 +1  119.6784917 +1  -29.7946660 +1     7     1     2
  O(HETATM   14  O2  HET D   1)   1.21357975 +1  117.8230572 +1  145.7228821 +1     7     1     2
  O(HETATM   15  O   HOH E   2)   2.47028625 +1   92.1826332 +1 -130.9529771 +1     7     1     2
  H(HETATM   16  H4  SO4 H   3)   1.71307564 +1   98.7805615 +1  -37.7357382 +1    13     7     1
  H(HETATM   17 1H   HOH E   2)   0.95231610 +1  103.0487158 +1 -153.9374709 +1    15     7     1
  H(HETATM   18 2H   HOH E   2)   0.96309542 +1  109.5971957 +1   93.2010682 +1    15     7     1
  S(HETATM   19  S   SO4 H   3)   2.24077713 +1  130.7094515 +1 -137.2106084 +1    16    13     7
  O(HETATM   20  O1  SO4 H   3)   1.42424449 +1   98.9612016 +1  -24.8686290 +1    19    16    13
  O(HETATM   21  O2  SO4 H   3)   1.67673154 +1   83.1181756 +1   82.1671437 +1    19    16    13
  O(HETATM   22  O3  SO4 H   3)   1.42700948 +1  129.6177949 +1 -173.3567650 +1    19    16    13
  O(HETATM   23  O4  SO4 H   3)   0.98915947 +1  158.4333967 +1  166.9755061 +1    16    13     7
  H(HETATM   24  H2  SO4 H   3)   0.96941473 +1  115.4914480 +1  127.6510909 +1    21    19    16
 
 *+*+*+*+*+*+*+*+*+*+*+*+*+*+*+*+*+*+*+*+*+*+*+*+*+*+*+*+*+*+*+*+*+*+*+*+*+*+*+*+
            BAR SHORTENED BY       1.000 PERCENT
 GRADIENT CRITERION IN FLEPO =    10.000


          FOR POINT   16 SECOND STRUCTURE
 DISTANCE A - B      4.262102
 HEAT             -227.698125
 GRADIENT NORM      26.274031
 DIRECTION COSINE    0.556290
 HTML geo-ok
 Move reactants and products near to the transition state

  C(HETATM    1  C1  HET A   1)   0.00000000 +0    0.0000000 +0    0.0000000 +0
  C(HETATM    2  C2  HET A   1)   1.39988606 +1    0.0000000 +0    0.0000000 +0     1     0     0
  C(HETATM    3  C3  HET A   1)   1.39091540 +1  118.2236071 +1    0.0000000 +0     2     1     0
  C(HETATM    4  C4  HET A   1)   1.39546333 +1  120.1538250 +1   -2.6851404 +1     3     2     1
  C(HETATM    5  C5  HET A   1)   1.39319406 +1  120.2295126 +1   -8.0933026 +1     4     3     2
  C(HETATM    6  C6  HET A   1)   1.39123390 +1  119.9528521 +1    7.8554660 +1     5     4     3
  N(HETATM    7  N   HET B   1)   1.46356926 +1  120.0997008 +1 -156.3142438 +1     1     2     3
  H(HETATM    8  H2  HET A   1)   1.09527720 +1  121.4648359 +1  178.4328869 +1     2     1     3
  H(HETATM    9  H3  HET A   1)   1.08781601 +1  119.5981254 +1  174.7239017 +1     3     2     1
  H(HETATM   10  H4  HET A   1)   1.08890016 +1  119.7190500 +1  171.0602412 +1     4     3     2
  H(HETATM   11  H5  HET A   1)   1.08870025 +1  120.3209192 +1 -175.7127866 +1     5     4     3
  H(HETATM   12  H6  HET A   1)   1.09469258 +1  121.1263776 +1 -178.6290610 +1     6     5     4
  O(HETATM   13  O1  HET D   1)   1.23077520 +1  120.0663715 +1  -30.4347945 +1     7     1     2
  O(HETATM   14  O2  HET D   1)   1.20885830 +1  117.3933382 +1  145.5372673 +1     7     1     2
  O(HETATM   15  O   HOH E   2)   2.46944286 +1   91.8572630 +1 -131.4248342 +1     7     1     2
  H(HETATM   16  H4  SO4 H   3)   1.72557285 +1   97.7024041 +1  -37.1341159 +1    13     7     1
  H(HETATM   17 1H   HOH E   2)   0.95556896 +1  103.3843568 +1 -153.9888006 +1    15     7     1
  H(HETATM   18 2H   HOH E   2)   0.95764370 +1  109.5923105 +1   93.0824997 +1    15     7     1
  S(HETATM   19  S   SO4 H   3)   2.24047019 +1  129.6368061 +1 -138.3896593 +1    16    13     7
  O(HETATM   20  O1  SO4 H   3)   1.42808238 +1   99.6710518 +1  -24.1083830 +1    19    16    13
  O(HETATM   21  O2  SO4 H   3)   1.67454312 +1   82.7711541 +1   83.0980647 +1    19    16    13
  O(HETATM   22  O3  SO4 H   3)   1.42993702 +1  128.8674834 +1 -172.7958333 +1    19    16    13
  O(HETATM   23  O4  SO4 H   3)   0.98040634 +1  156.5867811 +1  168.0638770 +1    16    13     7
  H(HETATM   24  H2  SO4 H   3)   0.96859243 +1  115.4190009 +1  127.3918592 +1    21    19    16
 
 *+*+*+*+*+*+*+*+*+*+*+*+*+*+*+*+*+*+*+*+*+*+*+*+*+*+*+*+*+*+*+*+*+*+*+*+*+*+*+*+
            BAR SHORTENED BY       1.000 PERCENT
 GRADIENT CRITERION IN FLEPO =    10.000


          FOR POINT   17 SECOND STRUCTURE
 DISTANCE A - B      4.219481
 HEAT             -226.829294
 GRADIENT NORM      27.102148
 DIRECTION COSINE    0.875962
 HTML geo-ok
 Move reactants and products near to the transition state

  C(HETATM    1  C1  HET A   1)   0.00000000 +0    0.0000000 +0    0.0000000 +0
  C(HETATM    2  C2  HET A   1)   1.39951517 +1    0.0000000 +0    0.0000000 +0     1     0     0
  C(HETATM    3  C3  HET A   1)   1.39163784 +1  118.3715906 +1    0.0000000 +0     2     1     0
  C(HETATM    4  C4  HET A   1)   1.39448260 +1  119.9640654 +1   -3.0278501 +1     3     2     1
  C(HETATM    5  C5  HET A   1)   1.39443386 +1  120.3788581 +1   -8.0427670 +1     4     3     2
  C(HETATM    6  C6  HET A   1)   1.38991096 +1  119.8508950 +1    7.6576564 +1     5     4     3
  N(HETATM    7  N   HET B   1)   1.46526974 +1  120.0821166 +1 -155.3874356 +1     1     2     3
  H(HETATM    8  H2  HET A   1)   1.09387881 +1  121.4359228 +1  177.9934574 +1     2     1     3
  H(HETATM    9  H3  HET A   1)   1.08966299 +1  119.5585724 +1  174.3763482 +1     3     2     1
  H(HETATM   10  H4  HET A   1)   1.08629346 +1  119.7502959 +1  171.1759853 +1     4     3     2
  H(HETATM   11  H5  HET A   1)   1.08811369 +1  120.6238920 +1 -175.6475500 +1     5     4     3
  H(HETATM   12  H6  HET A   1)   1.09571196 +1  121.1852002 +1 -178.8117382 +1     6     5     4
  O(HETATM   13  O1  HET D   1)   1.23114032 +1  120.4800216 +1  -30.8223830 +1     7     1     2
  O(HETATM   14  O2  HET D   1)   1.21221439 +1  117.1196555 +1  145.5052001 +1     7     1     2
  O(HETATM   15  O   HOH E   2)   2.47076199 +1   91.8384599 +1 -131.6897100 +1     7     1     2
  H(HETATM   16  H4  SO4 H   3)   1.73359499 +1   96.6742152 +1  -36.7227132 +1    13     7     1
  H(HETATM   17 1H   HOH E   2)   0.95752727 +1  104.6969732 +1 -153.0523436 +1    15     7     1
  H(HETATM   18 2H   HOH E   2)   0.96149552 +1  109.0109166 +1   93.0648846 +1    15     7     1
  S(HETATM   19  S   SO4 H   3)   2.24077556 +1  128.7381597 +1 -139.6246347 +1    16    13     7
  O(HETATM   20  O1  SO4 H   3)   1.42390842 +1  100.4043184 +1  -22.9497111 +1    19    16    13
  O(HETATM   21  O2  SO4 H   3)   1.67733857 +1   82.6987863 +1   83.6078086 +1    19    16    13
  O(HETATM   22  O3  SO4 H   3)   1.42772293 +1  128.1827667 +1 -172.1129989 +1    19    16    13
  O(HETATM   23  O4  SO4 H   3)   0.97671960 +1  154.5371679 +1  167.9292846 +1    16    13     7
  H(HETATM   24  H2  SO4 H   3)   0.97069919 +1  114.8698887 +1  125.3959697 +1    21    19    16
 
 TIME=     0.39
  REACTANTS AND PRODUCTS SWAPPED AROUND
 *+*+*+*+*+*+*+*+*+*+*+*+*+*+*+*+*+*+*+*+*+*+*+*+*+*+*+*+*+*+*+*+*+*+*+*+*+*+*+*+
            BAR SHORTENED BY       0.000 PERCENT
 GRADIENT CRITERION IN FLEPO =    10.000


          FOR POINT   18 FIRST  STRUCTURE
 DISTANCE A - B      4.219481
 HEAT             -183.975078
 GRADIENT NORM      14.809664
 DIRECTION COSINE    0.355813
 HTML geo-ok
 Move reactants and products near to the transition state

  C(HETATM    1  C1  HET A   1)   0.00000000 +0    0.0000000 +0    0.0000000 +0
  C(HETATM    2  C2  HET A   1)   1.39799838 +1    0.0000000 +0    0.0000000 +0     1     0     0
  C(HETATM    3  C3  HET A   1)   1.38831418 +1  119.8601771 +1    0.0000000 +0     2     1     0
  C(HETATM    4  C4  HET A   1)   1.39623752 +1  119.8770535 +1    1.4885480 +1     3     2     1
  C(HETATM    5  C5  HET A   1)   1.39308412 +1  120.1998027 +1    3.2670043 +1     4     3     2
  C(HETATM    6  C6  HET A   1)   1.39450543 +1  119.9760145 +1   -3.1738145 +1     5     4     3
  N(HETATM    7  N   HET B   1)   3.15723542 +1   93.1636048 +1 -104.2975701 +1     1     2     3
  H(HETATM    8  H2  HET A   1)   1.09740407 +1  119.0121943 +1 -179.6515591 +1     2     1     3
  H(HETATM    9  H3  HET A   1)   1.08875484 +1  120.0930225 +1 -177.2973111 +1     3     2     1
  H(HETATM   10  H4  HET A   1)   1.09623782 +1  119.9848120 +1 -177.2325713 +1     4     3     2
  H(HETATM   11  H5  HET A   1)   1.08845376 +1  120.1532205 +1  178.2960971 +1     5     4     3
  H(HETATM   12  H6  HET A   1)   1.08833426 +1  120.3143980 +1  179.4412169 +1     6     5     4
  O(HETATM   13  O1  HET D   1)   1.13531417 +1  155.8928659 +1  -82.5406065 +1     7     1     2
  O(HETATM   14  O2  HET D   1)   1.13318037 +1   26.4062815 +1   94.1830205 +1     7     1     2
  O(HETATM   15  O   HOH E   2)   2.42547189 +1   72.5756315 +1 -167.2589085 +1     7     1     2
  H(HETATM   16  H4  SO4 H   3)   1.09664701 +1  118.8709853 +1  174.5344591 +1     1     2     3
  H(HETATM   17 1H   HOH E   2)   0.94681114 +1  142.6189584 +1 -169.4320424 +1    15     7     1
  H(HETATM   18 2H   HOH E   2)   0.99331327 +1   94.7633734 +1   69.5266982 +1    15     7     1
  S(HETATM   19  S   SO4 H   3)   2.79611771 +1  143.8235346 +1    8.3263328 +1    18    15     7
  O(HETATM   20  O1  SO4 H   3)   1.44518592 +1  114.7962212 +1   85.8489576 +1    19    18    15
  O(HETATM   21  O2  SO4 H   3)   1.68434715 +1  173.0057645 +1   88.7630862 +1    18    15     7
  O(HETATM   22  O3  SO4 H   3)   1.45209920 +1  117.9257972 +1 -125.0625628 +1    19    18    15
  O(HETATM   23  O4  SO4 H   3)   1.50559793 +1   63.3955899 +1  -20.3375330 +1    19    18    15
  H(HETATM   24  H2  SO4 H   3)   0.95632921 +1  119.4265086 +1  134.6915315 +1    21    18    15
 
 TIME=     0.09
  REACTANTS AND PRODUCTS SWAPPED AROUND
 *+*+*+*+*+*+*+*+*+*+*+*+*+*+*+*+*+*+*+*+*+*+*+*+*+*+*+*+*+*+*+*+*+*+*+*+*+*+*+*+
            BAR SHORTENED BY       1.000 PERCENT
 GRADIENT CRITERION IN FLEPO =    10.000


          FOR POINT   19 SECOND STRUCTURE
 DISTANCE A - B      4.177286
 HEAT             -225.895175
 GRADIENT NORM      31.375857
 DIRECTION COSINE    0.330502
 HTML geo-ok
 Move reactants and products near to the transition state

  C(HETATM    1  C1  HET A   1)   0.00000000 +0    0.0000000 +0    0.0000000 +0
  C(HETATM    2  C2  HET A   1)   1.39929939 +1    0.0000000 +0    0.0000000 +0     1     0     0
  C(HETATM    3  C3  HET A   1)   1.39177884 +1  118.4352704 +1    0.0000000 +0     2     1     0
  C(HETATM    4  C4  HET A   1)   1.39645456 +1  119.8724890 +1   -3.2071057 +1     3     2     1
  C(HETATM    5  C5  HET A   1)   1.39280473 +1  120.3691221 +1   -8.1324885 +1     4     3     2
  C(HETATM    6  C6  HET A   1)   1.39170299 +1  119.8821244 +1    7.8517391 +1     5     4     3
  N(HETATM    7  N   HET B   1)   1.47000457 +1  120.0345585 +1 -154.4171788 +1     1     2     3
  H(HETATM    8  H2  HET A   1)   1.09481758 +1  121.4530629 +1  177.6983025 +1     2     1     3
  H(HETATM    9  H3  HET A   1)   1.08726597 +1  119.4563192 +1  174.0997446 +1     3     2     1
  H(HETATM   10  H4  HET A   1)   1.09071134 +1  119.6260167 +1  171.0890616 +1     4     3     2
  H(HETATM   11  H5  HET A   1)   1.08891469 +1  120.7410957 +1 -175.7148026 +1     5     4     3
  H(HETATM   12  H6  HET A   1)   1.09470968 +1  121.1396515 +1 -178.7429815 +1     6     5     4
  O(HETATM   13  O1  HET D   1)   1.23163234 +1  120.8168504 +1  -31.2326365 +1     7     1     2
  O(HETATM   14  O2  HET D   1)   1.20924547 +1  116.8496198 +1  145.3969770 +1     7     1     2
  O(HETATM   15  O   HOH E   2)   2.47097612 +1   91.6878157 +1 -132.0706767 +1     7     1     2
  H(HETATM   16  H4  SO4 H   3)   1.73942122 +1   95.5475359 +1  -36.3558605 +1    13     7     1
  H(HETATM   17 1H   HOH E   2)   0.96255840 +1  105.5502637 +1 -154.8544138 +1    15     7     1
  H(HETATM   18 2H   HOH E   2)   0.95761090 +1  108.9601836 +1   92.7620784 +1    15     7     1
  S(HETATM   19  S   SO4 H   3)   2.24523745 +1  127.8557143 +1 -140.7906797 +1    16    13     7
  O(HETATM   20  O1  SO4 H   3)   1.42748251 +1  100.8721829 +1  -21.9703040 +1    19    16    13
  O(HETATM   21  O2  SO4 H   3)   1.67461049 +1   82.2937392 +1   84.8382515 +1    19    16    13
  O(HETATM   22  O3  SO4 H   3)   1.42944662 +1  127.5288205 +1 -171.4426708 +1    19    16    13
  O(HETATM   23  O4  SO4 H   3)   0.97961170 +1  152.6407928 +1  167.9212549 +1    16    13     7
  H(HETATM   24  H2  SO4 H   3)   0.96850121 +1  115.1922330 +1  125.1356788 +1    21    19    16
 
 *+*+*+*+*+*+*+*+*+*+*+*+*+*+*+*+*+*+*+*+*+*+*+*+*+*+*+*+*+*+*+*+*+*+*+*+*+*+*+*+
            BAR SHORTENED BY       1.000 PERCENT
 GRADIENT CRITERION IN FLEPO =    10.000


          FOR POINT   20 SECOND STRUCTURE
 DISTANCE A - B      4.135513
 HEAT             -224.945353
 GRADIENT NORM      31.915313
 DIRECTION COSINE    0.887662
 HTML geo-ok
 Move reactants and products near to the transition state

  C(HETATM    1  C1  HET A   1)   0.00000000 +0    0.0000000 +0    0.0000000 +0
  C(HETATM    2  C2  HET A   1)   1.39904471 +1    0.0000000 +0    0.0000000 +0     1     0     0
  C(HETATM    3  C3  HET A   1)   1.39176828 +1  118.4991691 +1    0.0000000 +0     2     1     0
  C(HETATM    4  C4  HET A   1)   1.39442828 +1  119.8791464 +1   -3.1082846 +1     3     2     1
  C(HETATM    5  C5  HET A   1)   1.39365289 +1  120.3808295 +1   -8.7770835 +1     4     3     2
  C(HETATM    6  C6  HET A   1)   1.39198372 +1  119.7464333 +1    8.4023819 +1     5     4     3
  N(HETATM    7  N   HET B   1)   1.46968570 +1  120.0873327 +1 -153.7449785 +1     1     2     3
  H(HETATM    8  H2  HET A   1)   1.09440672 +1  121.4421192 +1  177.6016433 +1     2     1     3
  H(HETATM    9  H3  HET A   1)   1.08884633 +1  119.5120561 +1  173.7130914 +1     3     2     1
  H(HETATM   10  H4  HET A   1)   1.08785847 +1  119.6944990 +1  171.2915464 +1     4     3     2
  H(HETATM   11  H5  HET A   1)   1.08882934 +1  120.9765616 +1 -175.3803708 +1     5     4     3
  H(HETATM   12  H6  HET A   1)   1.09603628 +1  121.1743684 +1 -178.8014179 +1     6     5     4
  O(HETATM   13  O1  HET D   1)   1.23069204 +1  121.0965684 +1  -31.5702432 +1     7     1     2
  O(HETATM   14  O2  HET D   1)   1.21218941 +1  116.5435699 +1  145.3303795 +1     7     1     2
  O(HETATM   15  O   HOH E   2)   2.47233195 +1   91.7774069 +1 -132.2816114 +1     7     1     2
  H(HETATM   16  H4  SO4 H   3)   1.74671720 +1   94.6025481 +1  -36.3030473 +1    13     7     1
  H(HETATM   17 1H   HOH E   2)   0.95480215 +1  106.4301288 +1 -154.0877268 +1    15     7     1
  H(HETATM   18 2H   HOH E   2)   0.95555901 +1  108.3547143 +1   92.3070707 +1    15     7     1
  S(HETATM   19  S   SO4 H   3)   2.24316371 +1  127.0547989 +1 -142.2749644 +1    16    13     7
  O(HETATM   20  O1  SO4 H   3)   1.42377931 +1  101.6694710 +1  -20.4643352 +1    19    16    13
  O(HETATM   21  O2  SO4 H   3)   1.67443526 +1   81.7536086 +1   86.0976997 +1    19    16    13
  O(HETATM   22  O3  SO4 H   3)   1.42481245 +1  126.9570768 +1 -170.4196840 +1    19    16    13
  O(HETATM   23  O4  SO4 H   3)   0.97600925 +1  150.1693196 +1  166.4400116 +1    16    13     7
  H(HETATM   24  H2  SO4 H   3)   0.96424433 +1  114.5041211 +1  123.7093912 +1    21    19    16
 
 *+*+*+*+*+*+*+*+*+*+*+*+*+*+*+*+*+*+*+*+*+*+*+*+*+*+*+*+*+*+*+*+*+*+*+*+*+*+*+*+
            BAR SHORTENED BY       1.000 PERCENT
 GRADIENT CRITERION IN FLEPO =    10.000


          FOR POINT   21 SECOND STRUCTURE
 DISTANCE A - B      4.094158
 HEAT             -224.074471
 GRADIENT NORM      30.918720
 DIRECTION COSINE    0.872909
 HTML geo-ok
 Move reactants and products near to the transition state

  C(HETATM    1  C1  HET A   1)   0.00000000 +0    0.0000000 +0    0.0000000 +0
  C(HETATM    2  C2  HET A   1)   1.39893799 +1    0.0000000 +0    0.0000000 +0     1     0     0
  C(HETATM    3  C3  HET A   1)   1.39216622 +1  118.6229579 +1    0.0000000 +0     2     1     0
  C(HETATM    4  C4  HET A   1)   1.39482846 +1  119.8810616 +1   -3.4859789 +1     3     2     1
  C(HETATM    5  C5  HET A   1)   1.39548113 +1  120.2654530 +1   -8.3963188 +1     4     3     2
  C(HETATM    6  C6  HET A   1)   1.39649238 +1  119.8468331 +1    8.0006747 +1     5     4     3
  N(HETATM    7  N   HET B   1)   1.47059740 +1  120.2355399 +1 -152.8605187 +1     1     2     3
  H(HETATM    8  H2  HET A   1)   1.09515111 +1  121.3530016 +1  177.3906933 +1     2     1     3
  H(HETATM    9  H3  HET A   1)   1.09012099 +1  119.5568791 +1  173.3886302 +1     3     2     1
  H(HETATM   10  H4  HET A   1)   1.09063061 +1  119.7374807 +1  171.0653803 +1     4     3     2
  H(HETATM   11  H5  HET A   1)   1.08772669 +1  120.6720728 +1 -175.7087052 +1     5     4     3
  H(HETATM   12  H6  HET A   1)   1.09187278 +1  121.2055703 +1 -178.3869665 +1     6     5     4
  O(HETATM   13  O1  HET D   1)   1.23210925 +1  121.2783119 +1  -31.8982775 +1     7     1     2
  O(HETATM   14  O2  HET D   1)   1.21044453 +1  116.4547222 +1  145.1460739 +1     7     1     2
  O(HETATM   15  O   HOH E   2)   2.47943181 +1   91.7595070 +1 -132.7581542 +1     7     1     2
  H(HETATM   16  H4  SO4 H   3)   1.75566249 +1   93.3392856 +1  -37.0974917 +1    13     7     1
  H(HETATM   17 1H   HOH E   2)   0.95348239 +1  106.5840985 +1 -154.5265887 +1    15     7     1
  H(HETATM   18 2H   HOH E   2)   0.95559263 +1  107.6435892 +1   92.1801881 +1    15     7     1
  S(HETATM   19  S   SO4 H   3)   2.23502448 +1  126.7180826 +1 -144.9988747 +1    16    13     7
  O(HETATM   20  O1  SO4 H   3)   1.42432439 +1  102.4505124 +1  -17.2709052 +1    19    16    13
  O(HETATM   21  O2  SO4 H   3)   1.67589339 +1   80.6166961 +1   88.8822065 +1    19    16    13
  O(HETATM   22  O3  SO4 H   3)   1.42869393 +1  126.8787155 +1 -168.6946364 +1    19    16    13
  O(HETATM   23  O4  SO4 H   3)   0.98334751 +1  146.6883057 +1  161.5932475 +1    16    13     7
  H(HETATM   24  H2  SO4 H   3)   0.96944256 +1  114.8390686 +1  123.3578614 +1    21    19    16
 
 TIME=     0.30
  REACTANTS AND PRODUCTS SWAPPED AROUND
 *+*+*+*+*+*+*+*+*+*+*+*+*+*+*+*+*+*+*+*+*+*+*+*+*+*+*+*+*+*+*+*+*+*+*+*+*+*+*+*+
            BAR SHORTENED BY       0.000 PERCENT
 GRADIENT CRITERION IN FLEPO =    10.000


          FOR POINT   22 FIRST  STRUCTURE
 DISTANCE A - B      4.094158
 HEAT             -184.016776
 GRADIENT NORM      12.603114
 DIRECTION COSINE    0.121019
 HTML geo-ok
 Move reactants and products near to the transition state

  C(HETATM    1  C1  HET A   1)   0.00000000 +0    0.0000000 +0    0.0000000 +0
  C(HETATM    2  C2  HET A   1)   1.39909849 +1    0.0000000 +0    0.0000000 +0     1     0     0
  C(HETATM    3  C3  HET A   1)   1.39051654 +1  119.7822972 +1    0.0000000 +0     2     1     0
  C(HETATM    4  C4  HET A   1)   1.39976981 +1  119.9953954 +1    1.4598776 +1     3     2     1
  C(HETATM    5  C5  HET A   1)   1.39010633 +1  119.9579715 +1    2.9578765 +1     4     3     2
  C(HETATM    6  C6  HET A   1)   1.39488513 +1  120.1440069 +1   -6.0866977 +1     1     2     3
  N(HETATM    7  N   HET B   1)   3.15778831 +1   93.2200346 +1 -104.1523003 +1     1     2     3
  H(HETATM    8  H2  HET A   1)   1.09482080 +1  119.0385100 +1 -179.8781984 +1     2     1     3
  H(HETATM    9  H3  HET A   1)   1.08726350 +1  120.1208512 +1 -177.3642068 +1     3     2     1
  H(HETATM   10  H4  HET A   1)   1.08740119 +1  119.9478316 +1 -176.7738409 +1     4     3     2
  H(HETATM   11  H5  HET A   1)   1.08833305 +1  120.1611477 +1  178.4728728 +1     5     4     3
  H(HETATM   12  H6  HET A   1)   1.09000910 +1  120.2367197 +1 -174.8796450 +1     6     1     2
  O(HETATM   13  O1  HET D   1)   1.13710573 +1  155.9728451 +1  -82.7433980 +1     7     1     2
  O(HETATM   14  O2  HET D   1)   1.13342451 +1   26.3518603 +1   94.1536136 +1     7     1     2
  O(HETATM   15  O   HOH E   2)   2.42465741 +1   72.5922457 +1 -167.2435087 +1     7     1     2
  H(HETATM   16  H4  SO4 H   3)   1.08762581 +1  118.9663716 +1  175.6507504 +1     1     2     3
  H(HETATM   17 1H   HOH E   2)   0.94878851 +1  142.4904656 +1 -169.2856396 +1    15     7     1
  H(HETATM   18 2H   HOH E   2)   0.99598585 +1   94.7803882 +1   69.5358019 +1    15     7     1
  S(HETATM   19  S   SO4 H   3)   2.79554877 +1  143.6996254 +1    8.2413409 +1    18    15     7
  O(HETATM   20  O1  SO4 H   3)   1.44655218 +1  114.7185080 +1   86.0007685 +1    19    18    15
  O(HETATM   21  O2  SO4 H   3)   1.68430979 +1  173.1389365 +1   86.5550832 +1    18    15     7
  O(HETATM   22  O3  SO4 H   3)   1.45329503 +1  117.9476822 +1 -125.0953517 +1    19    18    15
  O(HETATM   23  O4  SO4 H   3)   1.50294576 +1   63.4085769 +1  -20.1926585 +1    19    18    15
  H(HETATM   24  H2  SO4 H   3)   0.95695525 +1  119.3713652 +1  136.3454498 +1    21    18    15
 
 TIME=     0.06
  REACTANTS AND PRODUCTS SWAPPED AROUND
 *+*+*+*+*+*+*+*+*+*+*+*+*+*+*+*+*+*+*+*+*+*+*+*+*+*+*+*+*+*+*+*+*+*+*+*+*+*+*+*+
            BAR SHORTENED BY       1.000 PERCENT
 GRADIENT CRITERION IN FLEPO =     9.603


          FOR POINT   23 SECOND STRUCTURE
 DISTANCE A - B      4.053216
 HEAT             -223.103139
 GRADIENT NORM      33.578032
 DIRECTION COSINE    0.096996
 HTML geo-ok
 Move reactants and products near to the transition state

  C(HETATM    1  C1  HET A   1)   0.00000000 +0    0.0000000 +0    0.0000000 +0
  C(HETATM    2  C2  HET A   1)   1.39916544 +1    0.0000000 +0    0.0000000 +0     1     0     0
  C(HETATM    3  C3  HET A   1)   1.39312520 +1  118.7970986 +1    0.0000000 +0     2     1     0
  C(HETATM    4  C4  HET A   1)   1.39561129 +1  119.7535975 +1   -3.6368943 +1     3     2     1
  C(HETATM    5  C5  HET A   1)   1.39533675 +1  120.2665964 +1   -8.4211119 +1     4     3     2
  C(HETATM    6  C6  HET A   1)   1.39303921 +1  119.8155219 +1    7.9949615 +1     5     4     3
  N(HETATM    7  N   HET B   1)   1.47114373 +1  120.4360359 +1 -152.0342037 +1     1     2     3
  H(HETATM    8  H2  HET A   1)   1.09473481 +1  121.1542189 +1  177.2586139 +1     2     1     3
  H(HETATM    9  H3  HET A   1)   1.08669619 +1  119.6595078 +1  173.0829620 +1     3     2     1
  H(HETATM   10  H4  HET A   1)   1.08698335 +1  119.5676912 +1  171.1231889 +1     4     3     2
  H(HETATM   11  H5  HET A   1)   1.08933780 +1  120.5643763 +1 -175.9102680 +1     5     4     3
  H(HETATM   12  H6  HET A   1)   1.09489825 +1  120.9769610 +1 -178.2491880 +1     6     5     4
  O(HETATM   13  O1  HET D   1)   1.23148760 +1  121.2693866 +1  -32.5147188 +1     7     1     2
  O(HETATM   14  O2  HET D   1)   1.20859962 +1  116.2795940 +1  144.9538164 +1     7     1     2
  O(HETATM   15  O   HOH E   2)   2.47428843 +1   91.7040876 +1 -133.1741700 +1     7     1     2
  H(HETATM   16  H4  SO4 H   3)   1.76214052 +1   92.5101078 +1  -37.4768886 +1    13     7     1
  H(HETATM   17 1H   HOH E   2)   0.95346922 +1  107.3472318 +1 -154.6575700 +1    15     7     1
  H(HETATM   18 2H   HOH E   2)   0.96512186 +1  107.6231185 +1   92.2504193 +1    15     7     1
  S(HETATM   19  S   SO4 H   3)   2.22916799 +1  126.1143530 +1 -147.1461969 +1    16    13     7
  O(HETATM   20  O1  SO4 H   3)   1.42155960 +1  103.0536004 +1  -15.0808895 +1    19    16    13
  O(HETATM   21  O2  SO4 H   3)   1.67503573 +1   79.6554506 +1   91.0813375 +1    19    16    13
  O(HETATM   22  O3  SO4 H   3)   1.42772052 +1  126.5523707 +1 -167.1332910 +1    19    16    13
  O(HETATM   23  O4  SO4 H   3)   0.98208702 +1  143.7424912 +1  159.3720970 +1    16    13     7
  H(HETATM   24  H2  SO4 H   3)   0.96663290 +1  115.1872306 +1  123.1446654 +1    21    19    16
 
 *+*+*+*+*+*+*+*+*+*+*+*+*+*+*+*+*+*+*+*+*+*+*+*+*+*+*+*+*+*+*+*+*+*+*+*+*+*+*+*+
            BAR SHORTENED BY       1.000 PERCENT
 GRADIENT CRITERION IN FLEPO =    10.000


          FOR POINT   24 SECOND STRUCTURE
 DISTANCE A - B      4.012684
 HEAT             -222.145620
 GRADIENT NORM      36.010369
 DIRECTION COSINE    0.756294
 HTML geo-ok
 Move reactants and products near to the transition state

  C(HETATM    1  C1  HET A   1)   0.00000000 +0    0.0000000 +0    0.0000000 +0
  C(HETATM    2  C2  HET A   1)   1.39880897 +1    0.0000000 +0    0.0000000 +0     1     0     0
  C(HETATM    3  C3  HET A   1)   1.39197674 +1  118.6587438 +1    0.0000000 +0     2     1     0
  C(HETATM    4  C4  HET A   1)   1.39366748 +1  119.9406748 +1   -3.6712803 +1     3     2     1
  C(HETATM    5  C5  HET A   1)   1.39426500 +1  120.0379793 +1   -8.4572606 +1     4     3     2
  C(HETATM    6  C6  HET A   1)   1.39196508 +1  120.0403099 +1    7.9589896 +1     5     4     3
  N(HETATM    7  N   HET B   1)   1.47426072 +1  120.3360181 +1 -151.4605977 +1     1     2     3
  H(HETATM    8  H2  HET A   1)   1.09619508 +1  121.1766870 +1  177.5703244 +1     2     1     3
  H(HETATM    9  H3  HET A   1)   1.09077749 +1  119.4573751 +1  173.2459977 +1     3     2     1
  H(HETATM   10  H4  HET A   1)   1.08518131 +1  119.8544557 +1  170.5992048 +1     4     3     2
  H(HETATM   11  H5  HET A   1)   1.09025710 +1  120.4894312 +1 -175.8677495 +1     5     4     3
  H(HETATM   12  H6  HET A   1)   1.09643691 +1  121.0431889 +1 -177.9129153 +1     6     5     4
  O(HETATM   13  O1  HET D   1)   1.22905636 +1  121.8316269 +1  -32.6735078 +1     7     1     2
  O(HETATM   14  O2  HET D   1)   1.21343716 +1  115.9358154 +1  144.7565857 +1     7     1     2
  O(HETATM   15  O   HOH E   2)   2.47329069 +1   91.6007067 +1 -133.4682186 +1     7     1     2
  H(HETATM   16  H4  SO4 H   3)   1.78046791 +1   91.2521343 +1  -37.3561154 +1    13     7     1
  H(HETATM   17 1H   HOH E   2)   0.95550936 +1  107.7170370 +1 -154.4752747 +1    15     7     1
  H(HETATM   18 2H   HOH E   2)   0.95876525 +1  107.6385669 +1   92.1587609 +1    15     7     1
  S(HETATM   19  S   SO4 H   3)   2.23046276 +1  125.0458157 +1 -148.2670253 +1    16    13     7
  O(HETATM   20  O1  SO4 H   3)   1.43150226 +1  103.8032968 +1  -13.9800469 +1    19    16    13
  O(HETATM   21  O2  SO4 H   3)   1.67542751 +1   79.1983758 +1   91.9202780 +1    19    16    13
  O(HETATM   22  O3  SO4 H   3)   1.42774294 +1  126.0667483 +1 -166.6003157 +1    19    16    13
  O(HETATM   23  O4  SO4 H   3)   0.97552011 +1  141.3909907 +1  159.7023901 +1    16    13     7
  H(HETATM   24  H2  SO4 H   3)   0.96865458 +1  115.2866873 +1  122.7193108 +1    21    19    16
 
 *+*+*+*+*+*+*+*+*+*+*+*+*+*+*+*+*+*+*+*+*+*+*+*+*+*+*+*+*+*+*+*+*+*+*+*+*+*+*+*+
            BAR SHORTENED BY       1.000 PERCENT
 GRADIENT CRITERION IN FLEPO =    10.000


          FOR POINT   25 SECOND STRUCTURE
 DISTANCE A - B      3.972557
 HEAT             -221.575218
 GRADIENT NORM      32.044775
 DIRECTION COSINE    0.536343
 HTML geo-ok
 Move reactants and products near to the transition state

  C(HETATM    1  C1  HET A   1)   0.00000000 +0    0.0000000 +0    0.0000000 +0
  C(HETATM    2  C2  HET A   1)   1.39613984 +1    0.0000000 +0    0.0000000 +0     1     0     0
  C(HETATM    3  C3  HET A   1)   1.39153372 +1  118.1883645 +1    0.0000000 +0     2     1     0
  C(HETATM    4  C4  HET A   1)   1.39464483 +1  119.9981351 +1   -1.9578521 +1     3     2     1
[...]
  C(HETATM    6  C6  HET A   1)   1.38362029 +1  119.9462294 +1    1.9368551 +1     5     4     3
  N(HETATM    7  N   HET B   1)   1.88384489 +1  110.8188501 +1 -120.7635058 +1     1     2     3
  H(HETATM    8  H2  HET A   1)   1.10022416 +1  118.7178291 +1 -178.1384032 +1     2     1     3
  H(HETATM    9  H3  HET A   1)   1.09061310 +1  120.0875691 +1 -179.9403010 +1     3     2     1
  H(HETATM   10  H4  HET A   1)   1.09504675 +1  119.9551293 +1  176.8010129 +1     4     3     2
  H(HETATM   11  H5  HET A   1)   1.09040824 +1  119.4898614 +1 -178.9350241 +1     5     4     3
  H(HETATM   12  H6  HET A   1)   1.09586175 +1  121.0554858 +1 -179.4398640 +1     6     5     4
  O(HETATM   13  O1  HET D   1)   1.15987238 +1  112.1965239 +1  -59.9767673 +1     7     1     2
  O(HETATM   14  O2  HET D   1)   1.17555838 +1  105.2282529 +1  116.3643673 +1     7     1     2
  O(HETATM   15  O   HOH E   2)   2.42058551 +1   90.4379086 +1 -158.3670751 +1     7     1     2
  H(HETATM   16  H4  SO4 H   3)   1.22378764 +1  109.7270544 +1  144.3639408 +1     1     2     3
  H(HETATM   17 1H   HOH E   2)   0.94933310 +1  139.3864783 +1 -155.6751715 +1    15     7     1
  H(HETATM   18 2H   HOH E   2)   0.98552846 +1  103.8962535 +1   69.8188270 +1    15     7     1
  S(HETATM   19  S   SO4 H   3)   2.79270434 +1  152.5995089 +1   52.3881996 +1    16     1     2
  O(HETATM   20  O1  SO4 H   3)   1.44827096 +1  123.2741322 +1   43.1838381 +1    19    16     1
  O(HETATM   21  O2  SO4 H   3)   1.69093360 +1  177.8107700 +1   12.0336225 +1    18    15     7
  O(HETATM   22  O3  SO4 H   3)   1.44992381 +1  115.4314004 +1 -123.1669995 +1    19    16     1
  O(HETATM   23  O4  SO4 H   3)   1.50982960 +1   24.0893592 +1  -29.5254388 +1    19    16     1
  H(HETATM   24  H2  SO4 H   3)   0.95545191 +1  121.6735106 +1 -150.1419534 +1    21    18    15
 
 TIME=     0.05
  REACTANTS AND PRODUCTS SWAPPED AROUND
 *+*+*+*+*+*+*+*+*+*+*+*+*+*+*+*+*+*+*+*+*+*+*+*+*+*+*+*+*+*+*+*+*+*+*+*+*+*+*+*+
            BAR SHORTENED BY       1.000 PERCENT
 AT END OF STEPWISE ASCENT OF REACTION BARRIER

 -------------------------------------------------------------------------------
 HTML geo-ok
 Move reactants and products near to the transition state



     TRANSITION STATE LOCATED USING THE "SADDLE" TECHNIQUE    
     SCF FIELD WAS ACHIEVED                                   


                              PM7 CALCULATION
                                                       MOPAC2016 (Version: 21.158W)
                                                       Tue Jun  8 10:11:19 2021
                                                       No. of days remaining = 364




          FINAL H.O.F PLUS STRESS =       -152.10350 KCAL/MOL =    -636.40103 KJ/MOL
          FINAL STRESS            =          0.00000 KCAL/MOL =       0.00000 KJ/MOL
          FINAL HEAT OF FORMATION =       -152.10350 KCAL/MOL =    -636.40103 KJ/MOL
          TOTAL DISTORTION        =          0.00314 Angstroms
          AVERAGE DISTORTION      =          0.00013 Angstroms per atom (all atoms)
          RMS DISTORTION          =          0.00020 Angstroms per atom (all atoms)


          TOTAL ENERGY            =      -3282.94719 EV
          ELECTRONIC ENERGY       =     -18000.80775 EV  POINT GROUP:     C1  
          CORE-CORE REPULSION     =      14717.86057 EV
          COSMO AREA              =        225.69 SQUARE ANGSTROMS
          COSMO VOLUME            =        241.11 CUBIC ANGSTROMS

          GRADIENT NORM           =          7.87026 = 1.60651 PER ATOM
          IONIZATION POTENTIAL    =         10.192654 EV
          HOMO LUMO ENERGIES (EV) =        -10.193 -3.098
          NO. OF FILLED LEVELS    =         43
          MOLECULAR WEIGHT        =        239.1996

          MOLECULAR DIMENSIONS (Angstroms)

            Atom       Atom       Distance
            O    20    H    10     8.46635
            H    17    H     9     5.85002
            O    14    H    24     4.34239


          SCF CALCULATIONS        =       2548
 
          WALL-CLOCK TIME         =         36.156 SECONDS
          COMPUTATION TIME        =  2 MINUTES AND 23.984 SECONDS



       FINAL  POINT  AND  DERIVATIVES

   PARAMETER     ATOM    TYPE            VALUE        GRADIENT
      1          1  C    CARTESIAN X     0.343457      0.842513  KCAL/ANGSTROM
      2          1  C    CARTESIAN Y     1.418683     -0.319642  KCAL/ANGSTROM
      3          1  C    CARTESIAN Z     0.078188      0.672724  KCAL/ANGSTROM
      4          2  C    CARTESIAN X     1.756732      0.438483  KCAL/ANGSTROM
      5          2  C    CARTESIAN Y     1.336224     -0.517042  KCAL/ANGSTROM
      6          2  C    CARTESIAN Z     0.050857     -1.719953  KCAL/ANGSTROM
      7          3  C    CARTESIAN X     2.520290     -0.321277  KCAL/ANGSTROM
      8          3  C    CARTESIAN Y     2.498399      0.546659  KCAL/ANGSTROM
      9          3  C    CARTESIAN Z     0.004289     -0.620393  KCAL/ANGSTROM
     10          4  C    CARTESIAN X     1.893011     -1.134131  KCAL/ANGSTROM
     11          4  C    CARTESIAN Y     3.743798      0.496354  KCAL/ANGSTROM
     12          4  C    CARTESIAN Z    -0.006092      0.853123  KCAL/ANGSTROM
     13          5  C    CARTESIAN X     0.494793      2.095094  KCAL/ANGSTROM
     14          5  C    CARTESIAN Y     3.838916      0.247109  KCAL/ANGSTROM
     15          5  C    CARTESIAN Z    -0.044059      0.242603  KCAL/ANGSTROM
     16          6  C    CARTESIAN X    -0.276252      0.150996  KCAL/ANGSTROM
     17          6  C    CARTESIAN Y     2.690116     -0.927137  KCAL/ANGSTROM
     18          6  C    CARTESIAN Z    -0.031402     -0.387153  KCAL/ANGSTROM
     19          7  N    CARTESIAN X    -0.345022     -1.581950  KCAL/ANGSTROM
     20          7  N    CARTESIAN Y     0.598190     -1.807195  KCAL/ANGSTROM
     21          7  N    CARTESIAN Z     1.629332      0.653636  KCAL/ANGSTROM
     22          8  H    CARTESIAN X     2.228117      0.360589  KCAL/ANGSTROM
     23          8  H    CARTESIAN Y     0.342221      0.379489  KCAL/ANGSTROM
     24          8  H    CARTESIAN Z     0.035715     -1.499363  KCAL/ANGSTROM
     25          9  H    CARTESIAN X     3.608918      0.233357  KCAL/ANGSTROM
     26          9  H    CARTESIAN Y     2.436807     -0.312013  KCAL/ANGSTROM
     27          9  H    CARTESIAN Z    -0.018143     -0.478260  KCAL/ANGSTROM
     28         10  H    CARTESIAN X     2.494154     -0.123520  KCAL/ANGSTROM
     29         10  H    CARTESIAN Y     4.658931      0.397201  KCAL/ANGSTROM
     30         10  H    CARTESIAN Z     0.010007      1.104419  KCAL/ANGSTROM
     31         11  H    CARTESIAN X     0.024167     -0.300083  KCAL/ANGSTROM
     32         11  H    CARTESIAN Y     4.822180      0.231706  KCAL/ANGSTROM
     33         11  H    CARTESIAN Z    -0.069222      1.053935  KCAL/ANGSTROM
     34         12  H    CARTESIAN X    -1.370158      0.279702  KCAL/ANGSTROM
     35         12  H    CARTESIAN Y     2.742988      0.202305  KCAL/ANGSTROM
     36         12  H    CARTESIAN Z    -0.069656     -0.407857  KCAL/ANGSTROM
     37         13  O    CARTESIAN X    -0.061779     -0.998573  KCAL/ANGSTROM
     38         13  O    CARTESIAN Y    -0.524637     -0.625613  KCAL/ANGSTROM
     39         13  O    CARTESIAN Z     1.692725     -0.995204  KCAL/ANGSTROM
     40         14  O    CARTESIAN X    -0.864174     -0.558883  KCAL/ANGSTROM
     41         14  O    CARTESIAN Y     1.464008     -0.355741  KCAL/ANGSTROM
     42         14  O    CARTESIAN Z     2.231381     -2.959620  KCAL/ANGSTROM
     43         15  O    CARTESIAN X    -2.495504     -0.359064  KCAL/ANGSTROM
     44         15  O    CARTESIAN Y     0.325652     -1.403488  KCAL/ANGSTROM
     45         15  O    CARTESIAN Z     0.552231      0.820431  KCAL/ANGSTROM
     46         16  H    CARTESIAN X    -0.137189      0.939900  KCAL/ANGSTROM
     47         16  H    CARTESIAN Y     0.490894     -2.727946  KCAL/ANGSTROM
     48         16  H    CARTESIAN Z    -0.558112     -0.223913  KCAL/ANGSTROM
     49         17  H    CARTESIAN X    -3.410619     -0.576912  KCAL/ANGSTROM
     50         17  H    CARTESIAN Y     0.227269      0.432999  KCAL/ANGSTROM
     51         17  H    CARTESIAN Z     0.784842     -0.598748  KCAL/ANGSTROM
     52         18  H    CARTESIAN X    -2.330344     -0.343404  KCAL/ANGSTROM
     53         18  H    CARTESIAN Y    -0.359970     -0.626007  KCAL/ANGSTROM
     54         18  H    CARTESIAN Z    -0.136252      0.439054  KCAL/ANGSTROM
     55         19  S    CARTESIAN X    -0.405876      0.593286  KCAL/ANGSTROM
     56         19  S    CARTESIAN Y    -2.221412      0.800872  KCAL/ANGSTROM
     57         19  S    CARTESIAN Z    -1.168235     -0.093420  KCAL/ANGSTROM
     58         20  O    CARTESIAN X    -0.505045     -0.475076  KCAL/ANGSTROM
     59         20  O    CARTESIAN Y    -3.256558     -0.698396  KCAL/ANGSTROM
     60         20  O    CARTESIAN Z    -0.160165      0.653388  KCAL/ANGSTROM
     61         21  O    CARTESIAN X    -1.989959     -0.020948  KCAL/ANGSTROM
     62         21  O    CARTESIAN Y    -1.548778     -0.431491  KCAL/ANGSTROM
     63         21  O    CARTESIAN Z    -1.289496     -0.283932  KCAL/ANGSTROM
     64         22  O    CARTESIAN X    -0.134565      0.262584  KCAL/ANGSTROM
     65         22  O    CARTESIAN Y    -2.579419      0.951814  KCAL/ANGSTROM
     66         22  O    CARTESIAN Z    -2.546827      1.442386  KCAL/ANGSTROM
     67         23  O    CARTESIAN X     0.308969     -1.347677  KCAL/ANGSTROM
     68         23  O    CARTESIAN Y    -0.980645      1.892012  KCAL/ANGSTROM
     69         23  O    CARTESIAN Z    -0.689958      1.019860  KCAL/ANGSTROM
     70         24  H    CARTESIAN X    -2.334039      0.031810  KCAL/ANGSTROM
     71         24  H    CARTESIAN Y    -1.497612      0.537855  KCAL/ANGSTROM
     72         24  H    CARTESIAN Z    -2.179383     -0.375935  KCAL/ANGSTROM




   ATOM                 CHEMICAL                   X               Y               Z
  NUMBER                 SYMBOL               (ANGSTROMS)     (ANGSTROMS)     (ANGSTROMS)
 
     1       C(HETATM    1  C1  HET A   1)    0.34345661  *   1.41868324  *   0.07818805  *
     2       C(HETATM    2  C2  HET A   1)    1.75673197  *   1.33622440  *   0.05085717  *
     3       C(HETATM    3  C3  HET A   1)    2.52028964  *   2.49839922  *   0.00428902  *
     4       C(HETATM    4  C4  HET A   1)    1.89301050  *   3.74379822  *  -0.00609215  *
     5       C(HETATM    5  C5  HET A   1)    0.49479330  *   3.83891626  *  -0.04405869  *
     6       C(HETATM    6  C6  HET A   1)   -0.27625181  *   2.69011591  *  -0.03140213  *
     7       N(HETATM    7  N   HET B   1)   -0.34502247  *   0.59819032  *   1.62933176  *
     8       H(HETATM    8  H2  HET A   1)    2.22811707  *   0.34222123  *   0.03571463  *
     9       H(HETATM    9  H3  HET A   1)    3.60891843  *   2.43680687  *  -0.01814287  *
    10       H(HETATM   10  H4  HET A   1)    2.49415441  *   4.65893061  *   0.01000686  *
    11       H(HETATM   11  H5  HET A   1)    0.02416713  *   4.82218042  *  -0.06922246  *
    12       H(HETATM   12  H6  HET A   1)   -1.37015796  *   2.74298775  *  -0.06965597  *
    13       O(HETATM   13  O1  HET D   1)   -0.06177907  *  -0.52463670  *   1.69272540  *
    14       O(HETATM   14  O2  HET D   1)   -0.86417426  *   1.46400806  *   2.23138146  *
    15       O(HETATM   15  O   HOH E   2)   -2.49550428  *   0.32565212  *   0.55223089  *
    16       H(HETATM   16  H4  SO4 H   3)   -0.13718856  *   0.49089386  *  -0.55811218  *
    17       H(HETATM   17 1H   HOH E   2)   -3.41061872  *   0.22726870  *   0.78484195  *
    18       H(HETATM   18 2H   HOH E   2)   -2.33034426  *  -0.35997020  *  -0.13625195  *
    19       S(HETATM   19  S   SO4 H   3)   -0.40587578  *  -2.22141215  *  -1.16823515  *
    20       O(HETATM   20  O1  SO4 H   3)   -0.50504513  *  -3.25655758  *  -0.16016454  *
    21       O(HETATM   21  O2  SO4 H   3)   -1.98995920  *  -1.54877800  *  -1.28949643  *
    22       O(HETATM   22  O3  SO4 H   3)   -0.13456483  *  -2.57941921  *  -2.54682742  *
    23       O(HETATM   23  O4  SO4 H   3)    0.30896925  *  -0.98064503  *  -0.68995838  *
    24       H(HETATM   24  H2  SO4 H   3)   -2.33403901  *  -1.49761232  *  -2.17938300  *

                             CARTESIAN COORDINATES

   1    C        0.343456612     1.418683237     0.078188051
   2    C        1.756731969     1.336224395     0.050857174
   3    C        2.520289639     2.498399219     0.004289019
   4    C        1.893010503     3.743798224    -0.006092146
   5    C        0.494793299     3.838916258    -0.044058687
   6    C       -0.276251808     2.690115905    -0.031402127
   7    N       -0.345022465     0.598190323     1.629331764
   8    H        2.228117070     0.342221232     0.035714632
   9    H        3.608918426     2.436806870    -0.018142866
  10    H        2.494154407     4.658930606     0.010006861
  11    H        0.024167129     4.822180416    -0.069222460
  12    H       -1.370157957     2.742987752    -0.069655974
  13    O       -0.061779065    -0.524636699     1.692725397
  14    O       -0.864174257     1.464008059     2.231381464
  15    O       -2.495504276     0.325652116     0.552230885
  16    H       -0.137188563     0.490893855    -0.558112182
  17    H       -3.410618721     0.227268704     0.784841949
  18    H       -2.330344263    -0.359970204    -0.136251955
  19    S       -0.405875776    -2.221412155    -1.168235153
  20    O       -0.505045127    -3.256557581    -0.160164545
  21    O       -1.989959204    -1.548778005    -1.289496428
  22    O       -0.134564830    -2.579419206    -2.546827416
  23    O        0.308969251    -0.980645028    -0.689958376
  24    H       -2.334039007    -1.497612320    -2.179383001


           Empirical Formula: C6 H9 N O7 S  =    24 atoms



      MOLECULAR POINT GROUP   :   C1  


                  EIGENVALUES  
 -38.94256 -34.72021 -31.66864 -29.11144 -28.66166 -27.33117 -27.11073 -26.90860
 -26.12929 -25.83218 -25.63107 -22.15977 -22.08524 -19.69577 -19.42974 -19.16209
 -18.52514 -18.24022 -17.68034 -16.62134 -16.32627 -15.97903 -15.46733 -15.38609
 -14.60101 -14.09211 -13.96168 -13.84370 -13.25418 -13.10807 -13.01811 -12.99619
 -12.75782 -12.21560 -11.82485 -11.27573 -11.20776 -11.09416 -11.00075 -10.90753
 -10.56077 -10.45903 -10.19265  -3.09810  -0.96557  -0.85186  -0.79001   0.82862
   1.52343   1.89141   3.06253   3.23116   3.67163   3.77353   3.87152   3.94080
   4.12815   4.24928   4.56478   4.73014   4.83367   4.95783   5.09637   5.13332
   5.21213   5.28780   5.42042   6.17635   6.61711   6.63790   7.03477   7.18790
   7.99425   8.25790


              NET ATOMIC CHARGES AND DIPOLE CONTRIBUTIONS

  ATOM NO.                 TYPE                        CHARGE      No. of ELECS.   s-Pop       p-Pop       d-Pop       
    1          C(HETATM    1  C1  HET A   1)          -0.368582        4.3686     1.13578     3.23280
    2          C(HETATM    2  C2  HET A   1)           0.058705        3.9413     1.11863     2.82266
    3          C(HETATM    3  C3  HET A   1)          -0.271503        4.2715     1.08422     3.18728
    4          C(HETATM    4  C4  HET A   1)           0.014897        3.9851     1.10562     2.87948
    5          C(HETATM    5  C5  HET A   1)          -0.257703        4.2577     1.08335     3.17435
    6          C(HETATM    6  C6  HET A   1)           0.020316        3.9797     1.11088     2.86880
    7          N(HETATM    7  N   HET B   1)           0.678112        4.3219     1.47686     2.84503
    8          H(HETATM    8  H2  HET A   1)           0.198675        0.8013     0.80132
    9          H(HETATM    9  H3  HET A   1)           0.171762        0.8282     0.82824
   10          H(HETATM   10  H4  HET A   1)           0.157700        0.8423     0.84230
   11          H(HETATM   11  H5  HET A   1)           0.171211        0.8288     0.82879
   12          H(HETATM   12  H6  HET A   1)           0.177164        0.8228     0.82284
   13          O(HETATM   13  O1  HET D   1)          -0.019285        6.0193     1.93171     4.08758
   14          O(HETATM   14  O2  HET D   1)          -0.206284        6.2063     1.93298     4.27330
   15          O(HETATM   15  O   HOH E   2)          -0.777683        6.7777     1.81449     4.96320
   16          H(HETATM   16  H4  SO4 H   3)           0.384440        0.6156     0.61556
   17          H(HETATM   17 1H   HOH E   2)           0.349108        0.6509     0.65089
   18          H(HETATM   18 2H   HOH E   2)           0.400732        0.5993     0.59927
   19          S(HETATM   19  S   SO4 H   3)           2.645563        3.3544     1.09994     1.78523     0.46927
   20          O(HETATM   20  O1  SO4 H   3)          -0.928045        6.9280     1.89645     5.03159
   21          O(HETATM   21  O2  SO4 H   3)          -0.933880        6.9339     1.84388     5.09000
   22          O(HETATM   22  O3  SO4 H   3)          -0.958198        6.9582     1.89603     5.06217
   23          O(HETATM   23  O4  SO4 H   3)          -1.089056        7.0891     1.89849     5.19057
   24          H(HETATM   24  H2  SO4 H   3)           0.381836        0.6182     0.61816

          NET CHARGE ON RESIDUES

      Residue         Charge  Anion or
                              Cation?
      HET A   1       +0.457
      HET B   1       +0.678  CATION
      HET D   1       -0.226
      SO4 H   3       -0.882  ANION
 


                   No Salt Bridges Found


 DIPOLE           X         Y         Z       TOTAL
 POINT-CHG.     1.288     9.966     3.718    10.715
 HYBRID        -0.285     0.461    -0.361     0.651
 SUM            1.003    10.428     3.357    11.001


          ATOMIC ORBITAL ELECTRON POPULATIONS

                   Atom                  s        px        py        pz      x^2-y^2     xz        z^2       yz        xy
   C(HETATM    1  C1  HET A   1)   1.13578   1.04494   1.09767   1.09019
   C(HETATM    2  C2  HET A   1)   1.11863   0.99292   1.06308   0.76667
   C(HETATM    3  C3  HET A   1)   1.08422   1.10330   0.99701   1.08698
   C(HETATM    4  C4  HET A   1)   1.10562   1.00961   1.05070   0.81917
   C(HETATM    5  C5  HET A   1)   1.08335   1.01087   1.08395   1.07954
   C(HETATM    6  C6  HET A   1)   1.11088   1.08999   0.97403   0.80478
   N(HETATM    7  N   HET B   1)   1.47686   0.93331   0.97378   0.93794
   H(HETATM    8  H2  HET A   1)   0.80132
   H(HETATM    9  H3  HET A   1)   0.82824
   H(HETATM   10  H4  HET A   1)   0.84230
   H(HETATM   11  H5  HET A   1)   0.82879
   H(HETATM   12  H6  HET A   1)   0.82284
   O(HETATM   13  O1  HET D   1)   1.93171   1.51850   0.92714   1.64193
   O(HETATM   14  O2  HET D   1)   1.93298   1.45882   1.35299   1.46149
   O(HETATM   15  O   HOH E   2)   1.81449   1.47907   1.74020   1.74392
   H(HETATM   16  H4  SO4 H   3)   0.61556
   H(HETATM   17 1H   HOH E   2)   0.65089
   H(HETATM   18 2H   HOH E   2)   0.59927
   S(HETATM   19  S   SO4 H   3)   1.09994   0.56645   0.60408   0.61470   0.06060   0.06930   0.12653   0.13779   0.07505
   O(HETATM   20  O1  SO4 H   3)   1.89645   1.82602   1.59638   1.60919
   O(HETATM   21  O2  SO4 H   3)   1.84388   1.65739   1.91011   1.52249
   O(HETATM   22  O3  SO4 H   3)   1.89603   1.82306   1.83064   1.40846
   O(HETATM   23  O4  SO4 H   3)   1.89849   1.76927   1.55315   1.86814
   H(HETATM   24  H2  SO4 H   3)   0.61816

 **********************
 *                    *
 * JOB ENDED NORMALLY *
 *                    *
 **********************



 TOTAL JOB TIME:            36.19 SECONDS

 == MOPAC DONE ==
