 *******************************************************************************
 ** Site#: 10005        For non-commercial use only     Version 15.322W 64BITS**
 *******************************************************************************
 ** Cite this work as:                                                        **
 **                                                                           **
 ** (a) MOPAC2012, James J. P. Stewart, Stewart Computational Chemistry,      **
 **  Version 15.322W web: HTTP://OpenMOPAC.net         Days remaining: 365    **
 **                                                                           **
 **                                 AND                                       **
 **                                                                           **
 ** (b) Maia, J.D.C., et al., J. Chem. Theory Comput. 2012, 8, 3072-3081.     **
 **                DOI: 10.1021/ct3004645.                                    **
 *******************************************************************************
 **                                                                           **
 **                                MOPAC2012                                  **
 **                                                                           **
 *******************************************************************************

                              PM7 CALCULATION RESULTS


 *******************************************************************************
 *  CALCULATION DONE:                                Wed Nov 18 11:48:45 2015  *
 *  GEO-OK     - OVERRIDE INTERATOMIC DISTANCE AND OTHER SAFETY CHECKS
 *  GEO_DAT    - DATA SET GEOMETRY IS IN FILE "INTERMEDIATE.ARC"
 *  GEO_REF    - REFERENCE GEOMETRY IS IN FILE "NO2(+) BENZENE HSO4(-).ARC"
 *  SADDLE     - TRANSITION STATE TO BE OPTIMIZED
 *  T=         - A TIME OF 172800.0 SECONDS REQUESTED
 *  DUMP=N     - RESTART FILE WRITTEN EVERY  7200.000 SECONDS
 *******************************************************************************
 geo-ok geo_ref="NO2(+) Benzene HSO4(-).arc" geo_dat="intermediate.arc" saddle  HTML
 Transition state for the reaction Benzene + NO2(+) <=> Nitrobenzene + H(+)

   ATOM                 CHEMICAL                   X               Y               Z
  NUMBER                 SYMBOL               (ANGSTROMS)     (ANGSTROMS)     (ANGSTROMS)
 
     1       C(HETATM    1  C   HET A   1)    0.00000000  *   0.00000000  *   0.00000000  *
     2       C(HETATM    2  C   HET A   1)    1.46649825  *   0.00000000  *   0.00000000  *
     3       C(HETATM    3  C   HET A   1)    2.14292350  *   1.19389717  *   0.00000000  *
     4       C(HETATM    4  C   HET A   1)    1.45087667  *   2.41160084  *  -0.12591170  *
     5       C(HETATM    5  C   HET A   1)    0.05142628  *   2.43446481  *  -0.28541765  *
     6       C(HETATM    6  C   HET A   1)   -0.66875361  *   1.26946782  *  -0.30645948  *
     7       N(HETATM    7  N   HET A   1)   -0.61730085  *  -1.18868309  *  -0.63322065  *
     8       O(HETATM    8  O   HET A   1)   -1.76629679  *  -1.10126261  *  -1.02500322  *
     9       O(HETATM    9  O   HET A   1)    0.05300219  *  -2.20003676  *  -0.72931036  *
    10       S(HETATM   10  S   HET A   1)   -1.87394006  *  -0.34302770  *   3.21437800  *
    11       O(HETATM   11  O   HET A   1)   -1.51962592  *   0.16628948  *   4.73861734  *
    12       O(HETATM   12  O   HET A   1)   -0.51938334  *  -0.36364679  *   2.51865169  *
    13       O(HETATM   13  O   HET A   1)   -2.45149455  *  -1.68388008  *   3.32943716  *
    14       O(HETATM   14  O   HET A   1)   -2.75378507  *   0.67796936  *   2.63812180  *
    15       H(HETATM   15  H   HET A   1)   -0.23253726  *  -0.11585273  *   1.17153940  *
    16       H(HETATM   16  H   HET A   1)    1.99219827  *  -0.96629330  *   0.04094765  *
    17       H(HETATM   17  H   HET A   1)    3.23898454  *   1.20938639  *   0.06956715  *
    18       H(HETATM   18  H   HET A   1)    2.01442151  *   3.35888890  *  -0.13060935  *
    19       H(HETATM   19  H   HET A   1)   -0.45104853  *   3.40020774  *  -0.42980993  *
    20       H(HETATM   20  H   HET A   1)   -1.75412332  *   1.26032924  *  -0.50248027  *
    21       H(HETATM   21  H   HET A   1)   -0.59579242  *   0.00826208  *   5.03325336  *
 

          By default, a restraining force of 3 kcal/mol/A^2 will be used
 ----------------------------------------
 ----------------------------------------

      List of atoms that are swapped in order to maximize overlap

         Atom No.      Atom Label           and  Atom No.      Atom Label         Difference to GEO_REF

    1       13 (HETATM   13  O   HET A   1)         11 (HETATM   11  O   HET A   1)       -0.79
    2       12 (HETATM   12  O   HET A   1)         13 (HETATM   13  O   HET A   1)       -1.84
  
  
  

                 After docking

              Atoms that move a lot
                   Atom Label               Movement    Integral

          (HETATM    8  O   HET A   1)        3.12        3.12
          (HETATM    7  N   HET A   1)        2.93        6.06
          (HETATM   21  H   HET A   1)        2.63        8.69
          (HETATM    9  O   HET A   1)        2.57       11.26
          (HETATM   12  O   HET A   1)        1.56       12.82
          (HETATM   13  O   HET A   1)        1.56       14.38
          (HETATM   10  S   HET A   1)        1.52       15.90
          (HETATM   11  O   HET A   1)        1.38       17.28
          (HETATM   14  O   HET A   1)        1.19       18.47
          (HETATM   16  H   HET A   1)        0.87       19.33
          (HETATM   15  H   HET A   1)        0.75       20.09
          (HETATM    2  C   HET A   1)        0.61       20.69
          (HETATM   20  H   HET A   1)        0.55       21.24
          (HETATM    1  C   HET A   1)        0.53       21.77
          (HETATM    6  C   HET A   1)        0.42       22.19
          (HETATM    3  C   HET A   1)        0.37       22.56
          (HETATM   17  H   HET A   1)        0.36       22.92
          (HETATM   18  H   HET A   1)        0.32       23.25
          (HETATM    4  C   HET A   1)        0.23       23.48
          (HETATM    5  C   HET A   1)        0.21       23.69
          (HETATM   19  H   HET A   1)        0.17       23.86

   Difference between data-set and GEO_REF:   23.86 = total,  1.1360 = Average,  1.4692 = RMS, in Angstroms

    The rotated-translated reference geometry will be written to: 'G:\test\NO2(+) Benzene HSO4(-).new'

     ===================== shared-memory parallel CPU Section ======================
     **                                                                           **
     **  MOPAC calculations will run in shared-memory parallel CPUs               **
     **                                                                           **
     **  Number of Threads =  4                                                   **
     **                                                                           **
     **                                                                           **
     **  For information on this work, see:                                       **
     **                                                                           **
     **  Maia, J.D.C., et al., J. Chem. Theory Comput. 2012, 8, 3072-3081.        **
     **        DOI: 10.1021/ct3004645.                                            **
     **                                                                           **
     ===================== shared-memory parallel CPU Section ======================
      


 General Reference for PM7:
 "Optimization of Parameters for Semiempirical Methods VI: More Modifications to the 
 NDDO Approximations and Re-optimization of Parameters", J. J. P. Stewart, J. Mol. Mod., 1:32, 19 (2013)
 http://www.springerlink.com/openurl.asp?genre=article&id=doi:10.1007/s00894-012-1667-x

           Empirical Formula: C6 H7 N O6 S  =    21 atoms



      MOLECULAR POINT GROUP   :   C1  


      RHF CALCULATION, NO. OF DOUBLY OCCUPIED LEVELS =   39



  CARTESIAN GEOMETRY OF FIRST SYSTEM


   1    C          0.25051      -0.14998      -0.45951
   2    C          1.64170      -0.13594      -0.36681
   3    C          2.35010       1.02765      -0.66004
   4    C          1.66325       2.17958      -1.04038
   5    C          0.27218       2.17104      -1.12108
   6    C         -0.43537       1.00628      -0.82709
   7    N         -0.96818      -3.30764      -3.87871
   8    O         -1.65959      -4.16159      -3.62429
   9    O         -0.27399      -2.45220      -4.13401
  10    S         -1.16650       0.01791       3.48603
  11    O         -1.14130       0.66778       4.82086
  12    O          0.11240      -0.60313       3.09945
  13    O         -2.18645      -1.28687       3.74318
  14    O         -1.84995       0.80619       2.44594
  15    H         -0.29867      -1.06578      -0.23996
  16    H          2.17017      -1.03852      -0.06290
  17    H          3.43683       1.03753      -0.59348
  18    H          2.21727       3.08813      -1.27548
  19    H         -0.26461       3.07145      -1.41528
  20    H         -1.52305       0.99768      -0.88365
  21    H         -2.34678      -1.86953       2.98718


  CARTESIAN GEOMETRY OF SECOND SYSTEM


   1    C          0.00000      -0.00000      -0.00000
   2    C          1.46650      -0.00000      -0.00000
   3    C          2.14292       1.19390      -0.00000
   4    C          1.45088       2.41160      -0.12591
   5    C          0.05143       2.43446      -0.28542
   6    C         -0.66875       1.26947      -0.30646
   7    N         -0.61730      -1.18868      -0.63322
   8    O         -1.76630      -1.10126      -1.02500
   9    O          0.05300      -2.20004      -0.72931
  10    S         -1.87394      -0.34303       3.21438
  11    O         -1.51963       0.16629       4.73862
  12    O         -0.51938      -0.36365       2.51865
  13    O         -2.45149      -1.68388       3.32944
  14    O         -2.75379       0.67797       2.63812
  15    H         -0.23254      -0.11585       1.17154
  16    H          1.99220      -0.96629       0.04095
  17    H          3.23898       1.20939       0.06957
  18    H          2.01442       3.35889      -0.13061
  19    H         -0.45105       3.40021      -0.42981
  20    H         -1.75412       1.26033      -0.50248
  21    H         -0.59579       0.00826       5.03325


   "DISTANCE":     8.147654


  REACTION COORDINATE VECTOR


   1    C          0.25051      -0.14998      -0.45951
   2    C          0.17520      -0.13594      -0.36681
   3    C          0.20718      -0.16625      -0.66004
   4    C          0.21238      -0.23202      -0.91447
   5    C          0.22076      -0.26343      -0.83567
   6    C          0.23339      -0.26319      -0.52063
   7    N         -0.35088      -2.11896      -3.24549
   8    O          0.10671      -3.06032      -2.59928
   9    O         -0.32699      -0.25217      -3.40470
  10    S          0.70744       0.36093       0.27166
  11    O          0.37833       0.50149       0.08225
  12    O          0.63178      -0.23949       0.58080
  13    O          0.26505       0.39701       0.41375
  14    O          0.90384       0.12822      -0.19218
  15    H         -0.06613      -0.94992      -1.41150
  16    H          0.17798      -0.07223      -0.10385
  17    H          0.19784      -0.17185      -0.66305
  18    H          0.20285      -0.27076      -1.14487
  19    H          0.18644      -0.32876      -0.98547
  20    H          0.23108      -0.26265      -0.38117
  21    H         -1.75099      -1.87779      -2.04607
 *+*+*+*+*+*+*+*+*+*+*+*+*+*+*+*+*+*+*+*+*+*+*+*+*+*+*+*+*+*+*+*+*+*+*+*+*+*+*+*+
            BAR SHORTENED BY       0.000 PERCENT
 GRADIENT CRITERION IN FLEPO =     1.000
           THERE HAVE BEEN 3 ATTEMPTS TO REDUCE THE GRADIENT.
           DURING THESE ATTEMPTS THE ENERGY DROPPED BY LESS THAN 0.3 KCAL/MOLE
           FURTHER CALCULATION IS NOT JUSTIFIED AT THIS TIME.
           TO CONTINUE, START AGAIN WITH THE WORD "PRECISE"


          FOR POINT    1 SECOND STRUCTURE
 DISTANCE A - B      8.147654
 HEAT               93.025712
 GRADIENT NORM      49.118300
 DIRECTION COSINE   -0.283222
 geo-ok geo_ref="NO2(+) Benzene HSO4(-).arc" geo_dat="intermediate.arc" saddle  HTML
 Transition state for the reaction Benzene + NO2(+) <=> Nitrobenzene + H(+)

  C(HETATM    1  C   HET A   1)   0.00000000 +1    0.0000000 +1    0.0000000 +1
  C(HETATM    2  C   HET A   1)   1.39305997 +1    0.0000000 +1    0.0000000 +1     1     0     0
  C(HETATM    3  C   HET A   1)   1.39345265 +1  119.9742223 +1    0.0000000 +1     2     1     0
  C(HETATM    4  C   HET A   1)   1.39461608 +1  119.9502532 +1    0.6045397 +1     3     2     1
  C(HETATM    5  C   HET A   1)   1.39385323 +1  119.9729990 +1   -0.7686278 +1     4     3     2
  C(HETATM    6  C   HET A   1)   1.39297054 +1  120.1443038 +1    0.2173542 +1     5     4     3
  N(HETATM    7  N   HET A   1)   3.61055572 +1   98.2084895 +1   92.3425981 +1     1     2     3
  O(HETATM    8  O   HET A   1)   1.15936335 +1  136.4998407 +1 -100.5333474 +1     7     1     2
  O(HETATM    9  O   HET A   1)   1.15034253 +1   54.2558810 +1  101.0031572 +1     7     1     2
  S(HETATM   10  S   HET A   1)   2.64118445 +1  120.0877829 +1  103.3844393 +1     9     7     1
  O(HETATM   11  O   HET A   1)   1.43922255 +1  138.5326906 +1 -145.8630908 +1    10     9     7
  O(HETATM   12  O   HET A   1)   1.57684755 +1   36.1732722 +1  154.4961265 +1    10     9     7
  O(HETATM   13  O   HET A   1)   1.65607052 +1  109.7864211 +1   70.4311094 +1    10     9     7
  O(HETATM   14  O   HET A   1)   1.45573091 +1   68.3994556 +1  -31.1721122 +1    10     9     7
  H(HETATM   15  H   HET A   1)   1.09164910 +1  119.6508402 +1 -179.0878820 +1     1     2     3
  H(HETATM   16  H   HET A   1)   1.08810697 +1  119.9632864 +1  179.2103161 +1     2     1     3
  H(HETATM   17  H   HET A   1)   1.08868464 +1  120.0850435 +1  179.9619675 +1     3     2     1
  H(HETATM   18  H   HET A   1)   1.08862370 +1  120.0651643 +1  178.9888728 +1     4     3     2
  H(HETATM   19  H   HET A   1)   1.08814974 +1  119.9766128 +1 -179.9262269 +1     5     4     3
  H(HETATM   20  H   HET A   1)   1.09141810 +1  120.0128915 +1 -179.4348578 +1     6     5     4
  H(HETATM   21  H   HET A   1)   0.96988471 +1  115.5093392 +1  157.3638546 +1    13    10     9
 
 TIME=     2.12
  REACTANTS AND PRODUCTS SWAPPED AROUND
 *+*+*+*+*+*+*+*+*+*+*+*+*+*+*+*+*+*+*+*+*+*+*+*+*+*+*+*+*+*+*+*+*+*+*+*+*+*+*+*+
            BAR SHORTENED BY       1.000 PERCENT
 GRADIENT CRITERION IN FLEPO =    10.000


          FOR POINT    2 FIRST  STRUCTURE
 DISTANCE A - B      8.066178
 HEAT               34.640524
 GRADIENT NORM      51.191493
 DIRECTION COSINE    0.926494
 geo-ok geo_ref="NO2(+) Benzene HSO4(-).arc" geo_dat="intermediate.arc" saddle  HTML
 Transition state for the reaction Benzene + NO2(+) <=> Nitrobenzene + H(+)

  C(HETATM    1  C   HET A   1)   0.00000000 +1    0.0000000 +1    0.0000000 +1
  C(HETATM    2  C   HET A   1)   1.39888582 +1    0.0000000 +1    0.0000000 +1     1     0     0
  C(HETATM    3  C   HET A   1)   1.38800196 +1  118.7246190 +1    0.0000000 +1     2     1     0
  C(HETATM    4  C   HET A   1)   1.39354452 +1  120.3135850 +1   -0.5640139 +1     3     2     1
  C(HETATM    5  C   HET A   1)   1.39373010 +1  120.2060588 +1   -0.1350909 +1     4     3     2
  C(HETATM    6  C   HET A   1)   1.39233316 +1  120.5159915 +1    0.5093370 +1     5     4     3
  N(HETATM    7  N   HET A   1)   1.45424363 +1  117.5020872 +1  178.1303301 +1     1     2     3
  O(HETATM    8  O   HET A   1)   1.22126003 +1  118.5586400 +1  158.0994810 +1     7     1     2
  O(HETATM    9  O   HET A   1)   1.22128663 +1  116.5538256 +1  -19.7616162 +1     7     1     2
  S(HETATM   10  S   HET A   1)   3.78955986 +1  102.8544436 +1  -60.7604565 +1     8     7     1
  O(HETATM   11  O   HET A   1)   1.64017165 +1  165.4639603 +1    6.3471873 +1    10     8     7
  O(HETATM   12  O   HET A   1)   1.65148321 +1   69.9031362 +1    0.7669651 +1    10     8     7
  O(HETATM   13  O   HET A   1)   1.42471361 +1   78.2857031 +1 -116.6715533 +1    10     8     7
  O(HETATM   14  O   HET A   1)   1.43271251 +1   73.8928865 +1  114.3088193 +1    10     8     7
  H(HETATM   15  H   HET A   1)   0.97616735 +1  116.1859318 +1   22.2921722 +1    12    10     8
  H(HETATM   16  H   HET A   1)   1.09554627 +1  120.6435506 +1 -179.9922694 +1     2     1     3
  H(HETATM   17  H   HET A   1)   1.08842806 +1  119.4951968 +1 -179.9628764 +1     3     2     1
  H(HETATM   18  H   HET A   1)   1.09244486 +1  119.7026973 +1  179.5478699 +1     4     3     2
  H(HETATM   19  H   HET A   1)   1.08938472 +1  120.1825654 +1 -179.9452276 +1     5     4     3
  H(HETATM   20  H   HET A   1)   1.09763895 +1  121.0789782 +1  178.8736399 +1     6     5     4
  H(HETATM   21  H   HET A   1)   0.97132845 +1  117.4983171 +1    4.6968220 +1    11    10     8
 
 *+*+*+*+*+*+*+*+*+*+*+*+*+*+*+*+*+*+*+*+*+*+*+*+*+*+*+*+*+*+*+*+*+*+*+*+*+*+*+*+
            BAR SHORTENED BY       1.000 PERCENT
 GRADIENT CRITERION IN FLEPO =    10.000


          FOR POINT    3 FIRST  STRUCTURE
 DISTANCE A - B      7.985516
 HEAT               30.753393
 GRADIENT NORM      53.270357
 DIRECTION COSINE    0.863620
 geo-ok geo_ref="NO2(+) Benzene HSO4(-).arc" geo_dat="intermediate.arc" saddle  HTML
 Transition state for the reaction Benzene + NO2(+) <=> Nitrobenzene + H(+)

  C(HETATM    1  C   HET A   1)   0.00000000 +1    0.0000000 +1    0.0000000 +1
  C(HETATM    2  C   HET A   1)   1.39884013 +1    0.0000000 +1    0.0000000 +1     1     0     0
  C(HETATM    3  C   HET A   1)   1.38909606 +1  119.0400892 +1    0.0000000 +1     2     1     0
  C(HETATM    4  C   HET A   1)   1.39736588 +1  120.1936991 +1    0.1124716 +1     3     2     1
  C(HETATM    5  C   HET A   1)   1.39676025 +1  120.1789834 +1    0.1633098 +1     4     3     2
  C(HETATM    6  C   HET A   1)   1.39313653 +1  120.3705296 +1    0.2964442 +1     5     4     3
  N(HETATM    7  N   HET A   1)   1.45158260 +1  117.9336307 +1  177.7427376 +1     1     2     3
  O(HETATM    8  O   HET A   1)   1.21420097 +1  119.1904783 +1  159.7782281 +1     7     1     2
  O(HETATM    9  O   HET A   1)   1.22472911 +1  116.4264757 +1  -20.1828928 +1     7     1     2
  S(HETATM   10  S   HET A   1)   3.80643245 +1  101.2799902 +1  -62.4066028 +1     8     7     1
  O(HETATM   11  O   HET A   1)   1.63696540 +1  165.7766102 +1    8.2362672 +1    10     8     7
  O(HETATM   12  O   HET A   1)   1.65713704 +1   69.5942281 +1    0.1732270 +1    10     8     7
  O(HETATM   13  O   HET A   1)   1.42291196 +1   79.1221340 +1 -116.0051335 +1    10     8     7
  O(HETATM   14  O   HET A   1)   1.43254016 +1   73.2689925 +1  114.5989785 +1    10     8     7
  H(HETATM   15  H   HET A   1)   0.96448904 +1  116.8568862 +1   25.7041666 +1    12    10     8
  H(HETATM   16  H   HET A   1)   1.09370500 +1  121.1179165 +1 -179.3712889 +1     2     1     3
  H(HETATM   17  H   HET A   1)   1.09121794 +1  119.7153443 +1 -178.9124292 +1     3     2     1
  H(HETATM   18  H   HET A   1)   1.09386101 +1  119.3472262 +1  179.7086873 +1     4     3     2
  H(HETATM   19  H   HET A   1)   1.08903752 +1  120.4500577 +1 -179.5988854 +1     5     4     3
  H(HETATM   20  H   HET A   1)   1.09503273 +1  120.4908870 +1  179.5101040 +1     6     5     4
  H(HETATM   21  H   HET A   1)   0.97276247 +1  117.2604056 +1    1.2887019 +1    11    10     8
 
 *+*+*+*+*+*+*+*+*+*+*+*+*+*+*+*+*+*+*+*+*+*+*+*+*+*+*+*+*+*+*+*+*+*+*+*+*+*+*+*+
            BAR SHORTENED BY       1.000 PERCENT
 GRADIENT CRITERION IN FLEPO =    10.000


          FOR POINT    4 FIRST  STRUCTURE
 DISTANCE A - B      7.905661
 HEAT               27.207933
 GRADIENT NORM      44.186729
 DIRECTION COSINE    0.807191
 geo-ok geo_ref="NO2(+) Benzene HSO4(-).arc" geo_dat="intermediate.arc" saddle  HTML
 Transition state for the reaction Benzene + NO2(+) <=> Nitrobenzene + H(+)

  C(HETATM    1  C   HET A   1)   0.00000000 +1    0.0000000 +1    0.0000000 +1
  C(HETATM    2  C   HET A   1)   1.39982293 +1    0.0000000 +1    0.0000000 +1     1     0     0
  C(HETATM    3  C   HET A   1)   1.38311651 +1  118.8465850 +1    0.0000000 +1     2     1     0
  C(HETATM    4  C   HET A   1)   1.39383871 +1  120.1446361 +1    2.0931936 +1     3     2     1
  C(HETATM    5  C   HET A   1)   1.39363675 +1  120.4759753 +1   -1.6971116 +1     4     3     2
  C(HETATM    6  C   HET A   1)   1.38890187 +1  120.2050599 +1    0.8734675 +1     5     4     3
  N(HETATM    7  N   HET A   1)   1.46229468 +1  117.7902582 +1  175.8706712 +1     1     2     3
  O(HETATM    8  O   HET A   1)   1.21438086 +1  119.2181302 +1  160.6740876 +1     7     1     2
  O(HETATM    9  O   HET A   1)   1.21595488 +1  116.4244731 +1  -19.0699508 +1     7     1     2
  S(HETATM   10  S   HET A   1)   3.79967779 +1  100.8150848 +1  -62.5631230 +1     8     7     1
  O(HETATM   11  O   HET A   1)   1.63393566 +1  165.9767648 +1    9.9160434 +1    10     8     7
  O(HETATM   12  O   HET A   1)   1.65589704 +1   69.9027481 +1    0.0940906 +1    10     8     7
  O(HETATM   13  O   HET A   1)   1.41945902 +1   79.6586700 +1 -115.9149594 +1    10     8     7
  O(HETATM   14  O   HET A   1)   1.43155424 +1   72.9186961 +1  114.5335574 +1    10     8     7
  H(HETATM   15  H   HET A   1)   0.96486192 +1  117.1590743 +1   27.1037954 +1    12    10     8
  H(HETATM   16  H   HET A   1)   1.09357936 +1  121.5952292 +1 -178.3042283 +1     2     1     3
  H(HETATM   17  H   HET A   1)   1.09118431 +1  119.4864197 +1  179.9616653 +1     3     2     1
  H(HETATM   18  H   HET A   1)   1.08747853 +1  119.3182768 +1  178.6210084 +1     4     3     2
  H(HETATM   19  H   HET A   1)   1.09144143 +1  120.7600224 +1 -178.4260083 +1     5     4     3
  H(HETATM   20  H   HET A   1)   1.09442941 +1  120.3795545 +1  179.4634162 +1     6     5     4
  H(HETATM   21  H   HET A   1)   0.96098545 +1  117.5596401 +1   -2.2840323 +1    11    10     8
 
 TIME=     0.58
  REACTANTS AND PRODUCTS SWAPPED AROUND
 *+*+*+*+*+*+*+*+*+*+*+*+*+*+*+*+*+*+*+*+*+*+*+*+*+*+*+*+*+*+*+*+*+*+*+*+*+*+*+*+
            BAR SHORTENED BY       0.000 PERCENT
 GRADIENT CRITERION IN FLEPO =    10.000


          FOR POINT    5 SECOND STRUCTURE
 DISTANCE A - B      7.905661
 HEAT               81.371320
 GRADIENT NORM      47.515438
 DIRECTION COSINE    0.845294
 geo-ok geo_ref="NO2(+) Benzene HSO4(-).arc" geo_dat="intermediate.arc" saddle  HTML
 Transition state for the reaction Benzene + NO2(+) <=> Nitrobenzene + H(+)

  C(HETATM    1  C   HET A   1)   0.00000000 +1    0.0000000 +1    0.0000000 +1
  C(HETATM    2  C   HET A   1)   1.39305997 +1    0.0000000 +1    0.0000000 +1     1     0     0
  C(HETATM    3  C   HET A   1)   1.39345265 +1  119.9742223 +1    0.0000000 +1     2     1     0
  C(HETATM    4  C   HET A   1)   1.39461608 +1  119.9502532 +1    0.6045397 +1     3     2     1
  C(HETATM    5  C   HET A   1)   1.39385323 +1  119.9729990 +1   -0.7686278 +1     4     3     2
  C(HETATM    6  C   HET A   1)   1.39297054 +1  120.1443038 +1    0.2173542 +1     5     4     3
  N(HETATM    7  N   HET A   1)   3.61055572 +1   98.2084895 +1   92.3425981 +1     1     2     3
  O(HETATM    8  O   HET A   1)   1.15936335 +1  136.4998407 +1 -100.5333474 +1     7     1     2
  O(HETATM    9  O   HET A   1)   1.15034253 +1   54.2558810 +1  101.0031572 +1     7     1     2
  S(HETATM   10  S   HET A   1)   2.64118445 +1  120.0877829 +1  103.3844393 +1     9     7     1
  O(HETATM   11  O   HET A   1)   1.43922255 +1  138.5326906 +1 -145.8630908 +1    10     9     7
  O(HETATM   12  O   HET A   1)   1.57684755 +1   36.1732722 +1  154.4961265 +1    10     9     7
  O(HETATM   13  O   HET A   1)   1.65607052 +1  109.7864211 +1   70.4311094 +1    10     9     7
  O(HETATM   14  O   HET A   1)   1.45573091 +1   68.3994556 +1  -31.1721122 +1    10     9     7
  H(HETATM   15  H   HET A   1)   1.09164910 +1  119.6508402 +1 -179.0878820 +1     1     2     3
  H(HETATM   16  H   HET A   1)   1.08810697 +1  119.9632864 +1  179.2103161 +1     2     1     3
  H(HETATM   17  H   HET A   1)   1.08868464 +1  120.0850435 +1  179.9619675 +1     3     2     1
  H(HETATM   18  H   HET A   1)   1.08862370 +1  120.0651643 +1  178.9888728 +1     4     3     2
  H(HETATM   19  H   HET A   1)   1.08814974 +1  119.9766128 +1 -179.9262269 +1     5     4     3
  H(HETATM   20  H   HET A   1)   1.09141810 +1  120.0128915 +1 -179.4348578 +1     6     5     4
  H(HETATM   21  H   HET A   1)   0.96988471 +1  115.5093392 +1  157.3638546 +1    13    10     9
 
 TIME=     0.03
  REACTANTS AND PRODUCTS SWAPPED AROUND
 *+*+*+*+*+*+*+*+*+*+*+*+*+*+*+*+*+*+*+*+*+*+*+*+*+*+*+*+*+*+*+*+*+*+*+*+*+*+*+*+
            BAR SHORTENED BY       1.000 PERCENT
 GRADIENT CRITERION IN FLEPO =    10.000


          FOR POINT    6 FIRST  STRUCTURE
 DISTANCE A - B      7.826604
 HEAT               23.392430
 GRADIENT NORM      48.822325
 DIRECTION COSINE    0.921834
 geo-ok geo_ref="NO2(+) Benzene HSO4(-).arc" geo_dat="intermediate.arc" saddle  HTML
 Transition state for the reaction Benzene + NO2(+) <=> Nitrobenzene + H(+)

  C(HETATM    1  C   HET A   1)   0.00000000 +1    0.0000000 +1    0.0000000 +1
  C(HETATM    2  C   HET A   1)   1.39928935 +1    0.0000000 +1    0.0000000 +1     1     0     0
  C(HETATM    3  C   HET A   1)   1.38919438 +1  119.0987938 +1    0.0000000 +1     2     1     0
  C(HETATM    4  C   HET A   1)   1.39489460 +1  119.9321678 +1    0.0923744 +1     3     2     1
  C(HETATM    5  C   HET A   1)   1.39528121 +1  120.4676804 +1    0.5073818 +1     4     3     2
  C(HETATM    6  C   HET A   1)   1.39293405 +1  120.2173856 +1   -0.3141250 +1     5     4     3
  N(HETATM    7  N   HET A   1)   1.45730498 +1  118.0151483 +1  175.9954784 +1     1     2     3
  O(HETATM    8  O   HET A   1)   1.21787922 +1  118.8246013 +1  162.4695564 +1     7     1     2
  O(HETATM    9  O   HET A   1)   1.22310119 +1  116.5377064 +1  -17.5519954 +1     7     1     2
  S(HETATM   10  S   HET A   1)   3.78932722 +1  100.1256464 +1  -63.8383786 +1     8     7     1
  O(HETATM   11  O   HET A   1)   1.64242737 +1  166.3203412 +1   17.7270270 +1    10     8     7
  O(HETATM   12  O   HET A   1)   1.65792413 +1   70.5645257 +1    0.8545010 +1    10     8     7
  O(HETATM   13  O   HET A   1)   1.42077269 +1   80.3213437 +1 -114.7939062 +1    10     8     7
  O(HETATM   14  O   HET A   1)   1.43445192 +1   71.8873006 +1  115.1585554 +1    10     8     7
  H(HETATM   15  H   HET A   1)   0.96799046 +1  117.2260155 +1   28.3343605 +1    12    10     8
  H(HETATM   16  H   HET A   1)   1.09283594 +1  122.1705092 +1 -179.7795389 +1     2     1     3
  H(HETATM   17  H   HET A   1)   1.09100291 +1  119.6869307 +1 -178.9237928 +1     3     2     1
  H(HETATM   18  H   HET A   1)   1.09160924 +1  119.0165499 +1  179.4788996 +1     4     3     2
  H(HETATM   19  H   HET A   1)   1.08914013 +1  120.9900975 +1 -178.8660075 +1     5     4     3
  H(HETATM   20  H   HET A   1)   1.09677211 +1  120.0158498 +1  179.4336540 +1     6     5     4
  H(HETATM   21  H   HET A   1)   0.97104897 +1  117.0939637 +1  -13.9158371 +1    11    10     8
 
 *+*+*+*+*+*+*+*+*+*+*+*+*+*+*+*+*+*+*+*+*+*+*+*+*+*+*+*+*+*+*+*+*+*+*+*+*+*+*+*+
            BAR SHORTENED BY       1.000 PERCENT
 GRADIENT CRITERION IN FLEPO =    10.000


          FOR POINT    7 FIRST  STRUCTURE
 DISTANCE A - B      7.748338
 HEAT               19.895203
 GRADIENT NORM      46.609526
 DIRECTION COSINE    0.838277
 geo-ok geo_ref="NO2(+) Benzene HSO4(-).arc" geo_dat="intermediate.arc" saddle  HTML
 Transition state for the reaction Benzene + NO2(+) <=> Nitrobenzene + H(+)

  C(HETATM    1  C   HET A   1)   0.00000000 +1    0.0000000 +1    0.0000000 +1
  C(HETATM    2  C   HET A   1)   1.39876406 +1    0.0000000 +1    0.0000000 +1     1     0     0
  C(HETATM    3  C   HET A   1)   1.38651927 +1  119.2620287 +1    0.0000000 +1     2     1     0
  C(HETATM    4  C   HET A   1)   1.39791482 +1  119.8150930 +1    0.4596119 +1     3     2     1
  C(HETATM    5  C   HET A   1)   1.39243263 +1  120.6115089 +1    0.1506390 +1     4     3     2
  C(HETATM    6  C   HET A   1)   1.39063136 +1  120.2580511 +1    0.2856140 +1     5     4     3
  N(HETATM    7  N   HET A   1)   1.45961067 +1  118.5514251 +1  175.1453064 +1     1     2     3
  O(HETATM    8  O   HET A   1)   1.21679540 +1  119.1813635 +1  163.3263244 +1     7     1     2
  O(HETATM    9  O   HET A   1)   1.21683351 +1  116.2296831 +1  -16.1784714 +1     7     1     2
  S(HETATM   10  S   HET A   1)   3.78668354 +1   99.5358836 +1  -64.2471235 +1     8     7     1
  O(HETATM   11  O   HET A   1)   1.63215154 +1  166.4601234 +1   19.8888107 +1    10     8     7
  O(HETATM   12  O   HET A   1)   1.66524095 +1   70.7847550 +1    0.8188654 +1    10     8     7
  O(HETATM   13  O   HET A   1)   1.42152601 +1   80.7117868 +1 -114.4009776 +1    10     8     7
  O(HETATM   14  O   HET A   1)   1.43223003 +1   71.2319625 +1  115.4394793 +1    10     8     7
  H(HETATM   15  H   HET A   1)   0.95808919 +1  117.2049018 +1   29.9125743 +1    12    10     8
  H(HETATM   16  H   HET A   1)   1.09470123 +1  122.0761102 +1 -179.4308855 +1     2     1     3
  H(HETATM   17  H   HET A   1)   1.09037690 +1  119.8178976 +1 -178.6329929 +1     3     2     1
  H(HETATM   18  H   HET A   1)   1.08893847 +1  118.6992513 +1  179.3210122 +1     4     3     2
  H(HETATM   19  H   HET A   1)   1.08946471 +1  120.1969059 +1 -179.1222156 +1     5     4     3
  H(HETATM   20  H   HET A   1)   1.09452518 +1  120.0460983 +1  179.0597890 +1     6     5     4
  H(HETATM   21  H   HET A   1)   0.96757034 +1  117.9547263 +1  -18.5380506 +1    11    10     8
 
 *+*+*+*+*+*+*+*+*+*+*+*+*+*+*+*+*+*+*+*+*+*+*+*+*+*+*+*+*+*+*+*+*+*+*+*+*+*+*+*+
            BAR SHORTENED BY       1.000 PERCENT
 GRADIENT CRITERION IN FLEPO =    10.000


          FOR POINT    8 FIRST  STRUCTURE
 DISTANCE A - B      7.670855
 HEAT               16.068448
 GRADIENT NORM      46.488382
 DIRECTION COSINE    0.750596
 geo-ok geo_ref="NO2(+) Benzene HSO4(-).arc" geo_dat="intermediate.arc" saddle  HTML
 Transition state for the reaction Benzene + NO2(+) <=> Nitrobenzene + H(+)

  C(HETATM    1  C   HET A   1)   0.00000000 +1    0.0000000 +1    0.0000000 +1
  C(HETATM    2  C   HET A   1)   1.40266403 +1    0.0000000 +1    0.0000000 +1     1     0     0
  C(HETATM    3  C   HET A   1)   1.38925336 +1  118.8727787 +1    0.0000000 +1     2     1     0
  C(HETATM    4  C   HET A   1)   1.39528868 +1  120.0978986 +1    0.7597499 +1     3     2     1
  C(HETATM    5  C   HET A   1)   1.39168638 +1  120.3711100 +1    0.3551598 +1     4     3     2
  C(HETATM    6  C   HET A   1)   1.39198474 +1  120.3548257 +1    0.0654474 +1     5     4     3
  N(HETATM    7  N   HET A   1)   1.45842129 +1  118.3702630 +1  175.6088367 +1     1     2     3
  O(HETATM    8  O   HET A   1)   1.22016225 +1  118.6412332 +1  165.3906200 +1     7     1     2
  O(HETATM    9  O   HET A   1)   1.22078321 +1  116.7264643 +1  -14.8087746 +1     7     1     2
  S(HETATM   10  S   HET A   1)   3.78064357 +1   98.1991754 +1  -67.0268968 +1     8     7     1
  O(HETATM   11  O   HET A   1)   1.64124855 +1  166.1856786 +1   25.9396917 +1    10     8     7
  O(HETATM   12  O   HET A   1)   1.65530125 +1   71.5781459 +1    1.8035208 +1    10     8     7
  O(HETATM   13  O   HET A   1)   1.42707569 +1   81.4232913 +1 -112.6035916 +1    10     8     7
  O(HETATM   14  O   HET A   1)   1.42662623 +1   69.7232808 +1  116.9454999 +1    10     8     7
  H(HETATM   15  H   HET A   1)   0.96698839 +1  117.4404739 +1   30.7997969 +1    12    10     8
  H(HETATM   16  H   HET A   1)   1.08926877 +1  121.3174325 +1 -179.4913749 +1     2     1     3
  H(HETATM   17  H   HET A   1)   1.08867554 +1  119.9089556 +1 -178.0242640 +1     3     2     1
  H(HETATM   18  H   HET A   1)   1.09081647 +1  119.7530038 +1 -179.6263311 +1     4     3     2
  H(HETATM   19  H   HET A   1)   1.09386086 +1  120.3667561 +1 -178.9046818 +1     5     4     3
  H(HETATM   20  H   HET A   1)   1.10061483 +1  120.5950911 +1  178.3777695 +1     6     5     4
  H(HETATM   21  H   HET A   1)   0.96053721 +1  117.1223039 +1  -27.6688902 +1    11    10     8
 
 TIME=     0.31
  REACTANTS AND PRODUCTS SWAPPED AROUND
 *+*+*+*+*+*+*+*+*+*+*+*+*+*+*+*+*+*+*+*+*+*+*+*+*+*+*+*+*+*+*+*+*+*+*+*+*+*+*+*+
            BAR SHORTENED BY       0.000 PERCENT
 GRADIENT CRITERION IN FLEPO =    10.000


          FOR POINT    9 SECOND STRUCTURE
 DISTANCE A - B      7.670855
 HEAT               70.398941
 GRADIENT NORM      46.127515
 DIRECTION COSINE    0.894789
 geo-ok geo_ref="NO2(+) Benzene HSO4(-).arc" geo_dat="intermediate.arc" saddle  HTML
 Transition state for the reaction Benzene + NO2(+) <=> Nitrobenzene + H(+)

  C(HETATM    1  C   HET A   1)   0.00000000 +1    0.0000000 +1    0.0000000 +1
  C(HETATM    2  C   HET A   1)   1.39305997 +1    0.0000000 +1    0.0000000 +1     1     0     0
  C(HETATM    3  C   HET A   1)   1.39345265 +1  119.9742223 +1    0.0000000 +1     2     1     0
  C(HETATM    4  C   HET A   1)   1.39461608 +1  119.9502532 +1    0.6045397 +1     3     2     1
  C(HETATM    5  C   HET A   1)   1.39385323 +1  119.9729990 +1   -0.7686278 +1     4     3     2
  C(HETATM    6  C   HET A   1)   1.39297054 +1  120.1443038 +1    0.2173542 +1     5     4     3
  N(HETATM    7  N   HET A   1)   3.61055572 +1   98.2084895 +1   92.3425981 +1     1     2     3
  O(HETATM    8  O   HET A   1)   1.15936335 +1  136.4998407 +1 -100.5333474 +1     7     1     2
  O(HETATM    9  O   HET A   1)   1.15034253 +1   54.2558810 +1  101.0031572 +1     7     1     2
  S(HETATM   10  S   HET A   1)   2.64118445 +1  120.0877829 +1  103.3844393 +1     9     7     1
  O(HETATM   11  O   HET A   1)   1.43922255 +1  138.5326906 +1 -145.8630908 +1    10     9     7
  O(HETATM   12  O   HET A   1)   1.57684755 +1   36.1732722 +1  154.4961265 +1    10     9     7
  O(HETATM   13  O   HET A   1)   1.65607052 +1  109.7864211 +1   70.4311094 +1    10     9     7
  O(HETATM   14  O   HET A   1)   1.45573091 +1   68.3994556 +1  -31.1721122 +1    10     9     7
  H(HETATM   15  H   HET A   1)   1.09164910 +1  119.6508402 +1 -179.0878820 +1     1     2     3
  H(HETATM   16  H   HET A   1)   1.08810697 +1  119.9632864 +1  179.2103161 +1     2     1     3
  H(HETATM   17  H   HET A   1)   1.08868464 +1  120.0850435 +1  179.9619675 +1     3     2     1
  H(HETATM   18  H   HET A   1)   1.08862370 +1  120.0651643 +1  178.9888728 +1     4     3     2
  H(HETATM   19  H   HET A   1)   1.08814974 +1  119.9766128 +1 -179.9262269 +1     5     4     3
  H(HETATM   20  H   HET A   1)   1.09141810 +1  120.0128915 +1 -179.4348578 +1     6     5     4
  H(HETATM   21  H   HET A   1)   0.96988471 +1  115.5093392 +1  157.3638546 +1    13    10     9
 
 TIME=     0.03
  REACTANTS AND PRODUCTS SWAPPED AROUND
 *+*+*+*+*+*+*+*+*+*+*+*+*+*+*+*+*+*+*+*+*+*+*+*+*+*+*+*+*+*+*+*+*+*+*+*+*+*+*+*+
            BAR SHORTENED BY       1.000 PERCENT
 GRADIENT CRITERION IN FLEPO =    10.000


          FOR POINT   10 FIRST  STRUCTURE
 DISTANCE A - B      7.594146
 HEAT               12.681463
 GRADIENT NORM      46.973601
 DIRECTION COSINE    0.923647
 geo-ok geo_ref="NO2(+) Benzene HSO4(-).arc" geo_dat="intermediate.arc" saddle  HTML
 Transition state for the reaction Benzene + NO2(+) <=> Nitrobenzene + H(+)

  C(HETATM    1  C   HET A   1)   0.00000000 +1    0.0000000 +1    0.0000000 +1
  C(HETATM    2  C   HET A   1)   1.39858754 +1    0.0000000 +1    0.0000000 +1     1     0     0
  C(HETATM    3  C   HET A   1)   1.38882800 +1  119.1460940 +1    0.0000000 +1     2     1     0
  C(HETATM    4  C   HET A   1)   1.39308051 +1  120.1235043 +1    0.5337817 +1     3     2     1
  C(HETATM    5  C   HET A   1)   1.39836675 +1  120.3301616 +1    1.0706519 +1     4     3     2
  C(HETATM    6  C   HET A   1)   1.39070958 +1  120.2489879 +1   -0.6436630 +1     5     4     3
  N(HETATM    7  N   HET A   1)   1.45504070 +1  118.7816281 +1  174.6009081 +1     1     2     3
  O(HETATM    8  O   HET A   1)   1.21598921 +1  118.7702018 +1  166.6865485 +1     7     1     2
  O(HETATM    9  O   HET A   1)   1.22132561 +1  116.8848496 +1  -13.7632500 +1     7     1     2
  S(HETATM   10  S   HET A   1)   3.78012917 +1   97.5851815 +1  -67.6423615 +1     8     7     1
  O(HETATM   11  O   HET A   1)   1.63431303 +1  166.1094112 +1   29.1726438 +1    10     8     7
  O(HETATM   12  O   HET A   1)   1.65956825 +1   71.4503760 +1    1.9820159 +1    10     8     7
  O(HETATM   13  O   HET A   1)   1.42263022 +1   82.2262742 +1 -112.2696852 +1    10     8     7
  O(HETATM   14  O   HET A   1)   1.42955060 +1   69.3456044 +1  117.3992824 +1    10     8     7
  H(HETATM   15  H   HET A   1)   0.96853432 +1  117.7523179 +1   32.3883841 +1    12    10     8
  H(HETATM   16  H   HET A   1)   1.09360051 +1  121.4048339 +1 -179.2194624 +1     2     1     3
  H(HETATM   17  H   HET A   1)   1.09056594 +1  119.8076770 +1 -177.7932076 +1     3     2     1
  H(HETATM   18  H   HET A   1)   1.08905486 +1  119.4656908 +1  179.6280034 +1     4     3     2
  H(HETATM   19  H   HET A   1)   1.08793115 +1  120.6528135 +1 -179.3155041 +1     5     4     3
  H(HETATM   20  H   HET A   1)   1.09496565 +1  120.3648073 +1  178.8050537 +1     6     5     4
  H(HETATM   21  H   HET A   1)   0.97514795 +1  117.8980397 +1  -33.6874143 +1    11    10     8
 
 *+*+*+*+*+*+*+*+*+*+*+*+*+*+*+*+*+*+*+*+*+*+*+*+*+*+*+*+*+*+*+*+*+*+*+*+*+*+*+*+
            BAR SHORTENED BY       1.000 PERCENT
 GRADIENT CRITERION IN FLEPO =    10.000


          FOR POINT   11 FIRST  STRUCTURE
 DISTANCE A - B      7.518205
 HEAT                9.452800
 GRADIENT NORM      47.378315
 DIRECTION COSINE    0.917600
 geo-ok geo_ref="NO2(+) Benzene HSO4(-).arc" geo_dat="intermediate.arc" saddle  HTML
 Transition state for the reaction Benzene + NO2(+) <=> Nitrobenzene + H(+)

  C(HETATM    1  C   HET A   1)   0.00000000 +1    0.0000000 +1    0.0000000 +1
  C(HETATM    2  C   HET A   1)   1.39715776 +1    0.0000000 +1    0.0000000 +1     1     0     0
  C(HETATM    3  C   HET A   1)   1.38759332 +1  119.2467808 +1    0.0000000 +1     2     1     0
  C(HETATM    4  C   HET A   1)   1.39482986 +1  119.8986463 +1    1.3749692 +1     3     2     1
  C(HETATM    5  C   HET A   1)   1.39338010 +1  120.6808551 +1   -0.1532267 +1     4     3     2
  C(HETATM    6  C   HET A   1)   1.39082371 +1  120.0335696 +1    0.5458544 +1     5     4     3
  N(HETATM    7  N   HET A   1)   1.45722717 +1  119.1500981 +1  173.5811801 +1     1     2     3
  O(HETATM    8  O   HET A   1)   1.21711257 +1  119.0216802 +1  168.0323394 +1     7     1     2
  O(HETATM    9  O   HET A   1)   1.22279384 +1  116.6770122 +1  -12.8056305 +1     7     1     2
  S(HETATM   10  S   HET A   1)   3.77279483 +1   96.6686186 +1  -68.3271576 +1     8     7     1
  O(HETATM   11  O   HET A   1)   1.63799782 +1  166.3341186 +1   32.6195196 +1    10     8     7
  O(HETATM   12  O   HET A   1)   1.65661066 +1   71.6920599 +1    2.1409182 +1    10     8     7
  O(HETATM   13  O   HET A   1)   1.42446755 +1   82.8406817 +1 -112.1989604 +1    10     8     7
  O(HETATM   14  O   HET A   1)   1.42866168 +1   68.8662585 +1  117.6056538 +1    10     8     7
  H(HETATM   15  H   HET A   1)   0.96976448 +1  118.0161317 +1   34.0065475 +1    12    10     8
  H(HETATM   16  H   HET A   1)   1.09225883 +1  121.7786016 +1 -178.9738366 +1     2     1     3
  H(HETATM   17  H   HET A   1)   1.09156403 +1  119.9854755 +1 -177.9936615 +1     3     2     1
  H(HETATM   18  H   HET A   1)   1.10217899 +1  119.5134229 +1  179.8480820 +1     4     3     2
  H(HETATM   19  H   HET A   1)   1.09008942 +1  120.3905711 +1 -178.9933138 +1     5     4     3
  H(HETATM   20  H   HET A   1)   1.09730218 +1  120.0237222 +1  178.2584302 +1     6     5     4
  H(HETATM   21  H   HET A   1)   0.97133535 +1  117.4879501 +1  -39.8772983 +1    11    10     8
 
 *+*+*+*+*+*+*+*+*+*+*+*+*+*+*+*+*+*+*+*+*+*+*+*+*+*+*+*+*+*+*+*+*+*+*+*+*+*+*+*+
            BAR SHORTENED BY       1.000 PERCENT
 GRADIENT CRITERION IN FLEPO =    10.000


          FOR POINT   12 FIRST  STRUCTURE
 DISTANCE A - B      7.443023
 HEAT                6.267829
 GRADIENT NORM      41.139314
 DIRECTION COSINE    0.904719
 geo-ok geo_ref="NO2(+) Benzene HSO4(-).arc" geo_dat="intermediate.arc" saddle  HTML
 Transition state for the reaction Benzene + NO2(+) <=> Nitrobenzene + H(+)

  C(HETATM    1  C   HET A   1)   0.00000000 +1    0.0000000 +1    0.0000000 +1
  C(HETATM    2  C   HET A   1)   1.39952173 +1    0.0000000 +1    0.0000000 +1     1     0     0
  C(HETATM    3  C   HET A   1)   1.38920919 +1  119.0834293 +1    0.0000000 +1     2     1     0
  C(HETATM    4  C   HET A   1)   1.39424697 +1  119.8578158 +1    1.0881863 +1     3     2     1
  C(HETATM    5  C   HET A   1)   1.39455679 +1  120.7838213 +1    0.4593935 +1     4     3     2
  C(HETATM    6  C   HET A   1)   1.39070039 +1  119.9425474 +1    0.0274868 +1     5     4     3
  N(HETATM    7  N   HET A   1)   1.46245120 +1  119.0969085 +1  173.0609535 +1     1     2     3
  O(HETATM    8  O   HET A   1)   1.21755686 +1  119.1064015 +1  169.1587700 +1     7     1     2
  O(HETATM    9  O   HET A   1)   1.22077611 +1  116.6254034 +1  -11.9066361 +1     7     1     2
  S(HETATM   10  S   HET A   1)   3.76985612 +1   95.9739286 +1  -68.9312530 +1     8     7     1
  O(HETATM   11  O   HET A   1)   1.64210641 +1  165.9009668 +1   36.7645828 +1    10     8     7
  O(HETATM   12  O   HET A   1)   1.66104105 +1   71.7400804 +1    2.2193743 +1    10     8     7
  O(HETATM   13  O   HET A   1)   1.42247623 +1   83.3798051 +1 -111.9560381 +1    10     8     7
  O(HETATM   14  O   HET A   1)   1.42765347 +1   68.3839524 +1  117.6672906 +1    10     8     7
  H(HETATM   15  H   HET A   1)   0.97095741 +1  118.1307841 +1   35.6087149 +1    12    10     8
  H(HETATM   16  H   HET A   1)   1.09193419 +1  122.1815077 +1 -179.0766705 +1     2     1     3
  H(HETATM   17  H   HET A   1)   1.09137584 +1  119.9793581 +1 -177.5825591 +1     3     2     1
  H(HETATM   18  H   HET A   1)   1.08429140 +1  119.4036367 +1 -179.7579798 +1     4     3     2
  H(HETATM   19  H   HET A   1)   1.09109292 +1  120.2573174 +1 -178.8731098 +1     5     4     3
  H(HETATM   20  H   HET A   1)   1.09415481 +1  119.7556916 +1  178.5924298 +1     6     5     4
  H(HETATM   21  H   HET A   1)   0.96401321 +1  116.9960125 +1  -47.7131296 +1    11    10     8
 
 TIME=     0.22
  REACTANTS AND PRODUCTS SWAPPED AROUND
 *+*+*+*+*+*+*+*+*+*+*+*+*+*+*+*+*+*+*+*+*+*+*+*+*+*+*+*+*+*+*+*+*+*+*+*+*+*+*+*+
            BAR SHORTENED BY       0.000 PERCENT
 GRADIENT CRITERION IN FLEPO =    10.000


          FOR POINT   13 SECOND STRUCTURE
 DISTANCE A - B      7.443023
 HEAT               60.068663
 GRADIENT NORM      44.776092
 DIRECTION COSINE    0.917998
 geo-ok geo_ref="NO2(+) Benzene HSO4(-).arc" geo_dat="intermediate.arc" saddle  HTML
 Transition state for the reaction Benzene + NO2(+) <=> Nitrobenzene + H(+)

  C(HETATM    1  C   HET A   1)   0.00000000 +1    0.0000000 +1    0.0000000 +1
  C(HETATM    2  C   HET A   1)   1.39305997 +1    0.0000000 +1    0.0000000 +1     1     0     0
  C(HETATM    3  C   HET A   1)   1.39345265 +1  119.9742223 +1    0.0000000 +1     2     1     0
  C(HETATM    4  C   HET A   1)   1.39461608 +1  119.9502532 +1    0.6045397 +1     3     2     1
  C(HETATM    5  C   HET A   1)   1.39385323 +1  119.9729990 +1   -0.7686278 +1     4     3     2
  C(HETATM    6  C   HET A   1)   1.39297054 +1  120.1443038 +1    0.2173542 +1     5     4     3
  N(HETATM    7  N   HET A   1)   3.61055572 +1   98.2084895 +1   92.3425981 +1     1     2     3
  O(HETATM    8  O   HET A   1)   1.15936335 +1  136.4998407 +1 -100.5333474 +1     7     1     2
  O(HETATM    9  O   HET A   1)   1.15034253 +1   54.2558810 +1  101.0031572 +1     7     1     2
  S(HETATM   10  S   HET A   1)   2.64118445 +1  120.0877829 +1  103.3844393 +1     9     7     1
  O(HETATM   11  O   HET A   1)   1.43922255 +1  138.5326906 +1 -145.8630908 +1    10     9     7
  O(HETATM   12  O   HET A   1)   1.57684755 +1   36.1732722 +1  154.4961265 +1    10     9     7
  O(HETATM   13  O   HET A   1)   1.65607052 +1  109.7864211 +1   70.4311094 +1    10     9     7
  O(HETATM   14  O   HET A   1)   1.45573091 +1   68.3994556 +1  -31.1721122 +1    10     9     7
  H(HETATM   15  H   HET A   1)   1.09164910 +1  119.6508402 +1 -179.0878820 +1     1     2     3
  H(HETATM   16  H   HET A   1)   1.08810697 +1  119.9632864 +1  179.2103161 +1     2     1     3
  H(HETATM   17  H   HET A   1)   1.08868464 +1  120.0850435 +1  179.9619675 +1     3     2     1
  H(HETATM   18  H   HET A   1)   1.08862370 +1  120.0651643 +1  178.9888728 +1     4     3     2
  H(HETATM   19  H   HET A   1)   1.08814974 +1  119.9766128 +1 -179.9262269 +1     5     4     3
  H(HETATM   20  H   HET A   1)   1.09141810 +1  120.0128915 +1 -179.4348578 +1     6     5     4
  H(HETATM   21  H   HET A   1)   0.96988471 +1  115.5093392 +1  157.3638546 +1    13    10     9
 
 TIME=     0.03
  REACTANTS AND PRODUCTS SWAPPED AROUND
 *+*+*+*+*+*+*+*+*+*+*+*+*+*+*+*+*+*+*+*+*+*+*+*+*+*+*+*+*+*+*+*+*+*+*+*+*+*+*+*+
            BAR SHORTENED BY       1.000 PERCENT
 GRADIENT CRITERION IN FLEPO =    10.000


          FOR POINT   14 FIRST  STRUCTURE
 DISTANCE A - B      7.368592
 HEAT                3.086790
 GRADIENT NORM      50.442278
 DIRECTION COSINE    0.836944
 geo-ok geo_ref="NO2(+) Benzene HSO4(-).arc" geo_dat="intermediate.arc" saddle  HTML
 Transition state for the reaction Benzene + NO2(+) <=> Nitrobenzene + H(+)

  C(HETATM    1  C   HET A   1)   0.00000000 +1    0.0000000 +1    0.0000000 +1
  C(HETATM    2  C   HET A   1)   1.39961636 +1    0.0000000 +1    0.0000000 +1     1     0     0
  C(HETATM    3  C   HET A   1)   1.39131296 +1  119.4503461 +1    0.0000000 +1     2     1     0
  C(HETATM    4  C   HET A   1)   1.39783461 +1  119.6830529 +1    0.6679355 +1     3     2     1
  C(HETATM    5  C   HET A   1)   1.39132419 +1  120.7641173 +1    1.6446102 +1     4     3     2
  C(HETATM    6  C   HET A   1)   1.39121557 +1  120.0895465 +1   -1.2629793 +1     5     4     3
  N(HETATM    7  N   HET A   1)   1.45620427 +1  119.7274071 +1  172.3650974 +1     1     2     3
  O(HETATM    8  O   HET A   1)   1.21763001 +1  119.3469823 +1  170.6128907 +1     7     1     2
  O(HETATM    9  O   HET A   1)   1.22396230 +1  116.4091677 +1  -10.9468307 +1     7     1     2
  S(HETATM   10  S   HET A   1)   3.76511515 +1   95.0673791 +1  -69.8308605 +1     8     7     1
  O(HETATM   11  O   HET A   1)   1.64001149 +1  165.6423821 +1   41.1528376 +1    10     8     7
  O(HETATM   12  O   HET A   1)   1.65578315 +1   72.9617392 +1    1.9052692 +1    10     8     7
  O(HETATM   13  O   HET A   1)   1.42496809 +1   84.1729748 +1 -111.5770827 +1    10     8     7
  O(HETATM   14  O   HET A   1)   1.42754347 +1   67.7485514 +1  118.0685260 +1    10     8     7
  H(HETATM   15  H   HET A   1)   0.96831111 +1  116.7617316 +1   37.2431101 +1    12    10     8
  H(HETATM   16  H   HET A   1)   1.09491619 +1  122.0827252 +1 -179.0589095 +1     2     1     3
  H(HETATM   17  H   HET A   1)   1.09158201 +1  120.2047884 +1 -177.1881058 +1     3     2     1
  H(HETATM   18  H   HET A   1)   1.09938271 +1  118.2213102 +1  179.8670550 +1     4     3     2
  H(HETATM   19  H   HET A   1)   1.09055089 +1  120.5774324 +1 -179.0387283 +1     5     4     3
  H(HETATM   20  H   HET A   1)   1.09772303 +1  119.7449967 +1  178.8849951 +1     6     5     4
  H(HETATM   21  H   HET A   1)   0.97184746 +1  116.7733365 +1  -55.7447542 +1    11    10     8
 
 *+*+*+*+*+*+*+*+*+*+*+*+*+*+*+*+*+*+*+*+*+*+*+*+*+*+*+*+*+*+*+*+*+*+*+*+*+*+*+*+
            BAR SHORTENED BY       1.000 PERCENT
 GRADIENT CRITERION IN FLEPO =    10.000


          FOR POINT   15 FIRST  STRUCTURE
 DISTANCE A - B      7.294906
 HEAT               -0.047440
 GRADIENT NORM      41.402226
 DIRECTION COSINE    0.827879
 geo-ok geo_ref="NO2(+) Benzene HSO4(-).arc" geo_dat="intermediate.arc" saddle  HTML
 Transition state for the reaction Benzene + NO2(+) <=> Nitrobenzene + H(+)

  C(HETATM    1  C   HET A   1)   0.00000000 +1    0.0000000 +1    0.0000000 +1
  C(HETATM    2  C   HET A   1)   1.40170152 +1    0.0000000 +1    0.0000000 +1     1     0     0
  C(HETATM    3  C   HET A   1)   1.38932553 +1  119.0077149 +1    0.0000000 +1     2     1     0
  C(HETATM    4  C   HET A   1)   1.39802322 +1  119.9197879 +1    1.3461777 +1     3     2     1
  C(HETATM    5  C   HET A   1)   1.39425972 +1  120.5841599 +1    0.5787813 +1     4     3     2
  C(HETATM    6  C   HET A   1)   1.39019922 +1  120.0682632 +1   -0.1435850 +1     5     4     3
  N(HETATM    7  N   HET A   1)   1.46655780 +1  119.3425148 +1  171.6395925 +1     1     2     3
  O(HETATM    8  O   HET A   1)   1.21892129 +1  119.2697010 +1  171.6459146 +1     7     1     2
  O(HETATM    9  O   HET A   1)   1.22006370 +1  116.5120140 +1   -9.9618975 +1     7     1     2
  S(HETATM   10  S   HET A   1)   3.76428224 +1   94.4604167 +1  -70.5089680 +1     8     7     1
  O(HETATM   11  O   HET A   1)   1.63588169 +1  165.3744546 +1   43.1825231 +1    10     8     7
  O(HETATM   12  O   HET A   1)   1.65774027 +1   72.7580398 +1    2.0534846 +1    10     8     7
  O(HETATM   13  O   HET A   1)   1.42311784 +1   84.6293378 +1 -111.3312860 +1    10     8     7
  O(HETATM   14  O   HET A   1)   1.43043711 +1   67.0523724 +1  118.1345766 +1    10     8     7
  H(HETATM   15  H   HET A   1)   0.97080131 +1  117.4910865 +1   38.9176394 +1    12    10     8
  H(HETATM   16  H   HET A   1)   1.09352984 +1  122.5202863 +1 -178.8850483 +1     2     1     3
  H(HETATM   17  H   HET A   1)   1.09245092 +1  120.1429318 +1 -177.1578593 +1     3     2     1
  H(HETATM   18  H   HET A   1)   1.08191081 +1  118.8283001 +1 -179.6894646 +1     4     3     2
  H(HETATM   19  H   HET A   1)   1.09400095 +1  120.0429009 +1 -178.7096900 +1     5     4     3
  H(HETATM   20  H   HET A   1)   1.09501525 +1  119.6204491 +1  178.4022390 +1     6     5     4
  H(HETATM   21  H   HET A   1)   0.97009157 +1  116.5531976 +1  -60.1820852 +1    11    10     8
 
 *+*+*+*+*+*+*+*+*+*+*+*+*+*+*+*+*+*+*+*+*+*+*+*+*+*+*+*+*+*+*+*+*+*+*+*+*+*+*+*+
            BAR SHORTENED BY       1.000 PERCENT
 GRADIENT CRITERION IN FLEPO =    10.000


          FOR POINT   16 FIRST  STRUCTURE
 DISTANCE A - B      7.221957
 HEAT               -3.327750
 GRADIENT NORM      44.912198
 DIRECTION COSINE    0.836029
 geo-ok geo_ref="NO2(+) Benzene HSO4(-).arc" geo_dat="intermediate.arc" saddle  HTML
 Transition state for the reaction Benzene + NO2(+) <=> Nitrobenzene + H(+)

  C(HETATM    1  C   HET A   1)   0.00000000 +1    0.0000000 +1    0.0000000 +1
  C(HETATM    2  C   HET A   1)   1.40080273 +1    0.0000000 +1    0.0000000 +1     1     0     0
  C(HETATM    3  C   HET A   1)   1.39063172 +1  119.1186319 +1    0.0000000 +1     2     1     0
  C(HETATM    4  C   HET A   1)   1.39262549 +1  119.7207981 +1    1.4267267 +1     3     2     1
  C(HETATM    5  C   HET A   1)   1.39658557 +1  120.8597494 +1    0.9818672 +1     4     3     2
  C(HETATM    6  C   HET A   1)   1.39241035 +1  119.8661847 +1   -0.5465579 +1     5     4     3
  N(HETATM    7  N   HET A   1)   1.45642800 +1  118.9285663 +1  171.3101165 +1     1     2     3
  O(HETATM    8  O   HET A   1)   1.21999996 +1  118.1856353 +1  172.6884858 +1     7     1     2
  O(HETATM    9  O   HET A   1)   1.21987064 +1  117.7756015 +1   -9.1439780 +1     7     1     2
  S(HETATM   10  S   HET A   1)   3.75323165 +1   94.2119272 +1  -71.7623660 +1     8     7     1
  O(HETATM   11  O   HET A   1)   1.64288501 +1  164.8619656 +1   45.6740131 +1    10     8     7
  O(HETATM   12  O   HET A   1)   1.65467441 +1   72.3937400 +1    2.6339696 +1    10     8     7
  O(HETATM   13  O   HET A   1)   1.42564662 +1   85.1171746 +1 -109.7018918 +1    10     8     7
  O(HETATM   14  O   HET A   1)   1.43618471 +1   65.9885718 +1  119.4586141 +1    10     8     7
  H(HETATM   15  H   HET A   1)   0.96519549 +1  118.0279612 +1   40.5928349 +1    12    10     8
  H(HETATM   16  H   HET A   1)   1.09051613 +1  122.2216163 +1 -179.1030345 +1     2     1     3
  H(HETATM   17  H   HET A   1)   1.09272308 +1  120.4439915 +1 -177.0624754 +1     3     2     1
  H(HETATM   18  H   HET A   1)   1.09277715 +1  119.3234015 +1 -179.0621131 +1     4     3     2
  H(HETATM   19  H   HET A   1)   1.08944369 +1  120.4889189 +1 -179.0011511 +1     5     4     3
  H(HETATM   20  H   HET A   1)   1.09935267 +1  119.8230239 +1  178.0978290 +1     6     5     4
  H(HETATM   21  H   HET A   1)   0.96676217 +1  116.4284935 +1  -66.7453560 +1    11    10     8
 
 TIME=     0.21
  REACTANTS AND PRODUCTS SWAPPED AROUND
 *+*+*+*+*+*+*+*+*+*+*+*+*+*+*+*+*+*+*+*+*+*+*+*+*+*+*+*+*+*+*+*+*+*+*+*+*+*+*+*+
            BAR SHORTENED BY       0.000 PERCENT
 GRADIENT CRITERION IN FLEPO =    10.000


          FOR POINT   17 SECOND STRUCTURE
 DISTANCE A - B      7.221957
 HEAT               50.342912
 GRADIENT NORM      43.463594
 DIRECTION COSINE    0.905425
 geo-ok geo_ref="NO2(+) Benzene HSO4(-).arc" geo_dat="intermediate.arc" saddle  HTML
 Transition state for the reaction Benzene + NO2(+) <=> Nitrobenzene + H(+)

  C(HETATM    1  C   HET A   1)   0.00000000 +1    0.0000000 +1    0.0000000 +1
  C(HETATM    2  C   HET A   1)   1.39305997 +1    0.0000000 +1    0.0000000 +1     1     0     0
  C(HETATM    3  C   HET A   1)   1.39345265 +1  119.9742223 +1    0.0000000 +1     2     1     0
  C(HETATM    4  C   HET A   1)   1.39461608 +1  119.9502532 +1    0.6045397 +1     3     2     1
  C(HETATM    5  C   HET A   1)   1.39385323 +1  119.9729990 +1   -0.7686278 +1     4     3     2
  C(HETATM    6  C   HET A   1)   1.39297054 +1  120.1443038 +1    0.2173542 +1     5     4     3
  N(HETATM    7  N   HET A   1)   3.61055572 +1   98.2084895 +1   92.3425981 +1     1     2     3
  O(HETATM    8  O   HET A   1)   1.15936335 +1  136.4998407 +1 -100.5333474 +1     7     1     2
  O(HETATM    9  O   HET A   1)   1.15034253 +1   54.2558810 +1  101.0031572 +1     7     1     2
  S(HETATM   10  S   HET A   1)   2.64118445 +1  120.0877829 +1  103.3844393 +1     9     7     1
  O(HETATM   11  O   HET A   1)   1.43922255 +1  138.5326906 +1 -145.8630908 +1    10     9     7
  O(HETATM   12  O   HET A   1)   1.57684755 +1   36.1732722 +1  154.4961265 +1    10     9     7
  O(HETATM   13  O   HET A   1)   1.65607052 +1  109.7864211 +1   70.4311094 +1    10     9     7
  O(HETATM   14  O   HET A   1)   1.45573091 +1   68.3994556 +1  -31.1721122 +1    10     9     7
  H(HETATM   15  H   HET A   1)   1.09164910 +1  119.6508402 +1 -179.0878820 +1     1     2     3
  H(HETATM   16  H   HET A   1)   1.08810697 +1  119.9632864 +1  179.2103161 +1     2     1     3
  H(HETATM   17  H   HET A   1)   1.08868464 +1  120.0850435 +1  179.9619675 +1     3     2     1
  H(HETATM   18  H   HET A   1)   1.08862370 +1  120.0651643 +1  178.9888728 +1     4     3     2
  H(HETATM   19  H   HET A   1)   1.08814974 +1  119.9766128 +1 -179.9262269 +1     5     4     3
  H(HETATM   20  H   HET A   1)   1.09141810 +1  120.0128915 +1 -179.4348578 +1     6     5     4
  H(HETATM   21  H   HET A   1)   0.96988471 +1  115.5093392 +1  157.3638546 +1    13    10     9
 
 TIME=     0.04
  REACTANTS AND PRODUCTS SWAPPED AROUND
 *+*+*+*+*+*+*+*+*+*+*+*+*+*+*+*+*+*+*+*+*+*+*+*+*+*+*+*+*+*+*+*+*+*+*+*+*+*+*+*+
            BAR SHORTENED BY       1.000 PERCENT
 GRADIENT CRITERION IN FLEPO =    10.000


          FOR POINT   18 FIRST  STRUCTURE
 DISTANCE A - B      7.149738
 HEAT               -6.349694
 GRADIENT NORM      42.980158
 DIRECTION COSINE    0.884944
 geo-ok geo_ref="NO2(+) Benzene HSO4(-).arc" geo_dat="intermediate.arc" saddle  HTML
 Transition state for the reaction Benzene + NO2(+) <=> Nitrobenzene + H(+)

  C(HETATM    1  C   HET A   1)   0.00000000 +1    0.0000000 +1    0.0000000 +1
  C(HETATM    2  C   HET A   1)   1.40193991 +1    0.0000000 +1    0.0000000 +1     1     0     0
  C(HETATM    3  C   HET A   1)   1.38838805 +1  119.1349213 +1    0.0000000 +1     2     1     0
  C(HETATM    4  C   HET A   1)   1.39991254 +1  119.8189118 +1    1.1561955 +1     3     2     1
  C(HETATM    5  C   HET A   1)   1.39317111 +1  120.6059285 +1    1.8015478 +1     4     3     2
  C(HETATM    6  C   HET A   1)   1.39045280 +1  120.2402524 +1   -1.3710789 +1     5     4     3
  N(HETATM    7  N   HET A   1)   1.46115389 +1  119.5604868 +1  170.6958202 +1     1     2     3
  O(HETATM    8  O   HET A   1)   1.21703208 +1  118.5119114 +1  173.8357353 +1     7     1     2
  O(HETATM    9  O   HET A   1)   1.22150960 +1  117.1628625 +1   -8.2795049 +1     7     1     2
  S(HETATM   10  S   HET A   1)   3.74749192 +1   93.5671612 +1  -72.4538507 +1     8     7     1
  O(HETATM   11  O   HET A   1)   1.63986907 +1  164.4143739 +1   48.0362854 +1    10     8     7
  O(HETATM   12  O   HET A   1)   1.65170482 +1   73.0623041 +1    2.4984737 +1    10     8     7
  O(HETATM   13  O   HET A   1)   1.42059893 +1   85.6575016 +1 -109.2889812 +1    10     8     7
  O(HETATM   14  O   HET A   1)   1.43026384 +1   65.5887965 +1  119.8945321 +1    10     8     7
  H(HETATM   15  H   HET A   1)   0.96989023 +1  117.7208751 +1   42.4294850 +1    12    10     8
  H(HETATM   16  H   HET A   1)   1.09662082 +1  121.7997747 +1 -179.0312030 +1     2     1     3
  H(HETATM   17  H   HET A   1)   1.09094976 +1  120.2491982 +1 -176.9585229 +1     3     2     1
  H(HETATM   18  H   HET A   1)   1.09125610 +1  118.5420341 +1 -179.3732415 +1     4     3     2
  H(HETATM   19  H   HET A   1)   1.09208025 +1  119.6340981 +1 -179.4892293 +1     5     4     3
  H(HETATM   20  H   HET A   1)   1.09552927 +1  120.1360354 +1  178.4018964 +1     6     5     4
  H(HETATM   21  H   HET A   1)   0.96783812 +1  115.7624291 +1  -71.9464940 +1    11    10     8
 
 *+*+*+*+*+*+*+*+*+*+*+*+*+*+*+*+*+*+*+*+*+*+*+*+*+*+*+*+*+*+*+*+*+*+*+*+*+*+*+*+
            BAR SHORTENED BY       1.000 PERCENT
 GRADIENT CRITERION IN FLEPO =    10.000


          FOR POINT   19 FIRST  STRUCTURE
 DISTANCE A - B      7.078240
 HEAT               -9.112878
 GRADIENT NORM      42.976356
 DIRECTION COSINE    0.820760
 geo-ok geo_ref="NO2(+) Benzene HSO4(-).arc" geo_dat="intermediate.arc" saddle  HTML
 Transition state for the reaction Benzene + NO2(+) <=> Nitrobenzene + H(+)

  C(HETATM    1  C   HET A   1)   0.00000000 +1    0.0000000 +1    0.0000000 +1
  C(HETATM    2  C   HET A   1)   1.40198278 +1    0.0000000 +1    0.0000000 +1     1     0     0
  C(HETATM    3  C   HET A   1)   1.38829755 +1  119.2281064 +1    0.0000000 +1     2     1     0
  C(HETATM    4  C   HET A   1)   1.38797783 +1  120.0718729 +1    1.5844852 +1     3     2     1
  C(HETATM    5  C   HET A   1)   1.40013035 +1  120.7485285 +1    1.2686726 +1     4     3     2
  C(HETATM    6  C   HET A   1)   1.39206117 +1  119.8561173 +1   -0.8311369 +1     5     4     3
  N(HETATM    7  N   HET A   1)   1.46214129 +1  119.9004766 +1  169.9148315 +1     1     2     3
  O(HETATM    8  O   HET A   1)   1.21802014 +1  118.8996448 +1  174.8189643 +1     7     1     2
  O(HETATM    9  O   HET A   1)   1.22057865 +1  116.9596415 +1   -7.3716956 +1     7     1     2
  S(HETATM   10  S   HET A   1)   3.74466257 +1   92.9157421 +1  -72.8300153 +1     8     7     1
  O(HETATM   11  O   HET A   1)   1.64119366 +1  164.0760978 +1   49.7116938 +1    10     8     7
  O(HETATM   12  O   HET A   1)   1.65920199 +1   73.0018614 +1    2.5021797 +1    10     8     7
  O(HETATM   13  O   HET A   1)   1.42237208 +1   85.9998074 +1 -109.2281382 +1    10     8     7
  O(HETATM   14  O   HET A   1)   1.42792237 +1   65.1552361 +1  119.6958492 +1    10     8     7
  H(HETATM   15  H   HET A   1)   0.96655929 +1  118.0142727 +1   43.7419227 +1    12    10     8
  H(HETATM   16  H   HET A   1)   1.09252990 +1  122.0399561 +1 -178.8840331 +1     2     1     3
  H(HETATM   17  H   HET A   1)   1.09237220 +1  120.0697037 +1 -176.7514387 +1     3     2     1
  H(HETATM   18  H   HET A   1)   1.08674847 +1  119.3600606 +1 -179.1043049 +1     4     3     2
  H(HETATM   19  H   HET A   1)   1.08958061 +1  120.6181117 +1 -179.1741528 +1     5     4     3
  H(HETATM   20  H   HET A   1)   1.09502016 +1  119.9144527 +1  178.1194999 +1     6     5     4
  H(HETATM   21  H   HET A   1)   0.96971363 +1  115.0654092 +1  -76.7894510 +1    11    10     8
 
 *+*+*+*+*+*+*+*+*+*+*+*+*+*+*+*+*+*+*+*+*+*+*+*+*+*+*+*+*+*+*+*+*+*+*+*+*+*+*+*+
            BAR SHORTENED BY       1.000 PERCENT
 GRADIENT CRITERION IN FLEPO =    10.000


          FOR POINT   20 FIRST  STRUCTURE
 DISTANCE A - B      7.007458
 HEAT              -12.155137
 GRADIENT NORM      44.511054
 DIRECTION COSINE    0.697856
 geo-ok geo_ref="NO2(+) Benzene HSO4(-).arc" geo_dat="intermediate.arc" saddle  HTML
 Transition state for the reaction Benzene + NO2(+) <=> Nitrobenzene + H(+)

  C(HETATM    1  C   HET A   1)   0.00000000 +1    0.0000000 +1    0.0000000 +1
  C(HETATM    2  C   HET A   1)   1.40052516 +1    0.0000000 +1    0.0000000 +1     1     0     0
  C(HETATM    3  C   HET A   1)   1.39341840 +1  118.7495749 +1    0.0000000 +1     2     1     0
  C(HETATM    4  C   HET A   1)   1.39519684 +1  120.1960673 +1    1.9856088 +1     3     2     1
  C(HETATM    5  C   HET A   1)   1.39482645 +1  120.3500378 +1    0.8988912 +1     4     3     2
  C(HETATM    6  C   HET A   1)   1.39129503 +1  121.3769955 +1   -5.3943486 +1     1     2     3
  N(HETATM    7  N   HET A   1)   1.46685585 +1  119.3718646 +1  169.7170626 +1     1     2     3
  O(HETATM    8  O   HET A   1)   1.22162512 +1  118.4070459 +1  175.6642392 +1     7     1     2
  O(HETATM    9  O   HET A   1)   1.21813402 +1  117.3576101 +1   -6.3940870 +1     7     1     2
  S(HETATM   10  S   HET A   1)   3.73523598 +1   92.2937823 +1  -73.7157181 +1     8     7     1
  O(HETATM   11  O   HET A   1)   1.63655540 +1  163.8529037 +1   50.3358365 +1    10     8     7
  O(HETATM   12  O   HET A   1)   1.64964632 +1   73.0584876 +1    2.3890037 +1    10     8     7
  O(HETATM   13  O   HET A   1)   1.42823092 +1   86.8203950 +1 -108.7637898 +1    10     8     7
  O(HETATM   14  O   HET A   1)   1.43289743 +1   64.1892300 +1  120.8923574 +1    10     8     7
  H(HETATM   15  H   HET A   1)   0.96424068 +1  117.8181405 +1   45.6274531 +1    12    10     8
  H(HETATM   16  H   HET A   1)   1.10085381 +1  122.1145880 +1 -178.9091171 +1     2     1     3
  H(HETATM   17  H   HET A   1)   1.09174430 +1  119.9170397 +1 -177.5130498 +1     3     2     1
  H(HETATM   18  H   HET A   1)   1.08180743 +1  119.4910208 +1 -177.9449338 +1     4     3     2
  H(HETATM   19  H   HET A   1)   1.08407144 +1  120.3250741 +1 -179.5083376 +1     5     4     3
  H(HETATM   20  H   HET A   1)   1.10014564 +1  120.9389120 +1 -174.7575831 +1     6     1     2
  H(HETATM   21  H   HET A   1)   0.96292200 +1  117.4118654 +1  -84.0729309 +1    11    10     8
 
 TIME=     0.25
  REACTANTS AND PRODUCTS SWAPPED AROUND
 *+*+*+*+*+*+*+*+*+*+*+*+*+*+*+*+*+*+*+*+*+*+*+*+*+*+*+*+*+*+*+*+*+*+*+*+*+*+*+*+
            BAR SHORTENED BY       0.000 PERCENT
 GRADIENT CRITERION IN FLEPO =    10.000


          FOR POINT   21 SECOND STRUCTURE
 DISTANCE A - B      7.007458
 HEAT               41.186311
 GRADIENT NORM      42.184669
 DIRECTION COSINE    0.833692
 geo-ok geo_ref="NO2(+) Benzene HSO4(-).arc" geo_dat="intermediate.arc" saddle  HTML
 Transition state for the reaction Benzene + NO2(+) <=> Nitrobenzene + H(+)

  C(HETATM    1  C   HET A   1)   0.00000000 +1    0.0000000 +1    0.0000000 +1
  C(HETATM    2  C   HET A   1)   1.39305997 +1    0.0000000 +1    0.0000000 +1     1     0     0
  C(HETATM    3  C   HET A   1)   1.39345265 +1  119.9742223 +1    0.0000000 +1     2     1     0
  C(HETATM    4  C   HET A   1)   1.39461608 +1  119.9502532 +1    0.6045397 +1     3     2     1
  C(HETATM    5  C   HET A   1)   1.39385323 +1  119.9729990 +1   -0.7686278 +1     4     3     2
  C(HETATM    6  C   HET A   1)   1.39297054 +1  120.1443038 +1    0.2173542 +1     5     4     3
  N(HETATM    7  N   HET A   1)   3.61055572 +1   98.2084895 +1   92.3425981 +1     1     2     3
  O(HETATM    8  O   HET A   1)   1.15936335 +1  136.4998407 +1 -100.5333474 +1     7     1     2
  O(HETATM    9  O   HET A   1)   1.15034253 +1   54.2558810 +1  101.0031572 +1     7     1     2
  S(HETATM   10  S   HET A   1)   2.64118445 +1  120.0877829 +1  103.3844393 +1     9     7     1
  O(HETATM   11  O   HET A   1)   1.43922255 +1  138.5326906 +1 -145.8630908 +1    10     9     7
  O(HETATM   12  O   HET A   1)   1.57684755 +1   36.1732722 +1  154.4961265 +1    10     9     7
  O(HETATM   13  O   HET A   1)   1.65607052 +1  109.7864211 +1   70.4311094 +1    10     9     7
  O(HETATM   14  O   HET A   1)   1.45573091 +1   68.3994556 +1  -31.1721122 +1    10     9     7
  H(HETATM   15  H   HET A   1)   1.09164910 +1  119.6508402 +1 -179.0878820 +1     1     2     3
  H(HETATM   16  H   HET A   1)   1.08810697 +1  119.9632864 +1  179.2103161 +1     2     1     3
  H(HETATM   17  H   HET A   1)   1.08868464 +1  120.0850435 +1  179.9619675 +1     3     2     1
  H(HETATM   18  H   HET A   1)   1.08862370 +1  120.0651643 +1  178.9888728 +1     4     3     2
  H(HETATM   19  H   HET A   1)   1.08814974 +1  119.9766128 +1 -179.9262269 +1     5     4     3
  H(HETATM   20  H   HET A   1)   1.09141810 +1  120.0128915 +1 -179.4348578 +1     6     5     4
  H(HETATM   21  H   HET A   1)   0.96988471 +1  115.5093392 +1  157.3638546 +1    13    10     9
 
 TIME=     0.03
  REACTANTS AND PRODUCTS SWAPPED AROUND
 *+*+*+*+*+*+*+*+*+*+*+*+*+*+*+*+*+*+*+*+*+*+*+*+*+*+*+*+*+*+*+*+*+*+*+*+*+*+*+*+
            BAR SHORTENED BY       1.000 PERCENT
 GRADIENT CRITERION IN FLEPO =    10.000


          FOR POINT   22 FIRST  STRUCTURE
 DISTANCE A - B      6.937383
 HEAT              -14.909700
 GRADIENT NORM      44.877833
 DIRECTION COSINE    0.872938
 geo-ok geo_ref="NO2(+) Benzene HSO4(-).arc" geo_dat="intermediate.arc" saddle  HTML
 Transition state for the reaction Benzene + NO2(+) <=> Nitrobenzene + H(+)

  C(HETATM    1  C   HET A   1)   0.00000000 +1    0.0000000 +1    0.0000000 +1
  C(HETATM    2  C   HET A   1)   1.39910263 +1    0.0000000 +1    0.0000000 +1     1     0     0
  C(HETATM    3  C   HET A   1)   1.39196613 +1  119.3503225 +1    0.0000000 +1     2     1     0
  C(HETATM    4  C   HET A   1)   1.40009939 +1  119.3780980 +1    0.3988377 +1     3     2     1
  C(HETATM    5  C   HET A   1)   1.39144691 +1  121.0180501 +1    3.4015781 +1     4     3     2
  C(HETATM    6  C   HET A   1)   1.39300428 +1  119.8928820 +1   -2.3539211 +1     5     4     3
  N(HETATM    7  N   HET A   1)   1.45733578 +1  119.6379072 +1  170.0537228 +1     1     2     3
  O(HETATM    8  O   HET A   1)   1.22111720 +1  118.4322519 +1  176.5921666 +1     7     1     2
  O(HETATM    9  O   HET A   1)   1.22330808 +1  117.7664573 +1   -5.9782115 +1     7     1     2
  S(HETATM   10  S   HET A   1)   3.71829382 +1   91.9478235 +1  -74.6939212 +1     8     7     1
  O(HETATM   11  O   HET A   1)   1.64011653 +1  163.2033843 +1   52.0708264 +1    10     8     7
  O(HETATM   12  O   HET A   1)   1.65653776 +1   72.7803644 +1    2.7188671 +1    10     8     7
  O(HETATM   13  O   HET A   1)   1.42439322 +1   87.8200616 +1 -108.5563209 +1    10     8     7
  O(HETATM   14  O   HET A   1)   1.43138614 +1   64.0487103 +1  120.8685508 +1    10     8     7
  H(HETATM   15  H   HET A   1)   0.96898777 +1  118.1073942 +1   48.5972677 +1    12    10     8
  H(HETATM   16  H   HET A   1)   1.09439509 +1  121.9787565 +1 -179.7957789 +1     2     1     3
  H(HETATM   17  H   HET A   1)   1.09456133 +1  120.8343427 +1 -176.2231817 +1     3     2     1
  H(HETATM   18  H   HET A   1)   1.09646119 +1  118.9268648 +1 -177.2945435 +1     4     3     2
  H(HETATM   19  H   HET A   1)   1.09356703 +1  120.7100331 +1  179.7344286 +1     5     4     3
  H(HETATM   20  H   HET A   1)   1.09521005 +1  120.0297255 +1  178.2623573 +1     6     5     4
  H(HETATM   21  H   HET A   1)   0.96854356 +1  115.8879780 +1  -88.4435351 +1    11    10     8
 
 *+*+*+*+*+*+*+*+*+*+*+*+*+*+*+*+*+*+*+*+*+*+*+*+*+*+*+*+*+*+*+*+*+*+*+*+*+*+*+*+
            BAR SHORTENED BY       1.000 PERCENT
 GRADIENT CRITERION IN FLEPO =    10.000


          FOR POINT   23 FIRST  STRUCTURE
 DISTANCE A - B      6.868010
 HEAT              -17.790685
 GRADIENT NORM      40.972662
 DIRECTION COSINE    0.841806
 geo-ok geo_ref="NO2(+) Benzene HSO4(-).arc" geo_dat="intermediate.arc" saddle  HTML
 Transition state for the reaction Benzene + NO2(+) <=> Nitrobenzene + H(+)

  C(HETATM    1  C   HET A   1)   0.00000000 +1    0.0000000 +1    0.0000000 +1
  C(HETATM    2  C   HET A   1)   1.40176553 +1    0.0000000 +1    0.0000000 +1     1     0     0
  C(HETATM    3  C   HET A   1)   1.39073961 +1  118.8901833 +1    0.0000000 +1     2     1     0
  C(HETATM    4  C   HET A   1)   1.39509395 +1  120.2517175 +1    1.3806505 +1     3     2     1
  C(HETATM    5  C   HET A   1)   1.39739218 +1  120.2315079 +1    2.4535213 +1     4     3     2
  C(HETATM    6  C   HET A   1)   1.39410980 +1  120.1558360 +1   -1.7323370 +1     5     4     3
  N(HETATM    7  N   HET A   1)   1.46197270 +1  119.4564780 +1  169.1136062 +1     1     2     3
  O(HETATM    8  O   HET A   1)   1.22086898 +1  118.2495736 +1  177.4461325 +1     7     1     2
  O(HETATM    9  O   HET A   1)   1.22058485 +1  118.0150997 +1   -5.1648602 +1     7     1     2
  S(HETATM   10  S   HET A   1)   3.70999561 +1   91.3809654 +1  -75.2356669 +1     8     7     1
  O(HETATM   11  O   HET A   1)   1.64032889 +1  162.8712272 +1   52.7424884 +1    10     8     7
  O(HETATM   12  O   HET A   1)   1.65343550 +1   72.6629480 +1    2.5333122 +1    10     8     7
  O(HETATM   13  O   HET A   1)   1.42752505 +1   88.2069437 +1 -108.2102904 +1    10     8     7
  O(HETATM   14  O   HET A   1)   1.43198239 +1   63.5626700 +1  121.2307985 +1    10     8     7
  H(HETATM   15  H   HET A   1)   0.96651334 +1  117.9079889 +1   49.8196692 +1    12    10     8
  H(HETATM   16  H   HET A   1)   1.09770480 +1  121.7651597 +1 -178.8548762 +1     2     1     3
  H(HETATM   17  H   HET A   1)   1.09030796 +1  119.9346371 +1 -177.6715567 +1     3     2     1
  H(HETATM   18  H   HET A   1)   1.09019801 +1  119.8066327 +1 -177.1572040 +1     4     3     2
  H(HETATM   19  H   HET A   1)   1.09120128 +1  120.7593570 +1 -179.9479409 +1     5     4     3
  H(HETATM   20  H   HET A   1)   1.09778299 +1  120.1895680 +1  177.9434342 +1     6     5     4
  H(HETATM   21  H   HET A   1)   0.97180204 +1  115.2859290 +1  -93.0339820 +1    11    10     8
 
 *+*+*+*+*+*+*+*+*+*+*+*+*+*+*+*+*+*+*+*+*+*+*+*+*+*+*+*+*+*+*+*+*+*+*+*+*+*+*+*+
            BAR SHORTENED BY       1.000 PERCENT
 GRADIENT CRITERION IN FLEPO =    10.000
           THERE HAVE BEEN 3 ATTEMPTS TO REDUCE THE GRADIENT.
           DURING THESE ATTEMPTS THE ENERGY DROPPED BY LESS THAN 0.3 KCAL/MOLE
           FURTHER CALCULATION IS NOT JUSTIFIED AT THIS TIME.
           TO CONTINUE, START AGAIN WITH THE WORD "PRECISE"


          FOR POINT   24 FIRST  STRUCTURE
 DISTANCE A - B      6.799330
 HEAT              -20.539535
 GRADIENT NORM      42.704815
 DIRECTION COSINE    0.822959
 geo-ok geo_ref="NO2(+) Benzene HSO4(-).arc" geo_dat="intermediate.arc" saddle  HTML
 Transition state for the reaction Benzene + NO2(+) <=> Nitrobenzene + H(+)

  C(HETATM    1  C   HET A   1)   0.00000000 +1    0.0000000 +1    0.0000000 +1
  C(HETATM    2  C   HET A   1)   1.39112316 +1    0.0000000 +1    0.0000000 +1     1     0     0
  C(HETATM    3  C   HET A   1)   1.39421620 +1  118.6014729 +1    0.0000000 +1     2     1     0
  C(HETATM    4  C   HET A   1)   1.39467655 +1  120.1757450 +1    1.0618344 +1     3     2     1
  C(HETATM    5  C   HET A   1)   1.39636135 +1  120.2455174 +1    3.1819982 +1     4     3     2
  C(HETATM    6  C   HET A   1)   1.39226767 +1  121.8249608 +1   -6.2447147 +1     1     2     3
  N(HETATM    7  N   HET A   1)   1.46799277 +1  119.2218520 +1  169.1066526 +1     1     2     3
  O(HETATM    8  O   HET A   1)   1.21914431 +1  118.0148935 +1  178.0537780 +1     7     1     2
  O(HETATM    9  O   HET A   1)   1.21854277 +1  118.2341159 +1   -4.3530912 +1     7     1     2
  S(HETATM   10  S   HET A   1)   3.69765269 +1   91.1445870 +1  -76.0715783 +1     8     7     1
  O(HETATM   11  O   HET A   1)   1.64470491 +1  161.9139508 +1   52.1436706 +1    10     8     7
  O(HETATM   12  O   HET A   1)   1.65198941 +1   72.6962926 +1    2.5283839 +1    10     8     7
  O(HETATM   13  O   HET A   1)   1.42302669 +1   88.7817157 +1 -108.0429154 +1    10     8     7
  O(HETATM   14  O   HET A   1)   1.42960274 +1   63.2729169 +1  121.6007648 +1    10     8     7
  H(HETATM   15  H   HET A   1)   0.97266237 +1  117.2752279 +1   51.5697105 +1    12    10     8
  H(HETATM   16  H   HET A   1)   1.09459127 +1  121.8257301 +1 -178.8890055 +1     2     1     3
  H(HETATM   17  H   HET A   1)   1.09011567 +1  119.7638387 +1 -177.3522048 +1     3     2     1
  H(HETATM   18  H   HET A   1)   1.08652769 +1  119.6910844 +1 -176.6386798 +1     4     3     2
  H(HETATM   19  H   HET A   1)   1.08827242 +1  120.0035026 +1  178.9119938 +1     5     4     3
  H(HETATM   20  H   HET A   1)   1.10188695 +1  121.0417523 +1 -173.7210129 +1     6     1     2
  H(HETATM   21  H   HET A   1)   0.96888443 +1  116.1526149 +1  -97.8285978 +1    11    10     8
 
 TIME=     0.28
  REACTANTS AND PRODUCTS SWAPPED AROUND
 *+*+*+*+*+*+*+*+*+*+*+*+*+*+*+*+*+*+*+*+*+*+*+*+*+*+*+*+*+*+*+*+*+*+*+*+*+*+*+*+
            BAR SHORTENED BY       0.000 PERCENT
 GRADIENT CRITERION IN FLEPO =    10.000


          FOR POINT   25 SECOND STRUCTURE
 DISTANCE A - B      6.799330
 HEAT               32.565552
 GRADIENT NORM      40.951165
 DIRECTION COSINE    0.835223
 geo-ok geo_ref="NO2(+) Benzene HSO4(-).arc" geo_dat="intermediate.arc" saddle  HTML
 Transition state for the reaction Benzene + NO2(+) <=> Nitrobenzene + H(+)

  C(HETATM    1  C   HET A   1)   0.00000000 +1    0.0000000 +1    0.0000000 +1
  C(HETATM    2  C   HET A   1)   1.39305997 +1    0.0000000 +1    0.0000000 +1     1     0     0
  C(HETATM    3  C   HET A   1)   1.39345265 +1  119.9742223 +1    0.0000000 +1     2     1     0
  C(HETATM    4  C   HET A   1)   1.39461608 +1  119.9502532 +1    0.6045397 +1     3     2     1
  C(HETATM    5  C   HET A   1)   1.39385323 +1  119.9729990 +1   -0.7686278 +1     4     3     2
  C(HETATM    6  C   HET A   1)   1.39297054 +1  120.1443038 +1    0.2173542 +1     5     4     3
  N(HETATM    7  N   HET A   1)   3.61055572 +1   98.2084895 +1   92.3425981 +1     1     2     3
  O(HETATM    8  O   HET A   1)   1.15936335 +1  136.4998407 +1 -100.5333474 +1     7     1     2
  O(HETATM    9  O   HET A   1)   1.15034253 +1   54.2558810 +1  101.0031572 +1     7     1     2
  S(HETATM   10  S   HET A   1)   2.64118445 +1  120.0877829 +1  103.3844393 +1     9     7     1
  O(HETATM   11  O   HET A   1)   1.43922255 +1  138.5326906 +1 -145.8630908 +1    10     9     7
  O(HETATM   12  O   HET A   1)   1.57684755 +1   36.1732722 +1  154.4961265 +1    10     9     7
  O(HETATM   13  O   HET A   1)   1.65607052 +1  109.7864211 +1   70.4311094 +1    10     9     7
  O(HETATM   14  O   HET A   1)   1.45573091 +1   68.3994556 +1  -31.1721122 +1    10     9     7
  H(HETATM   15  H   HET A   1)   1.09164910 +1  119.6508402 +1 -179.0878820 +1     1     2     3
  H(HETATM   16  H   HET A   1)   1.08810697 +1  119.9632864 +1  179.2103161 +1     2     1     3
  H(HETATM   17  H   HET A   1)   1.08868464 +1  120.0850435 +1  179.9619675 +1     3     2     1
  H(HETATM   18  H   HET A   1)   1.08862370 +1  120.0651643 +1  178.9888728 +1     4     3     2
  H(HETATM   19  H   HET A   1)   1.08814974 +1  119.9766128 +1 -179.9262269 +1     5     4     3
  H(HETATM   20  H   HET A   1)   1.09141810 +1  120.0128915 +1 -179.4348578 +1     6     5     4
  H(HETATM   21  H   HET A   1)   0.96988471 +1  115.5093392 +1  157.3638546 +1    13    10     9
 
 TIME=     0.03
  REACTANTS AND PRODUCTS SWAPPED AROUND
 *+*+*+*+*+*+*+*+*+*+*+*+*+*+*+*+*+*+*+*+*+*+*+*+*+*+*+*+*+*+*+*+*+*+*+*+*+*+*+*+
            BAR SHORTENED BY       1.000 PERCENT
 GRADIENT CRITERION IN FLEPO =    10.000


          FOR POINT   26 FIRST  STRUCTURE
 DISTANCE A - B      6.731336
 HEAT              -23.092576
 GRADIENT NORM      38.732800
 DIRECTION COSINE    0.875784
 geo-ok geo_ref="NO2(+) Benzene HSO4(-).arc" geo_dat="intermediate.arc" saddle  HTML
 Transition state for the reaction Benzene + NO2(+) <=> Nitrobenzene + H(+)

  C(HETATM    1  C   HET A   1)   0.00000000 +1    0.0000000 +1    0.0000000 +1
  C(HETATM    2  C   HET A   1)   1.39936060 +1    0.0000000 +1    0.0000000 +1     1     0     0
  C(HETATM    3  C   HET A   1)   1.38995816 +1  118.7704857 +1    0.0000000 +1     2     1     0
  C(HETATM    4  C   HET A   1)   1.39369275 +1  120.0951087 +1    0.8071753 +1     3     2     1
  C(HETATM    5  C   HET A   1)   1.39261019 +1  120.5858991 +1    3.9072742 +1     4     3     2
  C(HETATM    6  C   HET A   1)   1.38987490 +1  120.0578897 +1   -3.1613363 +1     5     4     3
  N(HETATM    7  N   HET A   1)   1.46713823 +1  119.6767984 +1  168.4457642 +1     1     2     3
  O(HETATM    8  O   HET A   1)   1.21742935 +1  118.4248144 +1  178.9708376 +1     7     1     2
  O(HETATM    9  O   HET A   1)   1.22200763 +1  117.8828346 +1   -3.5342577 +1     7     1     2
  S(HETATM   10  S   HET A   1)   3.69522277 +1   90.5318241 +1  -76.3177904 +1     8     7     1
  O(HETATM   11  O   HET A   1)   1.64157708 +1  161.9363221 +1   53.1635707 +1    10     8     7
  O(HETATM   12  O   HET A   1)   1.65379848 +1   72.5341060 +1    2.2524511 +1    10     8     7
  O(HETATM   13  O   HET A   1)   1.42591583 +1   89.1600656 +1 -108.1440966 +1    10     8     7
  O(HETATM   14  O   HET A   1)   1.42631213 +1   62.9182095 +1  121.5020388 +1    10     8     7
  H(HETATM   15  H   HET A   1)   0.97096602 +1  117.5994570 +1   52.7283273 +1    12    10     8
  H(HETATM   16  H   HET A   1)   1.09382196 +1  121.8930144 +1 -179.0162619 +1     2     1     3
  H(HETATM   17  H   HET A   1)   1.09240369 +1  119.8631806 +1 -176.9374083 +1     3     2     1
  H(HETATM   18  H   HET A   1)   1.09629118 +1  119.1191887 +1 -176.8838030 +1     4     3     2
  H(HETATM   19  H   HET A   1)   1.08998360 +1  120.4355909 +1  178.8829250 +1     5     4     3
[...]
  S(HETATM   10  S   HET A   1)   3.23160556 +1   80.4337924 +1  138.9582698 +1     7     1     2
  O(HETATM   11  O   HET A   1)   1.44636186 +1  148.4410639 +1   76.3515142 +1    10     7     1
  O(HETATM   12  O   HET A   1)   1.50155278 +1   71.5322745 +1  -36.1780846 +1    10     7     1
  O(HETATM   13  O   HET A   1)   1.66776696 +1  102.2365655 +1 -138.7559611 +1    10     7     1
  O(HETATM   14  O   HET A   1)   1.49048732 +1   36.0734442 +1  122.7795466 +1    10     7     1
  H(HETATM   15  H   HET A   1)   1.23063620 +1  116.4728001 +1 -146.3957275 +1     1     2     3
  H(HETATM   16  H   HET A   1)   1.08847454 +1  119.8604026 +1  178.6248649 +1     2     1     3
  H(HETATM   17  H   HET A   1)   1.08867067 +1  120.4029472 +1  178.7929970 +1     3     2     1
  H(HETATM   18  H   HET A   1)   1.09090657 +1  119.6880762 +1 -178.5458368 +1     4     3     2
  H(HETATM   19  H   HET A   1)   1.08894677 +1  120.0583560 +1  178.7894384 +1     5     4     3
  H(HETATM   20  H   HET A   1)   1.09694699 +1  120.9003316 +1 -178.3853854 +1     6     5     4
  H(HETATM   21  H   HET A   1)   0.96291341 +1  114.4640675 +1 -151.0513897 +1    13    10     7
 
 TIME=     0.03
  REACTANTS AND PRODUCTS SWAPPED AROUND
 *+*+*+*+*+*+*+*+*+*+*+*+*+*+*+*+*+*+*+*+*+*+*+*+*+*+*+*+*+*+*+*+*+*+*+*+*+*+*+*+
            BAR SHORTENED BY       1.000 PERCENT
 GRADIENT CRITERION IN FLEPO =    10.000


          FOR POINT  751 SECOND STRUCTURE
 DISTANCE A - B      0.010094
 HEAT              -87.541972
 GRADIENT NORM      19.676147
 DIRECTION COSINE   -0.985688
 geo-ok geo_ref="NO2(+) Benzene HSO4(-).arc" geo_dat="intermediate.arc" saddle  HTML
 Transition state for the reaction Benzene + NO2(+) <=> Nitrobenzene + H(+)

  C(HETATM    1  C   HET A   1)   0.00000000 +1    0.0000000 +1    0.0000000 +1
  C(HETATM    2  C   HET A   1)   1.39705048 +1    0.0000000 +1    0.0000000 +1     1     0     0
  C(HETATM    3  C   HET A   1)   1.39091558 +1  119.6290135 +1    0.0000000 +1     2     1     0
  C(HETATM    4  C   HET A   1)   1.39669346 +1  119.5963068 +1   -1.0497466 +1     3     2     1
  C(HETATM    5  C   HET A   1)   1.39710518 +1  120.8667053 +1    0.8753791 +1     4     3     2
  C(HETATM    6  C   HET A   1)   1.38986265 +1  119.6673473 +1   -0.8028160 +1     5     4     3
  N(HETATM    7  N   HET A   1)   2.04786630 +1  105.7408331 +1  121.9130959 +1     1     2     3
  O(HETATM    8  O   HET A   1)   1.15203094 +1  102.1421841 +1 -110.4920463 +1     7     1     2
  O(HETATM    9  O   HET A   1)   1.15139420 +1  104.3000714 +1   60.9668255 +1     7     1     2
  S(HETATM   10  S   HET A   1)   3.23271530 +1   80.3144322 +1  139.0281041 +1     7     1     2
  O(HETATM   11  O   HET A   1)   1.44594017 +1  148.3991337 +1   76.7271291 +1    10     7     1
  O(HETATM   12  O   HET A   1)   1.50012621 +1   71.6618002 +1  -36.1632674 +1    10     7     1
  O(HETATM   13  O   HET A   1)   1.66802704 +1  102.1202466 +1 -138.7602893 +1    10     7     1
  O(HETATM   14  O   HET A   1)   1.49227271 +1   35.9383682 +1  122.7797795 +1    10     7     1
  H(HETATM   15  H   HET A   1)   1.22590157 +1  116.5825005 +1 -146.6782473 +1     1     2     3
  H(HETATM   16  H   HET A   1)   1.08984152 +1  119.8796141 +1  178.5787274 +1     2     1     3
  H(HETATM   17  H   HET A   1)   1.08840951 +1  120.4057778 +1  178.6085166 +1     3     2     1
  H(HETATM   18  H   HET A   1)   1.09034739 +1  119.6837917 +1 -178.6640950 +1     4     3     2
  H(HETATM   19  H   HET A   1)   1.08897926 +1  120.0751722 +1  178.8573981 +1     5     4     3
  H(HETATM   20  H   HET A   1)   1.09680307 +1  120.8927118 +1 -178.3750049 +1     6     5     4
  H(HETATM   21  H   HET A   1)   0.96287622 +1  114.4540519 +1 -151.0237140 +1    13    10     7
 
 TIME=     0.03
  REACTANTS AND PRODUCTS SWAPPED AROUND
 *+*+*+*+*+*+*+*+*+*+*+*+*+*+*+*+*+*+*+*+*+*+*+*+*+*+*+*+*+*+*+*+*+*+*+*+*+*+*+*+
            BAR SHORTENED BY       1.000 PERCENT
 AT END OF REACTION

 -------------------------------------------------------------------------------
 geo-ok geo_ref="NO2(+) Benzene HSO4(-).arc" geo_dat="intermediate.arc" saddle  HTML
 Transition state for the reaction Benzene + NO2(+) <=> Nitrobenzene + H(+)



     GRADIENTS WERE INITIALLY ACCEPTABLY SMALL                
     SCF FIELD WAS ACHIEVED                                   


                              PM7 CALCULATION
                                                       MOPAC2012 (Version: 15.322W)
                                                       Wed Nov 18 11:49:28 2015
                                                       No. of days left = 365




          FINAL H.O.F PLUS STRESS =        -87.54197 KCAL/MOL =    -366.27561 KJ/MOL
          FINAL STRESS            =          0.00000 KCAL/MOL =       0.00000 KJ/MOL
          FINAL HEAT OF FORMATION =        -87.54197 KCAL/MOL =    -366.27561 KJ/MOL
          TOTAL DISTORTION        =          0.00033 Angstroms
          AVERAGE DISTORTION      =          0.00002 Angstroms per atom (all atoms)
          RMS DISTORTION          =          0.00002 Angstroms per atom (all atoms)


          TOTAL ENERGY            =      -2960.25327 EV
          ELECTRONIC ENERGY       =     -15462.24745 EV  POINT GROUP:     C1  
          CORE-CORE REPULSION     =      12501.99418 EV
          COSMO AREA              =        207.77 SQUARE ANGSTROMS
          COSMO VOLUME            =        220.53 CUBIC ANGSTROMS

          GRADIENT NORM           =          7.28077
          IONIZATION POTENTIAL    =         10.348312 EV
          HOMO LUMO ENERGIES (EV) =        -10.348 -2.929
          NO. OF FILLED LEVELS    =         39
          MOLECULAR WEIGHT        =        221.184

          MOLECULAR DIMENSIONS (Angstroms)

            Atom       Atom       Distance
            H    21    H    18     9.39542
            H    16    H    19     4.55512
            O     8    O    12     3.44702


          SCF CALCULATIONS        =       4286
 
          WALL-CLOCK TIME         =         42.887 SECONDS
          COMPUTATION TIME        =  2 MINUTES AND 51.242 SECONDS



       FINAL  POINT  AND  DERIVATIVES

   PARAMETER     ATOM    TYPE            VALUE       GRADIENT
      1          1  C    CARTESIAN X     0.645746     2.698861  KCAL/ANGSTROM
      2          1  C    CARTESIAN Y     0.299884    -0.511416  KCAL/ANGSTROM
      3          1  C    CARTESIAN Z     0.028540    -2.436836  KCAL/ANGSTROM
      4          2  C    CARTESIAN X     1.906113    -2.051845  KCAL/ANGSTROM
      5          2  C    CARTESIAN Y     0.042446     0.316623  KCAL/ANGSTROM
      6          2  C    CARTESIAN Z    -0.516433     0.434511  KCAL/ANGSTROM
      7          3  C    CARTESIAN X     2.384521    -0.387279  KCAL/ANGSTROM
      8          3  C    CARTESIAN Y     0.840893    -0.079552  KCAL/ANGSTROM
      9          3  C    CARTESIAN Z    -1.549998     0.358054  KCAL/ANGSTROM
     10          4  C    CARTESIAN X     1.589860    -0.234849  KCAL/ANGSTROM
     11          4  C    CARTESIAN Y     1.877009    -0.338537  KCAL/ANGSTROM
     12          4  C    CARTESIAN Z    -2.045718    -0.254506  KCAL/ANGSTROM
     13          5  C    CARTESIAN X     0.327559     0.725126  KCAL/ANGSTROM
     14          5  C    CARTESIAN Y     2.133865    -0.040104  KCAL/ANGSTROM
     15          5  C    CARTESIAN Z    -1.504857    -0.680085  KCAL/ANGSTROM
     16          6  C    CARTESIAN X    -0.152642    -1.011525  KCAL/ANGSTROM
     17          6  C    CARTESIAN Y     1.338744    -0.585627  KCAL/ANGSTROM
     18          6  C    CARTESIAN Z    -0.470981     0.302410  KCAL/ANGSTROM
     19          7  N    CARTESIAN X    -0.427665     2.637079  KCAL/ANGSTROM
     20          7  N    CARTESIAN Y    -1.427050     0.838857  KCAL/ANGSTROM
     21          7  N    CARTESIAN Z    -0.213948     1.836353  KCAL/ANGSTROM
     22          8  O    CARTESIAN X    -1.202695    -1.552480  KCAL/ANGSTROM
     23          8  O    CARTESIAN Y    -1.121010     0.633213  KCAL/ANGSTROM
     24          8  O    CARTESIAN Z    -1.009472    -1.681764  KCAL/ANGSTROM
     25          9  O    CARTESIAN X     0.162046    -1.376645  KCAL/ANGSTROM
     26          9  O    CARTESIAN Y    -2.214849     0.926257  KCAL/ANGSTROM
     27          9  O    CARTESIAN Z     0.383839    -1.510546  KCAL/ANGSTROM
     28         10  S    CARTESIAN X    -1.375468     0.326012  KCAL/ANGSTROM
     29         10  S    CARTESIAN Y    -0.611689     1.191244  KCAL/ANGSTROM
     30         10  S    CARTESIAN Z     2.767198     1.451945  KCAL/ANGSTROM
     31         11  O    CARTESIAN X    -2.194752     0.395241  KCAL/ANGSTROM
     32         11  O    CARTESIAN Y     0.227894    -0.210840  KCAL/ANGSTROM
     33         11  O    CARTESIAN Z     3.612556    -0.140521  KCAL/ANGSTROM
     34         12  O    CARTESIAN X     0.069223     0.010163  KCAL/ANGSTROM
     35         12  O    CARTESIAN Y    -0.238357    -0.070142  KCAL/ANGSTROM
     36         12  O    CARTESIAN Z     2.612559     0.211605  KCAL/ANGSTROM
     37         13  O    CARTESIAN X    -1.376037     0.250355  KCAL/ANGSTROM
     38         13  O    CARTESIAN Y    -2.084766     0.319572  KCAL/ANGSTROM
     39         13  O    CARTESIAN Z     3.549726     0.615170  KCAL/ANGSTROM
     40         14  O    CARTESIAN X    -1.855782    -0.768141  KCAL/ANGSTROM
     41         14  O    CARTESIAN Y    -0.914649    -0.263628  KCAL/ANGSTROM
     42         14  O    CARTESIAN Z     1.387220    -0.734892  KCAL/ANGSTROM
     43         15  H    CARTESIAN X     0.508450     0.668397  KCAL/ANGSTROM
     44         15  H    CARTESIAN Y     0.071529    -0.305091  KCAL/ANGSTROM
     45         15  H    CARTESIAN Z     1.225183     0.921343  KCAL/ANGSTROM
     46         16  H    CARTESIAN X     2.516554    -0.056598  KCAL/ANGSTROM
     47         16  H    CARTESIAN Y    -0.766007     0.058036  KCAL/ANGSTROM
     48         16  H    CARTESIAN Z    -0.114575     0.075550  KCAL/ANGSTROM
     49         17  H    CARTESIAN X     3.373830    -0.147523  KCAL/ANGSTROM
     50         17  H    CARTESIAN Y     0.665831     0.059059  KCAL/ANGSTROM
     51         17  H    CARTESIAN Z    -1.968642     0.057604  KCAL/ANGSTROM
     52         18  H    CARTESIAN X     1.954456     0.165046  KCAL/ANGSTROM
     53         18  H    CARTESIAN Y     2.489882    -0.099581  KCAL/ANGSTROM
     54         18  H    CARTESIAN Z    -2.870536     1.545974  KCAL/ANGSTROM
     55         19  H    CARTESIAN X    -0.273500    -0.125958  KCAL/ANGSTROM
     56         19  H    CARTESIAN Y     2.956786     0.019435  KCAL/ANGSTROM
     57         19  H    CARTESIAN Z    -1.888791    -0.203711  KCAL/ANGSTROM
     58         20  H    CARTESIAN X    -1.151328    -0.024950  KCAL/ANGSTROM
     59         20  H    CARTESIAN Y     1.505704     0.758707  KCAL/ANGSTROM
     60         20  H    CARTESIAN Z    -0.049399    -0.141552  KCAL/ANGSTROM
     61         21  H    CARTESIAN X    -2.011141     0.260056  KCAL/ANGSTROM
     62         21  H    CARTESIAN Y    -2.153131     0.006809  KCAL/ANGSTROM
     63         21  H    CARTESIAN Z     4.270213     0.361861  KCAL/ANGSTROM




   ATOM                 CHEMICAL                   X               Y               Z
  NUMBER                 SYMBOL               (ANGSTROMS)     (ANGSTROMS)     (ANGSTROMS)
 
     1       C(HETATM    1  C   HET A   1)    0.64574563  *   0.29988445  *   0.02854045  *
     2       C(HETATM    2  C   HET A   1)    1.90611288  *   0.04244599  *  -0.51643318  *
     3       C(HETATM    3  C   HET A   1)    2.38452073  *   0.84089284  *  -1.54999832  *
     4       C(HETATM    4  C   HET A   1)    1.58985973  *   1.87700851  *  -2.04571798  *
     5       C(HETATM    5  C   HET A   1)    0.32755882  *   2.13386546  *  -1.50485686  *
     6       C(HETATM    6  C   HET A   1)   -0.15264249  *   1.33874392  *  -0.47098126  *
     7       N(HETATM    7  N   HET A   1)   -0.42766482  *  -1.42704996  *  -0.21394797  *
     8       O(HETATM    8  O   HET A   1)   -1.20269503  *  -1.12101020  *  -1.00947223  *
     9       O(HETATM    9  O   HET A   1)    0.16204569  *  -2.21484934  *   0.38383915  *
    10       S(HETATM   10  S   HET A   1)   -1.37546813  *  -0.61168934  *   2.76719811  *
    11       O(HETATM   11  O   HET A   1)   -2.19475167  *   0.22789405  *   3.61255563  *
    12       O(HETATM   12  O   HET A   1)    0.06922256  *  -0.23835695  *   2.61255927  *
    13       O(HETATM   13  O   HET A   1)   -1.37603739  *  -2.08476602  *   3.54972624  *
    14       O(HETATM   14  O   HET A   1)   -1.85578173  *  -0.91464856  *   1.38722018  *
    15       H(HETATM   15  H   HET A   1)    0.50844962  *   0.07152901  *   1.22518332  *
    16       H(HETATM   16  H   HET A   1)    2.51655399  *  -0.76600702  *  -0.11457484  *
    17       H(HETATM   17  H   HET A   1)    3.37382967  *   0.66583102  *  -1.96864151  *
    18       H(HETATM   18  H   HET A   1)    1.95445569  *   2.48988238  *  -2.87053615  *
    19       H(HETATM   19  H   HET A   1)   -0.27349960  *   2.95678625  *  -1.88879081  *
    20       H(HETATM   20  H   HET A   1)   -1.15132811  *   1.50570410  *  -0.04939916  *
    21       H(HETATM   21  H   HET A   1)   -2.01114055  *  -2.15313105  *   4.27021325  *

                             CARTESIAN COORDINATES

   1    C        0.645745628     0.299884453     0.028540446
   2    C        1.906112880     0.042445988    -0.516433175
   3    C        2.384520727     0.840892842    -1.549998316
   4    C        1.589859733     1.877008514    -2.045717975
   5    C        0.327558825     2.133865464    -1.504856858
   6    C       -0.152642490     1.338743923    -0.470981256
   7    N       -0.427664818    -1.427049959    -0.213947973
   8    O       -1.202695034    -1.121010204    -1.009472232
   9    O        0.162045694    -2.214849343     0.383839149
  10    S       -1.375468129    -0.611689339     2.767198106
  11    O       -2.194751672     0.227894050     3.612555626
  12    O        0.069222560    -0.238356946     2.612559268
  13    O       -1.376037394    -2.084766020     3.549726245
  14    O       -1.855781733    -0.914648560     1.387220178
  15    H        0.508449621     0.071529011     1.225183322
  16    H        2.516553991    -0.766007016    -0.114574835
  17    H        3.373829669     0.665831019    -1.968641507
  18    H        1.954455688     2.489882377    -2.870536153
  19    H       -0.273499596     2.956786245    -1.888790807
  20    H       -1.151328106     1.505704104    -0.049399159
  21    H       -2.011140545    -2.153131050     4.270213251


           Empirical Formula: C6 H7 N O6 S  =    21 atoms



      MOLECULAR POINT GROUP   :   C1  


                  EIGENVALUES  
 -39.76067 -36.36499 -31.22301 -29.14325 -27.38563 -27.00729 -26.70219 -26.46881
 -26.10421 -25.56210 -21.75961 -21.72884 -20.16840 -19.92054 -19.81828 -18.91654
 -18.29233 -16.23377 -16.03277 -16.01829 -15.25373 -15.06939 -14.48390 -14.20607
 -13.95366 -13.80548 -13.75975 -13.34132 -12.75251 -12.69667 -11.97767 -11.56342
 -11.35971 -11.22272 -10.89098 -10.81152 -10.68050 -10.49989 -10.34831  -2.92857
  -1.25071  -0.79503  -0.51138   0.10183   1.62623   1.78230   3.58104   3.66803
   3.69470   4.00145   4.21587   4.41489   4.46351   4.55546   4.78221   4.86507
   5.14276   5.24434   5.38241   5.49025   5.63882   5.67784   6.05137   6.27866
   6.37219   6.99103   7.55929   7.84249


              NET ATOMIC CHARGES AND DIPOLE CONTRIBUTIONS

  ATOM NO.                 TYPE                        CHARGE      No. of ELECS.   s-Pop       p-Pop       d-Pop       
    1          C(HETATM    1  C   HET A   1)          -0.417441        4.4174     1.14515     3.27229
    2          C(HETATM    2  C   HET A   1)          -0.058743        4.0587     1.09684     2.96191
    3          C(HETATM    3  C   HET A   1)          -0.217237        4.2172     1.08403     3.13320
    4          C(HETATM    4  C   HET A   1)          -0.059062        4.0591     1.09611     2.96295
    5          C(HETATM    5  C   HET A   1)          -0.215270        4.2153     1.08533     3.12994
    6          C(HETATM    6  C   HET A   1)          -0.019817        4.0198     1.10285     2.91696
    7          N(HETATM    7  N   HET A   1)           0.745654        4.2543     1.46117     2.79318
    8          O(HETATM    8  O   HET A   1)          -0.032173        6.0322     1.92977     4.10241
    9          O(HETATM    9  O   HET A   1)          -0.033032        6.0330     1.92985     4.10318
   10          S(HETATM   10  S   HET A   1)           2.660770        3.3392     1.09752     1.77638     0.46534
   11          O(HETATM   11  O   HET A   1)          -0.945647        6.9456     1.89458     5.05106
   12          O(HETATM   12  O   HET A   1)          -1.013189        7.0132     1.89749     5.11570
   13          O(HETATM   13  O   HET A   1)          -0.844388        6.8444     1.84570     4.99869
   14          O(HETATM   14  O   HET A   1)          -1.099482        7.0995     1.90430     5.19518
   15          H(HETATM   15  H   HET A   1)           0.368061        0.6319     0.63194
   16          H(HETATM   16  H   HET A   1)           0.154618        0.8454     0.84538
   17          H(HETATM   17  H   HET A   1)           0.159042        0.8410     0.84096
   18          H(HETATM   18  H   HET A   1)           0.152345        0.8477     0.84765
   19          H(HETATM   19  H   HET A   1)           0.161561        0.8384     0.83844
   20          H(HETATM   20  H   HET A   1)           0.177562        0.8224     0.82244
   21          H(HETATM   21  H   HET A   1)           0.375868        0.6241     0.62413
 DIPOLE           X         Y         Z       TOTAL
 POINT-CHG.     2.917    -1.771    -7.586     8.319
 HYBRID         0.185     0.237    -0.172     0.347
 SUM            3.103    -1.534    -7.759     8.496


          ATOMIC ORBITAL ELECTRON POPULATIONS

                   Atom                  s        px        py        pz      x^2-y^2     xz        z^2       yz        xy
   C(HETATM    1  C   HET A   1)   1.14515   1.01537   1.07812   1.17879
   C(HETATM    2  C   HET A   1)   1.09684   1.00127   1.01073   0.94991
   C(HETATM    3  C   HET A   1)   1.08403   1.07941   1.01759   1.03621
   C(HETATM    4  C   HET A   1)   1.09611   0.98180   0.97757   1.00358
   C(HETATM    5  C   HET A   1)   1.08533   1.02826   1.07037   1.03131
   C(HETATM    6  C   HET A   1)   1.10285   1.05531   0.93192   0.92974
   N(HETATM    7  N   HET A   1)   1.46117   0.93265   0.92946   0.93106
   O(HETATM    8  O   HET A   1)   1.92977   1.25654   1.62590   1.21997
   O(HETATM    9  O   HET A   1)   1.92985   1.44988   1.22257   1.43073
   S(HETATM   10  S   HET A   1)   1.09752   0.59808   0.57778   0.60052   0.09666   0.09383   0.10814   0.09179   0.07492
   O(HETATM   11  O   HET A   1)   1.89458   1.69108   1.68378   1.67620
   O(HETATM   12  O   HET A   1)   1.89749   1.44372   1.85428   1.81770
   O(HETATM   13  O   HET A   1)   1.84570   1.72993   1.62968   1.63908
   O(HETATM   14  O   HET A   1)   1.90430   1.84216   1.86919   1.48383
   H(HETATM   15  H   HET A   1)   0.63194
   H(HETATM   16  H   HET A   1)   0.84538
   H(HETATM   17  H   HET A   1)   0.84096
   H(HETATM   18  H   HET A   1)   0.84765
   H(HETATM   19  H   HET A   1)   0.83844
   H(HETATM   20  H   HET A   1)   0.82244
   H(HETATM   21  H   HET A   1)   0.62413

 **********************
 *                    *
 * JOB ENDED NORMALLY *
 *                    *
 **********************



 TOTAL JOB TIME:            42.92 SECONDS

 == MOPAC DONE ==
