 *******************************************************************************
 ** Site#: 10005        For non-commercial use only     Version 15.311W 64BITS**
 *******************************************************************************
 ** Cite this work as:                                                        **
 **                                                                           **
 ** (a) MOPAC2012, James J. P. Stewart, Stewart Computational Chemistry,      **
 **  Version 15.311W web: HTTP://OpenMOPAC.net         Days remaining: 365    **
 **                                                                           **
 **                                 AND                                       **
 **                                                                           **
 ** (b) Maia, J.D.C., et al., J. Chem. Theory Comput. 2012, 8, 3072-3081.     **
 **                DOI: 10.1021/ct3004645.                                    **
 *******************************************************************************
 **                                                                           **
 **                                MOPAC2012                                  **
 **                                                                           **
 *******************************************************************************

                              PM7 CALCULATION RESULTS


 *******************************************************************************
 *  CALCULATION DONE:                                Sat Nov 07 12:56:21 2015  *
 *  PRECISE    - CRITERIA TO BE INCREASED BY 100 TIMES
 *  TS         - USE EF ROUTINE FOR TS SEARCH
 *  INT        - INTERNAL COORDINATE SYSTEM TO BE USED
 *  T=         - A TIME OF 172800.0 SECONDS REQUESTED
 *  DUMP=N     - RESTART FILE WRITTEN EVERY  7200.000 SECONDS
 *******************************************************************************
 html precise int ts
 Cyclohexane boat C2v

  ATOM    CHEMICAL      BOND LENGTH      BOND ANGLE     TWIST ANGLE 
 NUMBER    SYMBOL       (ANGSTROMS)      (DEGREES)       (DEGREES) 
   (I)                     NA:I           NB:NA:I       NC:NB:NA:I       NA    NB    NC 
     1       C          0.00000000       0.0000000       0.0000000        0     0     0
     2       C          1.53477195  *    0.0000000       0.0000000        1     0     0
     3       C          1.54049201  *  112.4037119  *    0.0000000        2     1     0
     4       C          1.53312144  *  112.1882246  *   -5.4430220  *     3     2     1
     5       C          1.53422609  *  110.9816408  *   56.2506503  *     4     3     2
     6       C          1.53363897  *  110.6898069  *  -50.2696508  *     1     2     3
     7       H          1.09654469  *  109.9410729  * -172.0377268  *     1     2     3
     8       H          1.09519179  *  110.0773979  *   71.5531492  *     1     2     3
     9       H          1.10576106  *  109.4628784  * -122.5595967  *     2     1     3
    10       H          1.10837234  *  109.4529547  *  121.8881982  *     2     1     3
    11       H          1.10470675  *  109.9682930  * -127.7884603  *     3     2     1
    12       H          1.10623671  *  109.6236039  *  116.1980319  *     3     2     1
    13       H          1.10568229  *  109.9272121  *  -65.6795778  *     4     3     2
    14       H          1.10526497  *  109.9980873  *  178.1077005  *     4     3     2
    15       H          1.10472667  *  109.4729794  * -172.3724764  *     5     4     3
    16       H          1.10601375  *  109.4581596  *   72.0303149  *     5     4     3
    17       H          1.10579583  *  109.6886510  *  179.2422697  *     6     1     2
    18       H          1.10877183  *  109.3009046  *  -65.1275228  *     6     1     2
 


          CARTESIAN COORDINATES 

    NO.       ATOM         X         Y         Z

     1         C        0.0000    0.0000    0.0000
     2         C        1.5348    0.0000    0.0000
     3         C        2.1219    1.4242    0.0000
     4         C        1.0360    2.4981   -0.1347
     5         C       -0.0150    2.3587    0.9743
     6         C       -0.5418    0.9170    1.1034
     7         H       -0.3740   -1.0209    0.1428
     8         H       -0.3760    0.3255   -0.9758
     9         H        1.9032   -0.5611   -0.8787
    10         H        1.9039   -0.5521    0.8874
    11         H        2.8539    1.5305   -0.8205
    12         H        2.6888    1.5924    0.9349
    13         H        0.5523    2.4227   -1.1261
    14         H        1.4925    3.5040   -0.0965
    15         H       -0.8529    3.0510    0.7767
    16         H        0.4216    2.6805    1.9382
    17         H       -1.6474    0.9153    1.0798
    18         H       -0.2596    0.5054    2.0935

     ===================== shared-memory parallel CPU Section ======================
     **                                                                           **
     **  MOPAC calculations will run in shared-memory parallel CPUs               **
     **                                                                           **
     **  Number of Threads =  4                                                   **
     **                                                                           **
     **                                                                           **
     **  For information on this work, see:                                       **
     **                                                                           **
     **  Maia, J.D.C., et al., J. Chem. Theory Comput. 2012, 8, 3072-3081.        **
     **        DOI: 10.1021/ct3004645.                                            **
     **                                                                           **
     ===================== shared-memory parallel CPU Section ======================
      


 General Reference for PM7:
 "Optimization of Parameters for Semiempirical Methods VI: More Modifications to the 
 NDDO Approximations and Re-optimization of Parameters", J. J. P. Stewart, J. Mol. Mod., 1:32, 19 (2013)
 http://www.springerlink.com/openurl.asp?genre=article&id=doi:10.1007/s00894-012-1667-x

           Empirical Formula: C6 H12  =    18 atoms



      MOLECULAR POINT GROUP   :   C2  


      RHF CALCULATION, NO. OF DOUBLY OCCUPIED LEVELS =   18

      Transition state refinement using EF

          HESSIAN CALCULATED NUMERICALLY

 CYCLE:     1 TIME:   0.188 TIME LEFT:  2.00D  GRAD.:     9.110 HEAT: -23.43678
 CYCLE:     2 TIME:   0.016 TIME LEFT:  2.00D  GRAD.:     4.406 HEAT: -23.47533
 CYCLE:     3 TIME:   0.000 TIME LEFT:  2.00D  GRAD.:    16.478 HEAT: -23.45092
 CYCLE:     4 TIME:   0.000 TIME LEFT:  2.00D  GRAD.:    25.398 HEAT: -23.45252
 CYCLE:     5 TIME:   0.016 TIME LEFT:  2.00D  GRAD.:     8.262 HEAT: -23.37682
 CYCLE:     6 TIME:   0.000 TIME LEFT:  2.00D  GRAD.:    10.147 HEAT: -23.45866
 CYCLE:     7 TIME:   0.016 TIME LEFT:  2.00D  GRAD.:     6.057 HEAT: -23.47756
 CYCLE:     8 TIME:   0.000 TIME LEFT:  2.00D  GRAD.:     1.859 HEAT: -23.46379
 CYCLE:     9 TIME:   0.000 TIME LEFT:  2.00D  GRAD.:     0.314 HEAT: -23.45828
 CYCLE:    10 TIME:   0.000 TIME LEFT:  2.00D  GRAD.:     1.179 HEAT: -23.46159
 CYCLE:    11 TIME:   0.016 TIME LEFT:  2.00D  GRAD.:     0.532 HEAT: -23.46254
 CYCLE:    12 TIME:   0.000 TIME LEFT:  2.00D  GRAD.:     0.449 HEAT: -23.46256
 CYCLE:    13 TIME:   0.000 TIME LEFT:  2.00D  GRAD.:     0.413 HEAT: -23.46253
 CYCLE:    13 TIME:   0.000 TIME LEFT:  2.00D  GRAD.:     0.248 HEAT: -23.46256
 CYCLE:    13 TIME:   0.016 TIME LEFT:  2.00D  GRAD.:     0.164 HEAT: -23.46257
 CYCLE:    14 TIME:   0.000 TIME LEFT:  2.00D  GRAD.:     0.062 HEAT: -23.46256
 CYCLE:    15 TIME:   0.000 TIME LEFT:  2.00D  GRAD.:     0.241 HEAT: -23.46256
 CYCLE:    16 TIME:   0.000 TIME LEFT:  2.00D  GRAD.:     0.768 HEAT: -23.46253
 CYCLE:    17 TIME:   0.016 TIME LEFT:  2.00D  GRAD.:     0.233 HEAT: -23.46257
 CYCLE:    18 TIME:   0.000 TIME LEFT:  2.00D  GRAD.:     0.097 HEAT: -23.46257
 CYCLE:    19 TIME:   0.000 TIME LEFT:  2.00D  GRAD.:     0.041 HEAT: -23.46257

     GRADIENT =  0.04136  IS LESS THAN CUTOFF =  0.05000



 -------------------------------------------------------------------------------
 html precise int ts
 Cyclohexane boat C2v



     GEOMETRY OPTIMISED USING EIGENVECTOR FOLLOWING (TS).     
     SCF FIELD WAS ACHIEVED                                   


                              PM7 CALCULATION
                                                       MOPAC2012 (Version: 15.311W)
                                                       Sat Nov 07 12:56:22 2015
                                                       No. of days left = 365




          FINAL HEAT OF FORMATION =        -23.46257 KCAL/MOL =     -98.16738 KJ/MOL


          TOTAL ENERGY            =       -899.53499 EV
          ELECTRONIC ENERGY       =      -4339.05451 EV  POINT GROUP:     C2v 
          CORE-CORE REPULSION     =       3439.51951 EV
          COSMO AREA              =        134.42 SQUARE ANGSTROMS
          COSMO VOLUME            =        127.99 CUBIC ANGSTROMS

          GRADIENT NORM           =          0.04136
          IONIZATION POTENTIAL    =         10.596466 EV
          HOMO LUMO ENERGIES (EV) =        -10.596  4.034
          NO. OF FILLED LEVELS    =         18
          MOLECULAR WEIGHT        =         84.161

          MOLECULAR DIMENSIONS (Angstroms)

            Atom       Atom       Distance
            H    14    H     7     4.90687
            H    15    H     9     4.31410
            H    13    H    16     2.77149


          SCF CALCULATIONS        =         72
 
          WALL-CLOCK TIME         =          0.312 SECONDS
          COMPUTATION TIME        =          1.201 SECONDS




  ATOM               CHEMICAL                 BOND LENGTH      BOND ANGLE     TWIST ANGLE 
 NUMBER               SYMBOL                  (ANGSTROMS)      (DEGREES)       (DEGREES) 
   (I)                                           NA:I           NB:NA:I       NC:NB:NA:I       NA    NB    NC 
     1       C(HETATM    1  C   HET A   1)    0.00000000       0.0000000       0.0000000   
     2       C(HETATM    2  C   HET A   1)    1.53360622  *    0.0000000       0.0000000        1     0     0
     3       C(HETATM    3  C   HET A   1)    1.54035516  *  112.2970358  *    0.0000000        2     1     0
     4       C(HETATM    4  C   HET A   1)    1.53362730  *  112.3063046  *    0.0918619  *     3     2     1
     5       C(HETATM    5  C   HET A   1)    1.53361017  *  110.9479148  *   53.3455452  *     4     3     2
     6       C(HETATM    6  C   HET A   1)    1.53362169  *  110.9376998  *  -53.4637553  *     1     2     3
     7       H(HETATM    7  H   HET A   1)    1.10549982  *  109.9543928  * -175.3092142  *     1     2     3
     8       H(HETATM    8  H   HET A   1)    1.10610050  *  110.0008803  *   68.4746698  *     1     2     3
     9       H(HETATM    9  H   HET A   1)    1.10498937  *  109.5693037  * -122.5496367  *     2     1     3
    10       H(HETATM   10  H   HET A   1)    1.10593942  *  109.3608433  *  121.8496527  *     2     1     3
    11       H(HETATM   11  H   HET A   1)    1.10499448  *  109.9961918  * -122.2147718  *     3     2     1
    12       H(HETATM   12  H   HET A   1)    1.10594096  *  109.5601520  *  121.8304383  *     3     2     1
    13       H(HETATM   13  H   HET A   1)    1.10610889  *  109.9979079  *  -68.5933439  *     4     3     2
    14       H(HETATM   14  H   HET A   1)    1.10550209  *  109.9512713  *  175.1947825  *     4     3     2
    15       H(HETATM   15  H   HET A   1)    1.10499902  *  109.5649628  * -175.9746465  *     5     4     3
    16       H(HETATM   16  H   HET A   1)    1.10593411  *  109.3615487  *   68.4269917  *     5     4     3
    17       H(HETATM   17  H   HET A   1)    1.10498840  *  109.5663761  *  175.9323492  *     6     1     2
    18       H(HETATM   18  H   HET A   1)    1.10593957  *  109.3624872  *  -68.4682814  *     6     1     2

                             CARTESIAN COORDINATES

   1    C        0.000000000     0.000000000     0.000000000
   2    C        1.533606217     0.000000000     0.000000000
   3    C        2.118029739     1.425181802     0.000000000
   4    C        1.026111623     2.502085866     0.002274852
   5    C        0.037039014     2.277624778     1.152628164
   6    C       -0.548043721     0.852726156     1.150869962
   7    H       -0.377276183    -1.035650149     0.084978267
   8    H       -0.378324622     0.381364720    -0.966896970
   9    H        1.903718885    -0.560176402    -0.877622083
  10    H        1.900243319    -0.550592861     0.886299462
  11    H        2.773558552     1.564766960    -0.878527605
  12    H        2.767036255     1.559231264     0.885396351
  13    H        0.488959116     2.498189246    -0.964642349
  14    H        1.484788580     3.504176276     0.089252538
  15    H       -0.778240454     3.020874139     1.089997406
  16    H        0.545797654     2.467884597     2.115984844
  17    H       -1.650266080     0.896882280     1.086407078
  18    H       -0.321418699     0.358231313     2.113791702


           Empirical Formula: C6 H12  =    18 atoms



      MOLECULAR POINT GROUP   :   C2v 


                  EIGENVALUES  
 -29.96920 -25.69059 -25.64975 -21.20778 -20.65256 -17.42826 -16.70649 -16.39061
 -14.91019 -13.56660 -13.00758 -12.75143 -12.65926 -12.32940 -11.97875 -10.92793
 -10.73726 -10.59647   4.03431   4.17006   4.46597   4.58422   4.83967   5.34006
   5.50073   5.66967   5.89164   6.04593   6.27594   6.34848   6.48970   6.70303
   6.75838   6.80602   6.84719   6.88262


              NET ATOMIC CHARGES AND DIPOLE CONTRIBUTIONS

  ATOM NO.                 TYPE                        CHARGE      No. of ELECS.   s-Pop       p-Pop       
    1          C(HETATM    1  C   HET A   1)          -0.256696        4.2567     1.05749     3.19921
    2          C(HETATM    2  C   HET A   1)          -0.261685        4.2617     1.05848     3.20320
    3          C(HETATM    3  C   HET A   1)          -0.261701        4.2617     1.05849     3.20321
    4          C(HETATM    4  C   HET A   1)          -0.256699        4.2567     1.05749     3.19921
    5          C(HETATM    5  C   HET A   1)          -0.261685        4.2617     1.05848     3.20320
    6          C(HETATM    6  C   HET A   1)          -0.261701        4.2617     1.05849     3.20321
    7          H(HETATM    7  H   HET A   1)           0.126253        0.8737     0.87375
    8          H(HETATM    8  H   HET A   1)           0.135994        0.8640     0.86401
    9          H(HETATM    9  H   HET A   1)           0.127341        0.8727     0.87266
   10          H(HETATM   10  H   HET A   1)           0.131585        0.8684     0.86841
   11          H(HETATM   11  H   HET A   1)           0.127347        0.8727     0.87265
   12          H(HETATM   12  H   HET A   1)           0.131566        0.8684     0.86843
   13          H(HETATM   13  H   HET A   1)           0.135983        0.8640     0.86402
   14          H(HETATM   14  H   HET A   1)           0.126255        0.8737     0.87374
   15          H(HETATM   15  H   HET A   1)           0.127342        0.8727     0.87266
   16          H(HETATM   16  H   HET A   1)           0.131582        0.8684     0.86842
   17          H(HETATM   17  H   HET A   1)           0.127346        0.8727     0.87265
   18          H(HETATM   18  H   HET A   1)           0.131571        0.8684     0.86843
 DIPOLE           X         Y         Z       TOTAL
 POINT-CHG.    -0.002     0.001    -0.004     0.005
 HYBRID         0.009    -0.004     0.019     0.021
 SUM            0.007    -0.003     0.014     0.016


          ATOMIC ORBITAL ELECTRON POPULATIONS

                   Atom                  s        px        py        pz   
   C(HETATM    1  C   HET A   1)   1.05749   1.01314   1.10162   1.08445
   C(HETATM    2  C   HET A   1)   1.05848   1.01578   1.03520   1.15223
   C(HETATM    3  C   HET A   1)   1.05849   1.05374   0.99726   1.15221
   C(HETATM    4  C   HET A   1)   1.05749   1.04530   1.06935   1.08456
   C(HETATM    5  C   HET A   1)   1.05848   1.08479   1.03639   1.08203
   C(HETATM    6  C   HET A   1)   1.05849   1.10477   1.01643   1.08202
   H(HETATM    7  H   HET A   1)   0.87375
   H(HETATM    8  H   HET A   1)   0.86401
   H(HETATM    9  H   HET A   1)   0.87266
   H(HETATM   10  H   HET A   1)   0.86841
   H(HETATM   11  H   HET A   1)   0.87265
   H(HETATM   12  H   HET A   1)   0.86843
   H(HETATM   13  H   HET A   1)   0.86402
   H(HETATM   14  H   HET A   1)   0.87374
   H(HETATM   15  H   HET A   1)   0.87266
   H(HETATM   16  H   HET A   1)   0.86842
   H(HETATM   17  H   HET A   1)   0.87265
   H(HETATM   18  H   HET A   1)   0.86843
 *******************************************************************************
 ** Site#: 10005        For non-commercial use only     Version 15.311W 64BITS**
 *******************************************************************************
 ** Cite this work as:                                                        **
 **                                                                           **
 ** (a) MOPAC2012, James J. P. Stewart, Stewart Computational Chemistry,      **
 **  Version 15.311W web: HTTP://OpenMOPAC.net         Days remaining: 365    **
 **                                                                           **
 **                                 AND                                       **
 **                                                                           **
 ** (b) Maia, J.D.C., et al., J. Chem. Theory Comput. 2012, 8, 3072-3081.     **
 **                DOI: 10.1021/ct3004645.                                    **
 *******************************************************************************
 **                                                                           **
 **                                MOPAC2012                                  **
 **                                                                           **
 *******************************************************************************

                              PM7 CALCULATION RESULTS


 *******************************************************************************
 *  CALCULATION DONE:                                Sat Nov 07 12:56:22 2015  *
 *  OLDGEO     - PREVIOUS GEOMETRY TO BE USED
 *  FORCE      - FORCE CALCULATION SPECIFIED
 *  T=         - A TIME OF 172800.0 SECONDS REQUESTED
 *  DUMP=N     - RESTART FILE WRITTEN EVERY  7200.000 SECONDS
 *******************************************************************************
Oldgeo FORCE
 Cyclohexane boat C2v

  ATOM               CHEMICAL                 BOND LENGTH      BOND ANGLE     TWIST ANGLE 
 NUMBER               SYMBOL                  (ANGSTROMS)      (DEGREES)       (DEGREES) 
   (I)                                           NA:I           NB:NA:I       NC:NB:NA:I       NA    NB    NC 
     1       C(HETATM    1  C   HET A   1)    0.00000000       0.0000000       0.0000000   
     2       C(HETATM    2  C   HET A   1)    1.53360622  *    0.0000000       0.0000000        1     0     0
     3       C(HETATM    3  C   HET A   1)    1.54035516  *  112.2970358  *    0.0000000        2     1     0
     4       C(HETATM    4  C   HET A   1)    1.53362730  *  112.3063046  *    0.0918619  *     3     2     1
     5       C(HETATM    5  C   HET A   1)    1.53361017  *  110.9479148  *   53.3455452  *     4     3     2
     6       C(HETATM    6  C   HET A   1)    1.53362169  *  110.9376998  *  -53.4637553  *     1     2     3
     7       H(HETATM    7 1HT1 HET A   1)    1.10549982  *  109.9543928  * -175.3092142  *     1     2     3
     8       H(HETATM    8 2HT1 HET A   1)    1.10610050  *  110.0008803  *   68.4746698  *     1     2     3
     9       H(HETATM    9 1HT2 HET A   1)    1.10498937  *  109.5693037  * -122.5496367  *     2     1     3
    10       H(HETATM   10 2HT2 HET A   1)    1.10593942  *  109.3608433  *  121.8496527  *     2     1     3
    11       H(HETATM   11 1HT3 HET A   1)    1.10499448  *  109.9961918  * -122.2147718  *     3     2     1
    12       H(HETATM   12 2HT3 HET A   1)    1.10594096  *  109.5601520  *  121.8304383  *     3     2     1
    13       H(HETATM   13 1HT4 HET A   1)    1.10610889  *  109.9979079  *  -68.5933439  *     4     3     2
    14       H(HETATM   14 2HT4 HET A   1)    1.10550209  *  109.9512713  *  175.1947825  *     4     3     2
    15       H(HETATM   15 1HT5 HET A   1)    1.10499902  *  109.5649628  * -175.9746465  *     5     4     3
    16       H(HETATM   16 2HT5 HET A   1)    1.10593411  *  109.3615487  *   68.4269917  *     5     4     3
    17       H(HETATM   17 1HT6 HET A   1)    1.10498840  *  109.5663761  *  175.9323492  *     6     1     2
    18       H(HETATM   18 2HT6 HET A   1)    1.10593957  *  109.3624872  *  -68.4682814  *     6     1     2
 

 General Reference for PM7:
 "Optimization of Parameters for Semiempirical Methods VI: More Modifications to the 
 NDDO Approximations and Re-optimization of Parameters", J. J. P. Stewart, J. Mol. Mod., 1:32, 19 (2013)
 http://www.springerlink.com/openurl.asp?genre=article&id=doi:10.1007/s00894-012-1667-x

           Empirical Formula: C6 H12  =    18 atoms



      MOLECULAR POINT GROUP   :   C2v 


      RHF CALCULATION, NO. OF DOUBLY OCCUPIED LEVELS =   18



          HEAT OF FORMATION =     -23.462567 KCALS/MOLE


          CARTESIAN COORDINATE DERIVATIVES

   NUMBER  ATOM         X            Y            Z

     1       C      0.001258     0.003713     0.000361
     2       C      0.003415    -0.005885     0.000673
     3       C     -0.009653    -0.003665    -0.009892
     4       C      0.004768     0.006297     0.011848
     5       C      0.003052    -0.010603     0.002374
     6       C     -0.003266     0.006854    -0.002507
     7       H     -0.000315    -0.000080    -0.000715
     8       H      0.000107     0.000637     0.000346
     9       H      0.000463     0.000231    -0.000043
    10       H     -0.000016     0.000563    -0.000214
    11       H      0.000708    -0.000213     0.001043
    12       H     -0.000969     0.000679     0.000829
    13       H      0.001525    -0.000754    -0.001622
    14       H     -0.000474    -0.000208     0.000019
    15       H     -0.002572    -0.004536    -0.003283
    16       H     -0.002521     0.003811    -0.001131
    17       H      0.001453    -0.001130     0.001891
    18       H      0.003033     0.004286     0.000019
 


          GRADIENT NORM =   0.02769

          MOLECULAR WEIGHT =   84.16



          ROTATIONAL CONSTANTS IN CM(-1)

          A =    0.14529731   B =    0.13925540   C =    0.08406643



           PRINCIPAL MOMENTS OF INERTIA IN UNITS OF 10**(-40)*GRAM-CM**2

          A =      192.6586   B =      201.0175   C =      332.9840


          ORIENTATION OF MOLECULE IN FORCE CALCULATION

    NO.       ATOM         X         Y         Z

     1          C      -0.6948   -1.1761   -0.3849
     2          C       0.8388   -1.1761   -0.3849
     3          C       1.4233    0.2490   -0.3849
     4          C       0.3314    1.3259   -0.3827
     5          C      -0.6577    1.1015    0.7677
     6          C      -1.2428   -0.3234    0.7659
     7          H      -1.0720   -2.2118   -0.3000
     8          H      -1.0731   -0.7948   -1.3518
     9          H       1.2090   -1.7363   -1.2626
    10          H       1.2055   -1.7267    0.5014
    11          H       2.0788    0.3886   -1.2635
    12          H       2.0723    0.3831    0.5005
    13          H      -0.2058    1.3220   -1.3496
    14          H       0.7900    2.3280   -0.2957
    15          H      -1.4730    1.8447    0.7051
    16          H      -0.1490    1.2917    1.7311
    17          H      -2.3450   -0.2793    0.7015
    18          H      -1.0162   -0.8179    1.7289


    FIRST DERIVATIVES WILL BE USED IN THE CALCULATION OF SECOND DERIVATIVES

    FOR POINT-GROUP C2v  THERE ARE   4 UNIQUE SYMMETRY FUNCTIONS.

 STEP:   1 TIME =     0.00 SECS, INTEGRAL =      0.00 TIME LEFT: 172800.00
 STEP:   2 TIME =     0.02 SECS, INTEGRAL =      0.02 TIME LEFT: 172799.98
 STEP:   3 TIME =     0.00 SECS, INTEGRAL =      0.02 TIME LEFT: 172799.98
 STEP:   4 TIME =     0.02 SECS, INTEGRAL =      0.03 TIME LEFT: 172799.97
 STEP:   5 TIME =     0.00 SECS, INTEGRAL =      0.03 TIME LEFT: 172799.97
 STEP:   6 TIME =     0.02 SECS, INTEGRAL =      0.05 TIME LEFT: 172799.95
 STEP:   7                       INTEGRAL =      0.05 TIME LEFT: 172799.95
 STEP:   8                       INTEGRAL =      0.05 TIME LEFT: 172799.95
 STEP:   9                       INTEGRAL =      0.05 TIME LEFT: 172799.95
 STEP:  10                       INTEGRAL =      0.05 TIME LEFT: 172799.95
 STEP:  11                       INTEGRAL =      0.05 TIME LEFT: 172799.95
 STEP:  12                       INTEGRAL =      0.05 TIME LEFT: 172799.95
 STEP:  13                       INTEGRAL =      0.05 TIME LEFT: 172799.95
 STEP:  14                       INTEGRAL =      0.05 TIME LEFT: 172799.95
 STEP:  15                       INTEGRAL =      0.05 TIME LEFT: 172799.95
 STEP:  16                       INTEGRAL =      0.05 TIME LEFT: 172799.95
 STEP:  17                       INTEGRAL =      0.05 TIME LEFT: 172799.95
 STEP:  18                       INTEGRAL =      0.05 TIME LEFT: 172799.95
 STEP:  19 TIME =     0.00 SECS, INTEGRAL =      0.05 TIME LEFT: 172799.95
 STEP:  20 TIME =     0.02 SECS, INTEGRAL =      0.06 TIME LEFT: 172799.94
 STEP:  21 TIME =     0.00 SECS, INTEGRAL =      0.06 TIME LEFT: 172799.94
 STEP:  22 TIME =     0.02 SECS, INTEGRAL =      0.08 TIME LEFT: 172799.92
 STEP:  23 TIME =     0.00 SECS, INTEGRAL =      0.08 TIME LEFT: 172799.92
 STEP:  24 TIME =     0.02 SECS, INTEGRAL =      0.09 TIME LEFT: 172799.91
 STEP:  25 TIME =     0.00 SECS, INTEGRAL =      0.09 TIME LEFT: 172799.91
 STEP:  26 TIME =     0.02 SECS, INTEGRAL =      0.11 TIME LEFT: 172799.89
 STEP:  27 TIME =     0.00 SECS, INTEGRAL =      0.11 TIME LEFT: 172799.89
 STEP:  28 TIME =     0.02 SECS, INTEGRAL =      0.12 TIME LEFT: 172799.88
 STEP:  29 TIME =     0.00 SECS, INTEGRAL =      0.12 TIME LEFT: 172799.88
 STEP:  30 TIME =     0.02 SECS, INTEGRAL =      0.14 TIME LEFT: 172799.86
 STEP:  31                       INTEGRAL =      0.14 TIME LEFT: 172799.86
 STEP:  32                       INTEGRAL =      0.14 TIME LEFT: 172799.86
 STEP:  33                       INTEGRAL =      0.14 TIME LEFT: 172799.86
 STEP:  34                       INTEGRAL =      0.14 TIME LEFT: 172799.86
 STEP:  35                       INTEGRAL =      0.14 TIME LEFT: 172799.86
 STEP:  36                       INTEGRAL =      0.14 TIME LEFT: 172799.86
 STEP:  37                       INTEGRAL =      0.14 TIME LEFT: 172799.86
 STEP:  38                       INTEGRAL =      0.14 TIME LEFT: 172799.86
 STEP:  39                       INTEGRAL =      0.14 TIME LEFT: 172799.86
 STEP:  40                       INTEGRAL =      0.14 TIME LEFT: 172799.86
 STEP:  41                       INTEGRAL =      0.14 TIME LEFT: 172799.86
 STEP:  42                       INTEGRAL =      0.14 TIME LEFT: 172799.86
 STEP:  43                       INTEGRAL =      0.14 TIME LEFT: 172799.86
 STEP:  44                       INTEGRAL =      0.14 TIME LEFT: 172799.86
 STEP:  45                       INTEGRAL =      0.14 TIME LEFT: 172799.86
 STEP:  46                       INTEGRAL =      0.14 TIME LEFT: 172799.86
 STEP:  47                       INTEGRAL =      0.14 TIME LEFT: 172799.86
 STEP:  48                       INTEGRAL =      0.14 TIME LEFT: 172799.86
 STEP:  49                       INTEGRAL =      0.14 TIME LEFT: 172799.86
 STEP:  50                       INTEGRAL =      0.14 TIME LEFT: 172799.86
 STEP:  51                       INTEGRAL =      0.14 TIME LEFT: 172799.86
 STEP:  52                       INTEGRAL =      0.14 TIME LEFT: 172799.86
 STEP:  53                       INTEGRAL =      0.14 TIME LEFT: 172799.86
 STEP:  54                       INTEGRAL =      0.14 TIME LEFT: 172799.86

(To convert to Hartree/Bohr^2, multiply by (10^(-21) x N x a0^2)/(4.184 x 627.51) =  0.0642)


           FORCE MATRIX IN MILLIDYNES/ANGSTROM


                  C  1       C  2       C  3       C  4       C  5       C  6
 ------------------------------------------------------------------------------
     C    1  11.896876
     C    2   2.946341  11.790706
     C    3   0.610673   2.811513  11.790706
     C    4   0.113049   0.610612   2.946341  11.896876
     C    5   0.610514   0.043995   0.653349   2.946341  11.790706
     C    6   2.945717   0.653349   0.043995   0.610673   2.811513  11.790706
     H    7   3.319227   0.677727   0.045859   0.005625   0.045991   0.677841
     H    8   3.325297   0.686691   0.007714   0.029354   0.007658   0.686612
     H    9   0.686364   3.333094   0.674122   0.022207   0.003550   0.047815
     H   10   0.701738   3.333506   0.680637   0.021889   0.003657   0.008398
     H   11   0.022410   0.674248   3.333057   0.686620   0.047982   0.003526
     H   12   0.022343   0.680819   3.333215   0.702048   0.008342   0.003680
     H   13   0.029338   0.007639   0.686836   3.325317   0.686836   0.007639
     H   14   0.005710   0.046115   0.678107   3.319359   0.678107   0.046115
     H   15   0.022348   0.003526   0.047982   0.686601   3.333057   0.674248
     H   16   0.022135   0.003680   0.008342   0.701946   3.333215   0.680819
     H   17   0.686620   0.047982   0.003526   0.022410   0.674248   3.333057
     H   18   0.702048   0.008342   0.003680   0.022343   0.680819   3.333215


                  H  7       H  8       H  9       H 10       H 11       H 12
 ------------------------------------------------------------------------------
     H    7   4.256035
     H    8   0.460504   4.259567
     H    9   0.018559   0.020759   4.254450
     H   10   0.021453   0.047064   0.463729   4.255033
     H   11   0.004617   0.002736   0.033107   0.025672   4.254450
     H   12   0.003476   0.001413   0.025597   0.035943   0.463729   4.255033
     H   13   0.001441   0.025290   0.002775   0.001267   0.020759   0.047064
     H   14   0.000933   0.001480   0.004163   0.003974   0.018559   0.021453
     H   15   0.004201   0.002761   0.000503   0.000601   0.007696   0.001854
     H   16   0.003966   0.001389   0.000647   0.002760   0.001725   0.010780
     H   17   0.018698   0.020864   0.007696   0.001854   0.000503   0.000601
     H   18   0.021385   0.046819   0.001725   0.010780   0.000647   0.002760


                  H 13       H 14       H 15       H 16       H 17       H 18
 ------------------------------------------------------------------------------
     H   13   4.259567
     H   14   0.460504   4.256035
     H   15   0.020759   0.018559   4.254450
     H   16   0.047064   0.021453   0.463729   4.255033
     H   17   0.002736   0.004617   0.033107   0.025672   4.254450
     H   18   0.001413   0.003476   0.025597   0.035943   0.463729   4.255033


          HEAT OF FORMATION =     -23.462567 KCALS/MOLE

          ZERO POINT ENERGY      99.838 KCAL/MOL

         NOTE: SYSTEM IS NOT A GROUND STATE, THEREFORE ZERO POINT
         ENERGY IS NOT MEANINGFULL. ZERO POINT ENERGY PRINTED
         DOES NOT INCLUDE THE  1 IMAGINARY FREQUENCIES


           NORMAL COORDINATE ANALYSIS (Total motion = 1 Angstrom)


   Root No.       1         2         3         4         5         6         7         8

                 1 A2      1 B2      1 A1      2 A1      2 A2      2 B2      1 B1      3 A1  

                 -65.9     201.1     278.8     451.6     453.3     595.2     800.6     804.6
  
           1    0.0064    0.0033    0.0045   -0.0249   -0.0331    0.0211   -0.0035    0.0037
           2   -0.0026   -0.0137   -0.0292   -0.0450    0.0135    0.0201    0.0014    0.0137
           3   -0.0035    0.0160    0.0298   -0.0119    0.0183    0.0233    0.0019   -0.0034
           4    0.0059    0.0045    0.0035   -0.0292   -0.0210    0.0151    0.0047    0.0118
           5    0.0036    0.0055   -0.0007    0.0084    0.0577   -0.0243   -0.0040    0.0026
           6    0.0340   -0.0226   -0.0200    0.0170    0.0046    0.0024    0.0192   -0.0136
           7   -0.0016    0.0006    0.0031   -0.0268    0.0554   -0.0278    0.0062    0.0066
           8    0.0068    0.0070   -0.0020    0.0145    0.0266   -0.0068   -0.0005   -0.0100
           9   -0.0340    0.0226   -0.0200    0.0170   -0.0044   -0.0024    0.0192   -0.0137
          10   -0.0064   -0.0119    0.0237    0.0137    0.0331   -0.0010   -0.0035   -0.0070
          11    0.0026   -0.0074    0.0176    0.0496   -0.0135    0.0291    0.0014   -0.0124
          12    0.0035   -0.0161    0.0298   -0.0118   -0.0183   -0.0232    0.0020   -0.0035
          13    0.0212    0.0207   -0.0172    0.0304    0.0085    0.0044   -0.0119   -0.0182
          14   -0.0147   -0.0012    0.0063   -0.0088   -0.0526   -0.0199    0.0029    0.0001
          15    0.0232    0.0115   -0.0088   -0.0146   -0.0309   -0.0203   -0.0160    0.0001
          16   -0.0254   -0.0156   -0.0167    0.0279   -0.0429   -0.0171   -0.0105   -0.0131
          17    0.0044    0.0137    0.0076   -0.0149   -0.0317   -0.0112    0.0064    0.0127
          18   -0.0232   -0.0115   -0.0088   -0.0146    0.0308    0.0202   -0.0160    0.0001
          19    0.0078    0.0245    0.0348   -0.0026    0.0151   -0.0227   -0.0095    0.0397
          20   -0.0032   -0.0187   -0.0368   -0.0497   -0.0061    0.0314    0.0039    0.0023
          21   -0.0043    0.0582    0.0901    0.0318   -0.0083   -0.0642    0.0052    0.0701
          22    0.0292   -0.0189   -0.0249   -0.0434   -0.0572    0.0622    0.0246   -0.0264
          23   -0.0119   -0.0562   -0.0858   -0.0840    0.0233    0.1072   -0.0100   -0.0511
          24   -0.0161    0.0073    0.0183   -0.0166    0.0316    0.0335   -0.0136   -0.0102
          25    0.0312   -0.0178   -0.0229    0.0137   -0.0433   -0.0145   -0.0406    0.0346
          26   -0.0453    0.0474    0.0150    0.0007    0.0489   -0.0032    0.0713   -0.0625
          27    0.0759   -0.0594   -0.0427    0.0409   -0.0004   -0.0251   -0.0563    0.0439
          28   -0.0148    0.0346    0.0422   -0.0429   -0.0242    0.0497    0.0457   -0.0272
          29    0.0562   -0.0314   -0.0114    0.0333    0.0537   -0.0436   -0.0799    0.0517
          30    0.0754   -0.0584   -0.0422    0.0411    0.0047   -0.0279   -0.0557    0.0406
          31   -0.0539    0.0458   -0.0268    0.0093    0.0652    0.0081   -0.0788    0.0684
          32   -0.0103    0.0212    0.0054   -0.0103    0.0046   -0.0125   -0.0224    0.0203
          33   -0.0760    0.0596   -0.0427    0.0409    0.0005    0.0252   -0.0564    0.0440
          34    0.0500   -0.0468    0.0382   -0.0540    0.0549   -0.0660    0.0886   -0.0557
          35    0.0300    0.0016   -0.0213    0.0061    0.0214    0.0036    0.0253   -0.0180
          36   -0.0753    0.0584   -0.0422    0.0411   -0.0046    0.0279   -0.0555    0.0405
          37   -0.0292   -0.0258    0.0423    0.0278    0.0572    0.0307    0.0246    0.0169
          38    0.0119   -0.0533    0.0786    0.0904   -0.0233    0.1202   -0.0100    0.0550
          39    0.0161   -0.0075    0.0185   -0.0163   -0.0316   -0.0331   -0.0136   -0.0100
          40   -0.0078   -0.0305    0.0505    0.0328   -0.0151    0.0381   -0.0094    0.0266
          41    0.0032    0.0040    0.0017    0.0372    0.0061    0.0064    0.0038   -0.0297
          42    0.0043   -0.0582    0.0901    0.0320    0.0083    0.0642    0.0052    0.0700
          43    0.0435    0.0401   -0.0195    0.0217    0.0205    0.0091    0.0265    0.0198
          44    0.0146    0.0235    0.0025   -0.0154   -0.0395   -0.0129    0.0437    0.0401
          45    0.0818    0.0627   -0.0468    0.0340   -0.0478    0.0245    0.0854    0.0709
          46    0.0579    0.0616   -0.0572    0.0536    0.0113    0.0466    0.0596    0.0405
          47   -0.0740   -0.0425    0.0176   -0.0377   -0.0484   -0.0423   -0.0856   -0.0571
          48    0.0156   -0.0015    0.0105   -0.0184   -0.0320   -0.0344   -0.0264   -0.0126
          49   -0.0208   -0.0121   -0.0156    0.0262   -0.0423   -0.0155   -0.0118   -0.0140
          50    0.0410    0.0450    0.0121   -0.0044   -0.0140   -0.0028   -0.0500   -0.0427
          51   -0.0817   -0.0626   -0.0467    0.0340    0.0477   -0.0246    0.0852    0.0708
          52   -0.0931   -0.0737   -0.0532    0.0647   -0.0420   -0.0630    0.1025    0.0689
          53   -0.0123    0.0127    0.0275   -0.0105   -0.0267    0.0024    0.0195    0.0125
          54   -0.0158    0.0015    0.0105   -0.0184    0.0319    0.0343   -0.0262   -0.0125


   Root No.       9        10        11        12        13        14        15        16

                 4 A1      3 A2      3 B2      2 B1      4 B2      5 A1      3 B1      5 B2  

                 895.1     953.5     954.4     970.9     972.2    1010.7    1126.2    1149.4
  
           1    0.0160   -0.0072    0.0102    0.0274    0.0204    0.0173    0.0370   -0.0132
           2    0.0400    0.0029    0.0341   -0.0111    0.0299   -0.0010   -0.0151    0.0079
           3   -0.0006    0.0040   -0.0067   -0.0151    0.0148    0.0320   -0.0204   -0.0298
           4   -0.0135    0.0071    0.0127   -0.0052   -0.0342   -0.0204   -0.0368    0.0135
           5    0.0334   -0.0000   -0.0185    0.0512    0.0033    0.0163   -0.0123   -0.0057
           6    0.0144    0.0259   -0.0150    0.0038    0.0140   -0.0087   -0.0037    0.0318
           7   -0.0330   -0.0051   -0.0220   -0.0396    0.0267   -0.0260   -0.0177   -0.0136
           8   -0.0143    0.0050   -0.0043   -0.0330   -0.0216    0.0027    0.0346    0.0054
           9    0.0143   -0.0259    0.0149    0.0036   -0.0140   -0.0087   -0.0036   -0.0318
          10   -0.0166    0.0072    0.0166    0.0274    0.0064    0.0130    0.0370    0.0150
          11   -0.0397   -0.0029    0.0315   -0.0111    0.0356   -0.0115   -0.0151   -0.0037
          12   -0.0007   -0.0040    0.0068   -0.0151   -0.0147    0.0320   -0.0205    0.0298
          13    0.0146    0.0148    0.0167    0.0013   -0.0321    0.0042   -0.0228   -0.0160
          14   -0.0338   -0.0090   -0.0201    0.0486    0.0024   -0.0096   -0.0181    0.0064
          15   -0.0120    0.0205   -0.0065    0.0175    0.0185   -0.0254    0.0260   -0.0305
          16    0.0341   -0.0169   -0.0261   -0.0331    0.0246    0.0098   -0.0036    0.0159
          17    0.0139    0.0040   -0.0027   -0.0357   -0.0207    0.0039    0.0288   -0.0067
          18   -0.0120   -0.0205    0.0065    0.0174   -0.0185   -0.0254    0.0261    0.0305
          19    0.0619   -0.0196    0.0622    0.1376    0.0367   -0.0239   -0.0788    0.0184
          20    0.0201    0.0080    0.0131   -0.0561    0.0122    0.0094    0.0321   -0.0002
          21    0.0970    0.0108    0.1028   -0.0761    0.0574   -0.0503    0.0436    0.0334
          22   -0.0331    0.0561   -0.0376   -0.0154   -0.0140    0.0452    0.0651   -0.0362
          23   -0.0589   -0.0228   -0.0686    0.0063   -0.0330    0.0679   -0.0266   -0.0491
          24   -0.0165   -0.0310   -0.0175    0.0085   -0.0010    0.0317   -0.0360   -0.0294
          25   -0.0301   -0.0633    0.0466    0.0227   -0.1038   -0.0306    0.0662    0.0007
          26    0.0597    0.0366   -0.0471    0.0653   -0.0172   -0.0338    0.0559    0.0660
          27   -0.0200   -0.0350    0.0241   -0.0090   -0.0123    0.0195   -0.0074   -0.0265
          28   -0.0082    0.0802   -0.0300    0.0035   -0.0138    0.0241   -0.0119    0.0304
          29   -0.0187   -0.0290   -0.0070    0.0142   -0.0296    0.0765   -0.0018   -0.0629
          30   -0.0174   -0.0341    0.0141   -0.0125   -0.0123    0.0199   -0.0076   -0.0247
          31   -0.0633    0.0708   -0.0662   -0.0295    0.0621    0.0018    0.0081    0.0457
          32   -0.0213   -0.0183   -0.0009   -0.0625   -0.0849    0.0456   -0.0862    0.0475
          33   -0.0201    0.0350   -0.0242   -0.0092    0.0122    0.0197   -0.0077    0.0267
          34    0.0072   -0.0776    0.0166   -0.0074   -0.0109   -0.0364   -0.0072   -0.0658
          35    0.0192    0.0353   -0.0260   -0.0125   -0.0308   -0.0715    0.0097   -0.0237
          36   -0.0173    0.0341   -0.0141   -0.0125    0.0122    0.0197   -0.0076    0.0246
          37    0.0176   -0.0561   -0.0211   -0.0154   -0.0131   -0.0153    0.0651   -0.0085
          38    0.0653    0.0228   -0.0754    0.0063   -0.0334   -0.0802   -0.0265   -0.0605
          39   -0.0162    0.0310    0.0173    0.0085    0.0009    0.0314   -0.0360    0.0292
          40    0.0299    0.0196   -0.0351    0.1376   -0.0176   -0.0237   -0.0788   -0.0132
          41   -0.0579   -0.0080    0.0532   -0.0561    0.0346    0.0102    0.0321    0.0129
          42    0.0969   -0.0108   -0.1027   -0.0761   -0.0573   -0.0502    0.0435   -0.0334
          43   -0.0043    0.0092    0.0051    0.0309   -0.0602    0.0393    0.0564    0.0299
          44   -0.0455   -0.0143   -0.0300    0.0619   -0.0351    0.0302    0.0600    0.0539
          45   -0.0527   -0.0792   -0.0636    0.0084    0.0798   -0.0011   -0.0280    0.0354
          46   -0.0051   -0.0730   -0.0310    0.0137   -0.0040   -0.0118   -0.0022    0.0290
          47    0.0241    0.0260   -0.0066    0.0100   -0.0336   -0.0816   -0.0058   -0.0623
          48   -0.0106    0.0492    0.0121    0.0091    0.0083    0.0061    0.0128   -0.0278
          49    0.0289   -0.0167   -0.0247   -0.0212    0.0185    0.0069   -0.0016    0.0164
          50    0.0355   -0.0040   -0.0180   -0.0659   -0.0670   -0.0492   -0.0822    0.0596
          51   -0.0526    0.0792    0.0635    0.0082   -0.0799   -0.0013   -0.0282   -0.0352
          52   -0.0205    0.0704    0.0175    0.0028   -0.0207    0.0487    0.0025   -0.0644
          53   -0.0138   -0.0324   -0.0263   -0.0167   -0.0268    0.0664    0.0057   -0.0243
          54   -0.0107   -0.0492   -0.0122    0.0090   -0.0084    0.0063    0.0129    0.0277


   Root No.      17        18        19        20        21        22        23        24

                 4 A2      4 B1      6 A1      5 A2      6 B2      6 A2      5 B1      7 A1  

                1156.4    1163.1    1173.1    1183.0    1209.0    1211.0    1244.0    1245.6
  
           1   -0.0344   -0.0029    0.0129   -0.0026   -0.0095   -0.0184    0.0147   -0.0141
           2    0.0140    0.0012    0.0271    0.0011    0.0019    0.0075   -0.0060   -0.0048
           3    0.0190    0.0016    0.0035    0.0015   -0.0185    0.0102   -0.0081   -0.0220
           4    0.0281    0.0024   -0.0309   -0.0013    0.0076    0.0158   -0.0153    0.0139
           5   -0.0039   -0.0097   -0.0459    0.0048   -0.0024   -0.0067   -0.0198    0.0089
           6   -0.0150   -0.0007    0.0045    0.0003   -0.0040    0.0133    0.0075    0.0105
           7   -0.0228    0.0085    0.0100    0.0043   -0.0071   -0.0160    0.0029    0.0036
           8    0.0169    0.0052    0.0544    0.0025    0.0036    0.0063    0.0248   -0.0161
           9    0.0150   -0.0007    0.0047   -0.0002    0.0040   -0.0133    0.0076    0.0105
          10    0.0344   -0.0029   -0.0097    0.0026    0.0080    0.0184    0.0147   -0.0067
          11   -0.0140    0.0012   -0.0284   -0.0011   -0.0053   -0.0075   -0.0060    0.0134
          12   -0.0190    0.0016    0.0034   -0.0015    0.0185   -0.0102   -0.0081   -0.0219
          13   -0.0289    0.0007    0.0300    0.0004    0.0075    0.0008   -0.0184   -0.0023
          14    0.0041   -0.0090    0.0462   -0.0044   -0.0024   -0.0001   -0.0185   -0.0137
          15    0.0135   -0.0043   -0.0064   -0.0023   -0.0041    0.0217    0.0010    0.0138
          16    0.0235    0.0068   -0.0109   -0.0033   -0.0070   -0.0006   -0.0002    0.0079
          17   -0.0172    0.0060   -0.0540   -0.0029    0.0036    0.0005    0.0261    0.0114
          18   -0.0135   -0.0043   -0.0066    0.0023    0.0041   -0.0217    0.0011    0.0139
          19   -0.0879    0.0319    0.0269   -0.1061    0.0025    0.0453    0.0833    0.0001
          20    0.0358   -0.0130    0.0057    0.0432    0.0004   -0.0184   -0.0339   -0.0035
          21    0.0486   -0.0176    0.0444    0.0586    0.0041   -0.0250   -0.0460    0.0027
          22   -0.0217   -0.0915   -0.0279    0.0796   -0.0165   -0.0850   -0.0854   -0.0135
          23    0.0088    0.0373   -0.0521   -0.0324   -0.0153    0.0346    0.0348   -0.0092
          24    0.0120    0.0506   -0.0120   -0.0440   -0.0187    0.0470    0.0472   -0.0176
          25    0.0079    0.0566   -0.0925    0.0569   -0.0764    0.0533   -0.0466   -0.0989
          26   -0.0347    0.0350   -0.0552    0.0521   -0.0596    0.0540   -0.0245   -0.0538
          27    0.0102   -0.0039   -0.0073   -0.0042   -0.0024   -0.0065   -0.0020   -0.0003
          28    0.0563   -0.0781   -0.0077   -0.0488    0.0967   -0.0345    0.0551    0.0837
          29    0.0726   -0.0572   -0.0077   -0.0217    0.0653   -0.0515    0.0232    0.0335
          30    0.0176    0.0013    0.0106    0.0030   -0.0026    0.0005    0.0024   -0.0054
          31   -0.0299    0.0159   -0.0274   -0.0042    0.0129   -0.0003   -0.0161   -0.0330
          32   -0.0192   -0.0646    0.1042    0.0770   -0.0961    0.0759    0.0502    0.1077
          33   -0.0102   -0.0041   -0.0070    0.0044    0.0021    0.0068   -0.0019    0.0000
          34    0.0107   -0.0157   -0.0001    0.0197   -0.0233   -0.0114    0.0231    0.0364
          35    0.0913    0.0955    0.0108   -0.0497    0.1143   -0.0609   -0.0552   -0.0825
          36   -0.0173    0.0015    0.0106   -0.0031    0.0029   -0.0007    0.0023   -0.0055
          37    0.0217   -0.0915    0.0166   -0.0796    0.0011    0.0850   -0.0855   -0.0032
          38   -0.0088    0.0373    0.0567    0.0324   -0.0225   -0.0346    0.0348    0.0161
          39   -0.0120    0.0506   -0.0118    0.0440    0.0186   -0.0470    0.0472   -0.0175
          40    0.0879    0.0319    0.0151    0.1061   -0.0014   -0.0453    0.0833    0.0025
          41   -0.0358   -0.0130   -0.0230   -0.0432    0.0020    0.0184   -0.0339    0.0025
          42   -0.0486   -0.0176    0.0443   -0.0586   -0.0041    0.0250   -0.0461    0.0027
          43    0.0076    0.0446    0.0623   -0.0475   -0.0562   -0.0472   -0.0322    0.0715
          44    0.0283    0.0400    0.0677   -0.0560   -0.0679   -0.0565   -0.0305    0.0651
          45    0.0226   -0.0293   -0.0566    0.0242    0.0404    0.0195    0.0286   -0.0577
          46   -0.0338   -0.0597    0.0140    0.0369    0.0738    0.0301    0.0371   -0.0629
          47   -0.0819   -0.0648    0.0051    0.0266    0.0747    0.0533    0.0307   -0.0421
          48    0.0301    0.0401    0.0028   -0.0282   -0.0509   -0.0097   -0.0356    0.0493
          49    0.0144    0.0039   -0.0028   -0.0052   -0.0074   -0.0058   -0.0017    0.0055
          50    0.0256   -0.0596   -0.0918   -0.0731   -0.0878   -0.0733    0.0442   -0.0964
          51   -0.0225   -0.0295   -0.0569   -0.0244   -0.0406   -0.0197    0.0287   -0.0580
          52   -0.0332    0.0027    0.0064   -0.0078   -0.0005    0.0158    0.0051   -0.0155
          53   -0.0821    0.0879   -0.0134    0.0448    0.1049    0.0591   -0.0478    0.0739
          54   -0.0303    0.0404    0.0028    0.0283    0.0512    0.0098   -0.0357    0.0495


   Root No.      25        26        27        28        29        30        31        32

                 6 B1      7 A2      7 B2      8 A1      8 A2      7 B1      8 B2      9 A1  

                1308.5    1309.6    1320.2    1320.8    1331.6    1335.0    1338.7    1338.8
  
           1   -0.0035    0.0125   -0.0043    0.0008   -0.0142   -0.0042   -0.0085    0.0040
           2    0.0014   -0.0051   -0.0041    0.0103    0.0058    0.0017   -0.0089    0.0015
           3    0.0019   -0.0069   -0.0048   -0.0062    0.0079    0.0023   -0.0089    0.0061
           4    0.0036   -0.0112    0.0062   -0.0090    0.0033    0.0092   -0.0034   -0.0045
           5    0.0062    0.0040   -0.0071   -0.0077    0.0103   -0.0065    0.0083    0.0083
           6    0.0028    0.0057   -0.0004    0.0022   -0.0035    0.0006    0.0007   -0.0003
           7   -0.0017    0.0109   -0.0094   -0.0010    0.0049    0.0112    0.0082   -0.0090
           8   -0.0070   -0.0049   -0.0007    0.0117    0.0096   -0.0018    0.0035   -0.0027
           9    0.0028   -0.0057    0.0004    0.0022    0.0035    0.0006   -0.0007   -0.0003
          10   -0.0035   -0.0125    0.0002   -0.0067    0.0142   -0.0042   -0.0002    0.0018
          11    0.0014    0.0051   -0.0060   -0.0079   -0.0058    0.0017   -0.0124   -0.0039
          12    0.0020    0.0069    0.0048   -0.0062   -0.0079    0.0023    0.0088    0.0061
          13    0.0011    0.0109    0.0033    0.0085   -0.0062    0.0045   -0.0016    0.0015
          14    0.0072   -0.0039   -0.0059    0.0078   -0.0091   -0.0046    0.0075   -0.0070
          15   -0.0025   -0.0063   -0.0066   -0.0031   -0.0028   -0.0093    0.0047   -0.0061
          16   -0.0043   -0.0105   -0.0065    0.0006   -0.0019    0.0065    0.0063    0.0060
          17   -0.0059    0.0048   -0.0020   -0.0115   -0.0109    0.0002    0.0043    0.0040
          18   -0.0025    0.0063    0.0066   -0.0031    0.0027   -0.0093   -0.0047   -0.0061
          19   -0.0612   -0.0683    0.0366   -0.0044    0.0342   -0.0137    0.0463   -0.0261
          20    0.0249    0.0278   -0.0105    0.0075   -0.0139    0.0056   -0.0169    0.0065
          21    0.0338    0.0378    0.0739   -0.0134   -0.0189    0.0076    0.0962   -0.0520
          22   -0.0754   -0.0832    0.0362   -0.0238    0.0526   -0.0174    0.0496   -0.0240
          23    0.0307    0.0339    0.0715   -0.0374   -0.0214    0.0071    0.1029   -0.0504
          24    0.0417    0.0460    0.0127   -0.0155   -0.0291    0.0096    0.0139   -0.0063
          25    0.0667    0.0504   -0.0436    0.0777    0.0245   -0.0038    0.0160    0.0146
          26    0.0076   -0.0054    0.0395    0.0296   -0.0670    0.0881   -0.0412   -0.0685
          27    0.0276    0.0326   -0.0488    0.0158    0.0565   -0.0610    0.0387    0.0535
          28    0.0805    0.0665   -0.0455    0.1068    0.0054   -0.0007    0.0195    0.0082
          29    0.0124   -0.0144    0.0411    0.0414   -0.0682    0.0910   -0.0435   -0.0740
          30   -0.0235   -0.0359    0.0485   -0.0174   -0.0527    0.0620   -0.0412   -0.0529
          31    0.0423   -0.0398    0.0587    0.0347   -0.0644   -0.0643   -0.0402    0.0583
          32   -0.0522    0.0315   -0.0025   -0.0756   -0.0305   -0.0601   -0.0182    0.0385
          33    0.0275   -0.0326    0.0489    0.0157   -0.0567   -0.0612   -0.0388    0.0537
          34    0.0488   -0.0577    0.0613    0.0473   -0.0516   -0.0642   -0.0444    0.0577
          35   -0.0652    0.0362   -0.0024   -0.1043   -0.0451   -0.0647   -0.0175    0.0473
          36   -0.0236    0.0360   -0.0484   -0.0177    0.0525    0.0618    0.0411   -0.0527
          37   -0.0754    0.0832    0.0242    0.0092   -0.0526   -0.0174    0.0366    0.0181
          38    0.0307   -0.0339    0.0764    0.0434    0.0214    0.0071    0.1083    0.0529
          39    0.0417   -0.0460   -0.0125   -0.0154    0.0291    0.0096   -0.0136   -0.0062
          40   -0.0612    0.0683   -0.0334   -0.0083   -0.0342   -0.0137   -0.0448   -0.0231
          41    0.0249   -0.0278    0.0183   -0.0022    0.0139    0.0056    0.0206    0.0138
          42    0.0339   -0.0378   -0.0739   -0.0134    0.0189    0.0076   -0.0962   -0.0520
          43    0.0234   -0.0073    0.0143   -0.0425    0.0364    0.0562   -0.0248    0.0407
          44    0.0254   -0.0124    0.0156   -0.0441    0.0419    0.0634   -0.0244    0.0457
          45   -0.0638    0.0586    0.0734    0.0584    0.0721    0.0657   -0.0474    0.0634
          46    0.0713   -0.0677   -0.0597   -0.0880   -0.0330   -0.0337    0.0371   -0.0341
          47    0.0162    0.0149    0.0470   -0.0492    0.0795    0.1046   -0.0508    0.0847
          48   -0.0428    0.0334    0.0185    0.0572   -0.0057   -0.0077   -0.0040   -0.0020
          49   -0.0010   -0.0034    0.0008    0.0004    0.0034   -0.0043    0.0006   -0.0030
          50   -0.0343   -0.0137    0.0214    0.0611    0.0556   -0.0848   -0.0350   -0.0613
          51   -0.0639   -0.0586   -0.0734    0.0586   -0.0720    0.0655    0.0472    0.0632
          52    0.0396    0.0589    0.0755   -0.0285    0.0792   -0.0972   -0.0621   -0.0836
          53   -0.0614   -0.0366   -0.0082    0.0966    0.0337   -0.0511   -0.0103   -0.0365
          54   -0.0430   -0.0334   -0.0185    0.0574    0.0059   -0.0079    0.0039   -0.0022


   Root No.      33        34        35        36        37        38        39        40

                10 A1      8 B1      9 B2      9 A2     10 B2     10 A2     11 A1     11 B2  

                1352.3    1385.3    1397.5    1407.0    2650.7    2655.7    2664.7    2674.3
  
           1    0.0074   -0.0249    0.0024   -0.0135    0.0001   -0.0006   -0.0000   -0.0001
           2    0.0054    0.0102    0.0076    0.0055   -0.0058    0.0002    0.0121   -0.0126
           3    0.0094    0.0138   -0.0012    0.0075    0.0044    0.0003   -0.0090    0.0091
           4    0.0087   -0.0068   -0.0234   -0.0164    0.0001    0.0001    0.0004   -0.0006
           5    0.0004   -0.0107   -0.0110   -0.0094    0.0001   -0.0001    0.0003    0.0004
           6   -0.0001   -0.0041    0.0001   -0.0031   -0.0093    0.0132    0.0060    0.0063
           7    0.0059    0.0026    0.0090    0.0051   -0.0000   -0.0001    0.0001    0.0007
           8   -0.0064    0.0124   -0.0242   -0.0182    0.0001    0.0001   -0.0005   -0.0001
           9   -0.0001   -0.0040   -0.0002    0.0031    0.0093   -0.0132    0.0060   -0.0063
          10    0.0015   -0.0249    0.0036    0.0135   -0.0041    0.0006   -0.0085   -0.0087
          11   -0.0090    0.0101    0.0071   -0.0055   -0.0041   -0.0002   -0.0086   -0.0091
          12    0.0093    0.0138    0.0012   -0.0075   -0.0044   -0.0003   -0.0090   -0.0091
          13   -0.0058   -0.0029   -0.0168    0.0096    0.0070    0.0098    0.0042   -0.0050
          14   -0.0016   -0.0123   -0.0137    0.0122   -0.0028   -0.0040   -0.0022    0.0022
          15    0.0063    0.0042    0.0141   -0.0112    0.0054    0.0078    0.0037   -0.0031
          16   -0.0030    0.0065    0.0024    0.0017   -0.0070   -0.0098    0.0045    0.0051
          17    0.0052    0.0108   -0.0215    0.0155    0.0029    0.0040   -0.0014   -0.0020
          18    0.0064    0.0042   -0.0141    0.0113   -0.0054   -0.0078    0.0037    0.0031
          19   -0.0595    0.0966    0.0178    0.0670    0.0212    0.0000   -0.0458    0.0506
          20    0.0177   -0.0393   -0.0011   -0.0273    0.0531   -0.0000   -0.1157    0.1291
          21   -0.1205   -0.0534    0.0330   -0.0370   -0.0007   -0.0000    0.0025   -0.0036
          22   -0.0599    0.0736    0.0079    0.0505   -0.0284   -0.0013    0.0513   -0.0459
          23   -0.1248   -0.0300    0.0215   -0.0206    0.0238    0.0005   -0.0409    0.0353
          24   -0.0163   -0.0407   -0.0017   -0.0279   -0.0689    0.0007    0.1229   -0.1090
          25   -0.0226    0.0712    0.0747    0.0682   -0.0294    0.0427    0.0156    0.0230
          26    0.0282    0.0211    0.0584    0.0404    0.0429   -0.0622   -0.0237   -0.0335
          27   -0.0301    0.0144   -0.0051    0.0017    0.0606   -0.0883   -0.0319   -0.0487
          28   -0.0235    0.0389    0.0746    0.0570    0.0320   -0.0434   -0.0209   -0.0165
          29    0.0302    0.0118    0.0585    0.0440   -0.0473    0.0630    0.0333    0.0220
          30    0.0325   -0.0130    0.0052    0.0006    0.0690   -0.0918   -0.0479   -0.0310
          31   -0.0359    0.0360   -0.0124   -0.0204    0.0510   -0.0741    0.0277   -0.0399
          32   -0.0042   -0.0650    0.0940    0.0766    0.0102   -0.0148    0.0061   -0.0080
          33   -0.0302    0.0142    0.0054   -0.0015   -0.0605    0.0882   -0.0318    0.0487
          34   -0.0379    0.0196   -0.0124   -0.0099   -0.0559    0.0750   -0.0381    0.0271
          35   -0.0052   -0.0356    0.0940    0.0713   -0.0112    0.0144   -0.0090    0.0041
          36    0.0325   -0.0131   -0.0049   -0.0004   -0.0691    0.0920   -0.0480    0.0310
          37    0.0446    0.0736    0.0095   -0.0505    0.0369    0.0013    0.0651    0.0573
          38    0.1311   -0.0300    0.0209    0.0206   -0.0030   -0.0005   -0.0070   -0.0072
          39   -0.0159   -0.0407    0.0017    0.0279    0.0689   -0.0007    0.1229    0.1090
          40   -0.0547    0.0966   -0.0134   -0.0670    0.0220   -0.0000    0.0483    0.0542
          41    0.0293   -0.0393    0.0118    0.0273    0.0528    0.0000    0.1147    0.1276
          42   -0.1205   -0.0534   -0.0330    0.0370    0.0009    0.0000    0.0028    0.0040
          43   -0.0121    0.0382    0.0605   -0.0486   -0.0581   -0.0847   -0.0305    0.0465
          44   -0.0139    0.0347    0.0642   -0.0485    0.0547    0.0795    0.0298   -0.0432
          45   -0.0433   -0.0553   -0.0350    0.0397   -0.0002   -0.0004    0.0004    0.0009
          46    0.0351    0.0366    0.0528   -0.0427   -0.0380   -0.0502   -0.0274    0.0159
          47   -0.0350    0.0127    0.0675   -0.0499   -0.0184   -0.0245   -0.0134    0.0087
          48   -0.0079   -0.0179   -0.0410    0.0296   -0.0790   -0.1057   -0.0540    0.0373
          49    0.0011    0.0031    0.0017    0.0009    0.0798    0.1161   -0.0427   -0.0634
          50    0.0185   -0.0514    0.0881   -0.0685   -0.0016   -0.0025    0.0001    0.0017
          51   -0.0432   -0.0554    0.0352   -0.0399    0.0002    0.0005    0.0003   -0.0010
          52    0.0496    0.0172    0.0094   -0.0043    0.0141    0.0185   -0.0101   -0.0052
          53    0.0004   -0.0346    0.0850   -0.0655   -0.0400   -0.0529    0.0289    0.0174
          54   -0.0079   -0.0180    0.0412   -0.0297    0.0789    0.1056   -0.0539   -0.0372


   Root No.      41        42        43        44        45        46        47        48

                 9 B1     12 A1     12 B2     13 A1     11 A2     10 B1     13 B2     14 A1  

                2682.4    2689.4    2742.5    2743.7    2744.3    2744.8    2747.5    2749.4
  
           1   -0.0005    0.0005   -0.0035   -0.0041   -0.0025   -0.0023    0.0057   -0.0051
           2    0.0002    0.0071   -0.0042   -0.0047    0.0010    0.0009    0.0038   -0.0029
           3    0.0003   -0.0044   -0.0032   -0.0041    0.0014    0.0013    0.0075   -0.0071
           4    0.0002    0.0007    0.0018    0.0027   -0.0044   -0.0063    0.0039   -0.0050
           5   -0.0001   -0.0000   -0.0062   -0.0045    0.0093    0.0068   -0.0049    0.0037
           6    0.0143   -0.0105   -0.0007   -0.0011    0.0001    0.0002    0.0011   -0.0015
           7    0.0002    0.0005   -0.0056    0.0051    0.0096   -0.0093   -0.0062   -0.0062
           8   -0.0001   -0.0004   -0.0032    0.0014    0.0036   -0.0005   -0.0008    0.0008
           9    0.0143   -0.0105    0.0006   -0.0011   -0.0001    0.0001   -0.0011   -0.0015
          10   -0.0005   -0.0046   -0.0005    0.0003    0.0025   -0.0023   -0.0014   -0.0016
          11    0.0002   -0.0054   -0.0055    0.0063   -0.0010    0.0009    0.0067    0.0057
          12    0.0003   -0.0044    0.0032   -0.0041   -0.0014    0.0013   -0.0075   -0.0071
          13   -0.0106   -0.0083    0.0007   -0.0019    0.0015   -0.0032    0.0010    0.0015
          14    0.0044    0.0031   -0.0058    0.0042   -0.0082    0.0055   -0.0037   -0.0023
          15   -0.0085   -0.0056   -0.0029    0.0028   -0.0061    0.0067   -0.0050   -0.0058
          16   -0.0106   -0.0081   -0.0046   -0.0043   -0.0068   -0.0061   -0.0033    0.0027
          17    0.0043    0.0036   -0.0036   -0.0017   -0.0048   -0.0018   -0.0020    0.0006
          18   -0.0085   -0.0056    0.0029    0.0028    0.0061    0.0067    0.0050   -0.0058
          19    0.0000   -0.0306    0.0336    0.0356   -0.0009   -0.0000   -0.0337    0.0297
          20   -0.0000   -0.0792    0.0925    0.0984    0.0003    0.0000   -0.0952    0.0839
          21    0.0000    0.0030   -0.0073   -0.0082    0.0005    0.0000    0.0092   -0.0080
          22   -0.0015    0.0188    0.0255    0.0296    0.0006    0.0008   -0.0419    0.0392
          23    0.0006   -0.0124   -0.0280   -0.0317   -0.0003   -0.0003    0.0421   -0.0388
          24    0.0008    0.0432    0.0667    0.0769   -0.0004   -0.0004   -0.1067    0.0994
          25    0.0414   -0.0323   -0.0271   -0.0269    0.0405    0.0408   -0.0182    0.0187
          26   -0.0629    0.0493    0.0405    0.0398   -0.0599   -0.0603    0.0278   -0.0287
          27   -0.0869    0.0690    0.0646    0.0637   -0.0962   -0.0974    0.0454   -0.0473
          28   -0.0424    0.0285   -0.0232   -0.0208    0.0386    0.0385   -0.0243    0.0268
          29    0.0644   -0.0421    0.0351    0.0309   -0.0572   -0.0571    0.0347   -0.0392
          30   -0.0913    0.0588   -0.0581   -0.0525    0.0944    0.0949   -0.0564    0.0632
          31    0.0737   -0.0577    0.0478   -0.0472   -0.0709    0.0715    0.0325    0.0335
          32    0.0162   -0.0128    0.0101   -0.0098   -0.0147    0.0148    0.0072    0.0075
          33   -0.0868    0.0689   -0.0646    0.0637    0.0960   -0.0973   -0.0454   -0.0473
          34   -0.0753    0.0497    0.0411   -0.0365   -0.0675    0.0673    0.0415    0.0465
          35   -0.0160    0.0099    0.0086   -0.0074   -0.0136    0.0135    0.0076    0.0090
          36   -0.0914    0.0589    0.0581   -0.0525   -0.0945    0.0950    0.0565    0.0632
          37   -0.0015    0.0221   -0.0377    0.0433   -0.0006    0.0008    0.0592    0.0550
          38    0.0006   -0.0045   -0.0020    0.0017    0.0003   -0.0003    0.0004   -0.0000
          39    0.0008    0.0432   -0.0667    0.0770    0.0003   -0.0004    0.1068    0.0995
          40    0.0000    0.0336    0.0407   -0.0435    0.0009   -0.0000   -0.0426   -0.0375
          41   -0.0000    0.0780    0.0896   -0.0951   -0.0003    0.0000   -0.0916   -0.0807
          42   -0.0000    0.0032    0.0076   -0.0085   -0.0005   -0.0000   -0.0095   -0.0083
          43    0.0827    0.0654   -0.0601    0.0594   -0.0895    0.0906   -0.0418   -0.0434
          44   -0.0799   -0.0629    0.0540   -0.0532    0.0801   -0.0808    0.0375    0.0388
          45    0.0003    0.0009   -0.0049    0.0048   -0.0074    0.0077   -0.0043   -0.0047
          46    0.0506    0.0319    0.0337   -0.0305    0.0543   -0.0547    0.0318    0.0358
          47    0.0261    0.0172    0.0116   -0.0098    0.0190   -0.0187    0.0116    0.0134
          48    0.1051    0.0687    0.0622   -0.0558    0.1018   -0.1020    0.0619    0.0691
          49    0.1150    0.0908    0.0807    0.0796    0.1199    0.1213    0.0560   -0.0582
          50   -0.0008   -0.0008   -0.0035   -0.0036   -0.0055   -0.0057   -0.0025    0.0027
          51    0.0004    0.0010    0.0050    0.0048    0.0075    0.0079    0.0044   -0.0048
          52    0.0177    0.0107   -0.0159   -0.0148   -0.0254   -0.0258   -0.0145    0.0162
          53   -0.0543   -0.0348    0.0321    0.0285    0.0518    0.0519    0.0307   -0.0348
          54    0.1049    0.0686   -0.0621   -0.0558   -0.1017   -0.1018   -0.0618    0.0691


           MASS-WEIGHTED COORDINATE ANALYSIS (NORMAL COORDINATES)


   Root No.       1         2         3         4         5         6         7         8

                 1 A2      1 B2      1 A1      2 A1      2 A2      2 B2      1 B1      3 A1  

                 -67.4     200.5     278.7     451.5     453.2     595.1     800.5     804.5
  
           1    0.0603    0.0360    0.0442   -0.2053   -0.2240    0.1939   -0.0370    0.0427
           2   -0.0246   -0.1492   -0.2858   -0.3703    0.0913    0.1846    0.0151    0.1582
           3   -0.0334    0.1750    0.2911   -0.0986    0.1239    0.2145    0.0204   -0.0394
           4    0.0557    0.0490    0.0345   -0.2409   -0.1419    0.1393    0.0496    0.1362
           5    0.0338    0.0599   -0.0070    0.0689    0.3903   -0.2237   -0.0420    0.0291
           6    0.3219   -0.2464   -0.1950    0.1399    0.0312    0.0220    0.2018   -0.1580
           7   -0.0158    0.0066    0.0298   -0.2205    0.3745   -0.2559    0.0646    0.0771
           8    0.0640    0.0764   -0.0190    0.1191    0.1795   -0.0622   -0.0053   -0.1157
           9   -0.3218    0.2466   -0.1952    0.1401   -0.0302   -0.0221    0.2020   -0.1583
          10   -0.0603   -0.1299    0.2317    0.1126    0.2240   -0.0089   -0.0369   -0.0802
          11    0.0246   -0.0808    0.1722    0.4085   -0.0913    0.2681    0.0151   -0.1427
          12    0.0334   -0.1754    0.2916   -0.0972   -0.1239   -0.2138    0.0205   -0.0399
          13    0.2007    0.2253   -0.1676    0.2503    0.0578    0.0406   -0.1256   -0.2106
          14   -0.1394   -0.0127    0.0618   -0.0728   -0.3557   -0.1830    0.0301    0.0016
          15    0.2195    0.1258   -0.0860   -0.1202   -0.2088   -0.1865   -0.1682    0.0008
          16   -0.2406   -0.1696   -0.1629    0.2298   -0.2904   -0.1576   -0.1106   -0.1515
          17    0.0415    0.1490    0.0738   -0.1229   -0.2142   -0.1027    0.0669    0.1463
          18   -0.2197   -0.1255   -0.0858   -0.1203    0.2079    0.1857   -0.1682    0.0011
          19    0.0213    0.0775    0.0985   -0.0063    0.0295   -0.0605   -0.0287    0.1327
          20   -0.0087   -0.0592   -0.1044   -0.1184   -0.0120    0.0838    0.0117    0.0077
          21   -0.0118    0.1837    0.2552    0.0758   -0.0163   -0.1711    0.0158    0.2344
          22    0.0801   -0.0596   -0.0705   -0.1034   -0.1120    0.1659    0.0748   -0.0884
          23   -0.0326   -0.1775   -0.2432   -0.2001    0.0456    0.2858   -0.0305   -0.1708
          24   -0.0443    0.0230    0.0517   -0.0396    0.0620    0.0892   -0.0414   -0.0341
          25    0.0856   -0.0560   -0.0648    0.0328   -0.0846   -0.0385   -0.1233    0.1157
          26   -0.1245    0.1498    0.0425    0.0017    0.0958   -0.0085    0.2176   -0.2101
          27    0.2083   -0.1879   -0.1209    0.0977   -0.0006   -0.0670   -0.1715    0.1473
          28   -0.0405    0.1093    0.1194   -0.1023   -0.0475    0.1325    0.1389   -0.0911
          29    0.1542   -0.0993   -0.0324    0.0795    0.1053   -0.1162   -0.2434    0.1732
          30    0.2068   -0.1846   -0.1195    0.0981    0.0093   -0.0745   -0.1697    0.1362
          31   -0.1480    0.1447   -0.0759    0.0222    0.1275    0.0216   -0.2402    0.2295
          32   -0.0284    0.0673    0.0151   -0.0244    0.0092   -0.0332   -0.0686    0.0686
          33   -0.2085    0.1882   -0.1210    0.0977    0.0008    0.0672   -0.1720    0.1478
          34    0.1370   -0.1477    0.1081   -0.1288    0.1076   -0.1761    0.2698   -0.1864
          35    0.0824    0.0051   -0.0602    0.0146    0.0420    0.0096    0.0770   -0.0603
          36   -0.2064    0.1844   -0.1196    0.0980   -0.0091    0.0745   -0.1691    0.1358
          37   -0.0801   -0.0817    0.1199    0.0662    0.1120    0.0818    0.0748    0.0565
          38    0.0326   -0.1685    0.2229    0.2155   -0.0456    0.3204   -0.0305    0.1840
          39    0.0443   -0.0236    0.0524   -0.0389   -0.0619   -0.0883   -0.0414   -0.0335
          40   -0.0213   -0.0965    0.1433    0.0783   -0.0295    0.1017   -0.0286    0.0891
          41    0.0087    0.0125    0.0048    0.0888    0.0120    0.0171    0.0117   -0.0991
          42    0.0118   -0.1838    0.2553    0.0762    0.0163    0.1713    0.0159    0.2342
          43    0.1193    0.1268   -0.0552    0.0519    0.0401    0.0242    0.0810    0.0666
          44    0.0401    0.0745    0.0069   -0.0365   -0.0774   -0.0343    0.1335    0.1350
          45    0.2245    0.1982   -0.1324    0.0812   -0.0935    0.0654    0.2600    0.2378
          46    0.1587    0.1944   -0.1619    0.1279    0.0222    0.1243    0.1813    0.1356
          47   -0.2029   -0.1343    0.0499   -0.0901   -0.0949   -0.1128   -0.2608   -0.1915
          48    0.0429   -0.0047    0.0297   -0.0440   -0.0627   -0.0918   -0.0802   -0.0423
          49   -0.0569   -0.0381   -0.0441    0.0626   -0.0829   -0.0413   -0.0359   -0.0472
          50    0.1127    0.1425    0.0343   -0.0105   -0.0275   -0.0073   -0.1528   -0.1437
          51   -0.2242   -0.1978   -0.1323    0.0813    0.0933   -0.0657    0.2595    0.2374
          52   -0.2553   -0.2329   -0.1506    0.1545   -0.0823   -0.1680    0.3121    0.2309
          53   -0.0337    0.0401    0.0777   -0.0251   -0.0524    0.0063    0.0596    0.0420
          54   -0.0433    0.0046    0.0298   -0.0439    0.0624    0.0916   -0.0797   -0.0419


   Root No.       9        10        11        12        13        14        15        16

                 4 A1      3 A2      3 B2      2 B1      4 B2      5 A1      3 B1      5 B2  

                 895.1     953.5     954.4     971.0     972.4    1010.7    1126.3    1149.4
  
           1    0.1322   -0.0765    0.0970    0.1969    0.1737    0.1679    0.2992   -0.1223
           2    0.3302    0.0312    0.3238   -0.0802    0.2542   -0.0098   -0.1220    0.0735
           3   -0.0051    0.0423   -0.0632   -0.1089    0.1269    0.3104   -0.1653   -0.2753
           4   -0.1107    0.0754    0.1206   -0.0375   -0.2919   -0.1981   -0.2979    0.1246
           5    0.2754   -0.0005   -0.1749    0.3683    0.0281    0.1582   -0.0997   -0.0532
           6    0.1182    0.2738   -0.1419    0.0269    0.1195   -0.0845   -0.0298    0.2939
           7   -0.2721   -0.0539   -0.2087   -0.2846    0.2283   -0.2522   -0.1430   -0.1259
           8   -0.1186    0.0532   -0.0410   -0.2369   -0.1838    0.0265    0.2799    0.0500
           9    0.1177   -0.2737    0.1418    0.0259   -0.1198   -0.0845   -0.0293   -0.2938
          10   -0.1374    0.0765    0.1573    0.1969    0.0540    0.1260    0.2991    0.1385
          11   -0.3280   -0.0312    0.2990   -0.0802    0.3036   -0.1112   -0.1219   -0.0339
          12   -0.0058   -0.0423    0.0642   -0.1088   -0.1260    0.3104   -0.1656    0.2753
          13    0.1197    0.1569    0.1586    0.0095   -0.2737    0.0412   -0.1844   -0.1479
          14   -0.2791   -0.0951   -0.1906    0.3490    0.0207   -0.0936   -0.1465    0.0590
          15   -0.0991    0.2167   -0.0616    0.1262    0.1578   -0.2469    0.2101   -0.2818
          16    0.2811   -0.1784   -0.2469   -0.2376    0.2102    0.0953   -0.0293    0.1466
          17    0.1149    0.0425   -0.0252   -0.2563   -0.1764    0.0381    0.2331   -0.0622
          18   -0.0987   -0.2168    0.0610    0.1252   -0.1580   -0.2468    0.2109    0.2816
          19    0.1483   -0.0600    0.1709    0.2862    0.0905   -0.0672   -0.1844    0.0493
          20    0.0481    0.0244    0.0361   -0.1166    0.0301    0.0266    0.0751   -0.0004
          21    0.2322    0.0332    0.2824   -0.1583    0.1415   -0.1414    0.1021    0.0894
          22   -0.0792    0.1720   -0.1034   -0.0321   -0.0344    0.1271    0.1533   -0.0970
          23   -0.1412   -0.0701   -0.1885    0.0131   -0.0814    0.1909   -0.0625   -0.1313
          24   -0.0394   -0.0951   -0.0482    0.0177   -0.0023    0.0890   -0.0847   -0.0787
          25   -0.0716   -0.1936    0.1277    0.0473   -0.2562   -0.0860    0.1541    0.0020
          26    0.1424    0.1123   -0.1296    0.1358   -0.0421   -0.0950    0.1305    0.1768
          27   -0.0475   -0.1073    0.0663   -0.0187   -0.0305    0.0549   -0.0174   -0.0709
          28   -0.0197    0.2455   -0.0825    0.0071   -0.0339    0.0679   -0.0275    0.0810
          29   -0.0443   -0.0889   -0.0191    0.0297   -0.0733    0.2149   -0.0036   -0.1684
          30   -0.0414   -0.1043    0.0387   -0.0259   -0.0305    0.0559   -0.0176   -0.0660
          31   -0.1508    0.2168   -0.1818   -0.0612    0.1535    0.0050    0.0187    0.1223
          32   -0.0510   -0.0556   -0.0031   -0.1301   -0.2095    0.1282   -0.2010    0.1275
          33   -0.0477    0.1074   -0.0664   -0.0191    0.0301    0.0553   -0.0180    0.0715
          34    0.0169   -0.2377    0.0456   -0.0157   -0.0271   -0.1020   -0.0171   -0.1758
          35    0.0459    0.1080   -0.0713   -0.0262   -0.0762   -0.2010    0.0220   -0.0638
          36   -0.0412    0.1043   -0.0387   -0.0259    0.0302    0.0552   -0.0176    0.0656
          37    0.0421   -0.1720   -0.0581   -0.0321   -0.0324   -0.0431    0.1533   -0.0227
          38    0.1565    0.0700   -0.2072    0.0131   -0.0822   -0.2255   -0.0625   -0.1619
          39   -0.0388    0.0951    0.0475    0.0177    0.0020    0.0884   -0.0848    0.0782
          40    0.0716    0.0600   -0.0964    0.2862   -0.0434   -0.0667   -0.1845   -0.0354
          41   -0.1386   -0.0244    0.1462   -0.1166    0.0852    0.0286    0.0751    0.0344
          42    0.2321   -0.0332   -0.2821   -0.1583   -0.1413   -0.1413    0.1019   -0.0894
          43   -0.0103    0.0279    0.0136    0.0644   -0.1484    0.1105    0.1315    0.0804
          44   -0.1087   -0.0441   -0.0827    0.1288   -0.0865    0.0849    0.1398    0.1446
          45   -0.1255   -0.2427   -0.1746    0.0174    0.1971   -0.0031   -0.0652    0.0946
          46   -0.0119   -0.2235   -0.0850    0.0284   -0.0098   -0.0333   -0.0051    0.0771
          47    0.0573    0.0799   -0.0181    0.0210   -0.0833   -0.2292   -0.0129   -0.1668
          48   -0.0253    0.1507    0.0334    0.0189    0.0206    0.0172    0.0298   -0.0742
          49    0.0689   -0.0511   -0.0678   -0.0442    0.0457    0.0195   -0.0038    0.0439
          50    0.0848   -0.0126   -0.0500   -0.1371   -0.1651   -0.1383   -0.1918    0.1598
          51   -0.1253    0.2426    0.1742    0.0169   -0.1975   -0.0035   -0.0656   -0.0942
          52   -0.0485    0.2157    0.0480    0.0055   -0.0513    0.1366    0.0054   -0.1719
          53   -0.0329   -0.0990   -0.0723   -0.0349   -0.0663    0.1868    0.0127   -0.0654
          54   -0.0256   -0.1507   -0.0336    0.0188   -0.0208    0.0178    0.0300    0.0738


   Root No.      17        18        19        20        21        22        23        24

                 4 A2      4 B1      6 A1      5 A2      6 B2      6 A2      5 B1      7 A1  

                1156.4    1163.1    1173.2    1183.1    1209.2    1211.0    1244.1    1245.9
  
           1   -0.3013   -0.0323    0.0937   -0.0321   -0.0994   -0.1998    0.1549   -0.1406
           2    0.1228    0.0132    0.1957    0.0131    0.0197    0.0814   -0.0631   -0.0478
           3    0.1666    0.0178    0.0254    0.0177   -0.1943    0.1105   -0.0856   -0.2191
           4    0.2468    0.0268   -0.2236   -0.0144    0.0791    0.1723   -0.1611    0.1377
           5   -0.0341   -0.1130   -0.3311    0.0554   -0.0248   -0.0729   -0.2076    0.0886
           6   -0.1315   -0.0084    0.0323    0.0016   -0.0416    0.1453    0.0793    0.1054
           7   -0.2002    0.0982    0.0721    0.0491   -0.0740   -0.1739    0.0301    0.0361
           8    0.1480    0.0620    0.3928    0.0295    0.0376    0.0689    0.2608   -0.1598
           9    0.1317   -0.0081    0.0335   -0.0015    0.0414   -0.1453    0.0800    0.1051
          10    0.3013   -0.0322   -0.0700    0.0321    0.0845    0.1998    0.1548   -0.0667
          11   -0.1228    0.0131   -0.2055   -0.0131   -0.0561   -0.0814   -0.0631    0.1332
          12   -0.1666    0.0178    0.0247   -0.0177    0.1942   -0.1105   -0.0857   -0.2187
          13   -0.2528    0.0071    0.2168    0.0024    0.0786    0.0086   -0.1938   -0.0226
          14    0.0365   -0.1049    0.3339   -0.0504   -0.0246   -0.0016   -0.1942   -0.1360
          15    0.1188   -0.0501   -0.0465   -0.0270   -0.0427    0.2367    0.0104    0.1375
          16    0.2062    0.0785   -0.0788   -0.0371   -0.0733   -0.0070   -0.0025    0.0789
          17   -0.1505    0.0701   -0.3900   -0.0344    0.0373    0.0056    0.2743    0.1125
          18   -0.1190   -0.0498   -0.0477    0.0268    0.0429   -0.2367    0.0112    0.1379
          19   -0.2209    0.1074    0.0561   -0.3574    0.0075    0.1421    0.2533    0.0003
          20    0.0900   -0.0437    0.0120    0.1456    0.0014   -0.0579   -0.1032   -0.0101
          21    0.1221   -0.0594    0.0927    0.1976    0.0125   -0.0786   -0.1400    0.0079
          22   -0.0563   -0.3088   -0.0582    0.2684   -0.0505   -0.2682   -0.2612   -0.0391
          23    0.0229    0.1258   -0.1089   -0.1093   -0.0466    0.1093    0.1064   -0.0269
          24    0.0311    0.1707   -0.0250   -0.1484   -0.0569    0.1483    0.1444   -0.0510
          25    0.0191    0.1908   -0.1927    0.1909   -0.2326    0.1687   -0.1420   -0.2859
          26   -0.0889    0.1183   -0.1151    0.1741   -0.1813    0.1712   -0.0749   -0.1557
          27    0.0258   -0.0134   -0.0151   -0.0141   -0.0073   -0.0209   -0.0058   -0.0006
          28    0.1437   -0.2633   -0.0161   -0.1637    0.2947   -0.1096    0.1694    0.2429
          29    0.1845   -0.1926   -0.0163   -0.0714    0.1984   -0.1627    0.0712    0.0967
          30    0.0444    0.0045    0.0220    0.0108   -0.0083    0.0019    0.0071   -0.0159
          31   -0.0758    0.0536   -0.0570   -0.0145    0.0392   -0.0007   -0.0490   -0.0952
          32   -0.0501   -0.2180    0.2171    0.2580   -0.2923    0.2403    0.1529    0.3114
          33   -0.0260   -0.0139   -0.0146    0.0148    0.0064    0.0216   -0.0054    0.0002
          34    0.0266   -0.0533   -0.0001    0.0670   -0.0716   -0.0356    0.0711    0.1058
          35    0.2325    0.3218    0.0229   -0.1655    0.3479   -0.1929   -0.1694   -0.2390
          36   -0.0437    0.0054    0.0220   -0.0112    0.0091   -0.0025    0.0067   -0.0164
          37    0.0564   -0.3088    0.0347   -0.2684    0.0033    0.2682   -0.2612   -0.0091
          38   -0.0230    0.1258    0.1185    0.1093   -0.0687   -0.1093    0.1064    0.0467
          39   -0.0312    0.1707   -0.0247    0.1484    0.0567   -0.1483    0.1444   -0.0508
          40    0.2209    0.1074    0.0316    0.3574   -0.0044   -0.1421    0.2532    0.0072
          41   -0.0900   -0.0437   -0.0481   -0.1456    0.0062    0.0579   -0.1032    0.0070
          42   -0.1221   -0.0594    0.0926   -0.1976   -0.0125    0.0786   -0.1401    0.0079
          43    0.0201    0.1504    0.1297   -0.1591   -0.1711   -0.1495   -0.0982    0.2067
          44    0.0727    0.1349    0.1411   -0.1872   -0.2067   -0.1791   -0.0930    0.1883
          45    0.0568   -0.0988   -0.1178    0.0812    0.1228    0.0615    0.0868   -0.1667
          46   -0.0863   -0.2013    0.0292    0.1241    0.2252    0.0959    0.1143   -0.1826
          47   -0.2082   -0.2181    0.0109    0.0877    0.2270    0.1683    0.0939   -0.1215
          48    0.0768    0.1354    0.0058   -0.0945   -0.1550   -0.0309   -0.1092    0.1430
          49    0.0366    0.0131   -0.0059   -0.0173   -0.0223   -0.0185   -0.0051    0.0160
[...]
 FREQ.       800.46        C  3 --  H 11          +10.0% ( 51.8%)     5.0%
 T-DIPOLE    0.3385        C  6 --  H 17          +10.0% ( 51.8%)     5.0%
 TRAVEL      0.1595        C  2 --  H  9          +10.0% ( 51.7%)     4.8%
 RED. MASS   0.1780        C  5 --  H 15          +10.0% ( 51.7%)     4.9%
 EFF. MASS   3.3106

 VIBRATION    8    3A1      ATOM PAIR        ENERGY CONTRIBUTION    RADIAL
 FREQ.       804.51        C  6 --  H 17           +7.4% ( 45.8%)    11.1%
 T-DIPOLE    0.6410        C  3 --  H 11           +7.4% ( 45.8%)    11.1%
 TRAVEL      0.1453        C  2 --  H  9           +7.4% ( 45.8%)    10.9%
 RED. MASS   0.1658        C  5 --  H 15           +7.4% ( 45.8%)    10.9%
 EFF. MASS   3.9673

 VIBRATION    9    4A1      ATOM PAIR        ENERGY CONTRIBUTION    RADIAL
 FREQ.       895.09        C  2 --  C  3           +7.7% ( 51.7%)   100.0%
 T-DIPOLE    0.0398        C  5 --  C  6           +7.7% ( 51.7%)   100.0%
 TRAVEL      0.0879        C  4 --  C  5           +7.5% ( 51.0%)    76.4%
 RED. MASS   0.9016        C  1 --  C  2           +7.5% ( 51.0%)    76.4%
 EFF. MASS   9.7461

 VIBRATION   10    3A2      ATOM PAIR        ENERGY CONTRIBUTION    RADIAL
 FREQ.       953.54        C  5 --  C  6           +7.8% ( 43.5%)     0.0%
 T-DIPOLE    0.0000        C  2 --  C  3           +7.8% ( 43.5%)     0.0%
 TRAVEL      0.1180        C  6 --  H 18           +7.6% ( 42.9%)    22.6%
 RED. MASS   0.3584        C  2 --  H 10           +7.6% ( 42.9%)    22.8%
 EFF. MASS   5.0807

 VIBRATION   11    3B2      ATOM PAIR        ENERGY CONTRIBUTION    RADIAL
 FREQ.       954.44        C  1 --  H  7           +8.7% ( 48.4%)    35.3%
 T-DIPOLE    0.3885        C  4 --  H 14           +8.7% ( 48.4%)    35.4%
 TRAVEL      0.0992        C  1 --  H  8           +8.4% ( 47.7%)     4.8%
 RED. MASS   0.5762        C  4 --  H 13           +8.4% ( 47.7%)     4.8%
 EFF. MASS   7.1740

 VIBRATION   12    2B1      ATOM PAIR        ENERGY CONTRIBUTION    RADIAL
 FREQ.       970.99        C  5 --  C  6          +11.3% ( 59.4%)   100.0%
 T-DIPOLE    0.4527        C  2 --  C  3          +11.3% ( 59.4%)   100.0%
 TRAVEL      0.0846        C  1 --  C  6           +6.9% ( 46.5%)    19.8%
 RED. MASS   1.0215        C  1 --  C  2           +6.9% ( 46.5%)    20.0%
 EFF. MASS   9.7024

 VIBRATION   13    4B2      ATOM PAIR        ENERGY CONTRIBUTION    RADIAL
 FREQ.       972.40        C  1 --  C  6           +8.3% ( 50.4%)    81.1%
 T-DIPOLE    0.5943        C  3 --  C  4           +8.3% ( 50.4%)    81.2%
 TRAVEL      0.0874        C  4 --  C  5           +8.3% ( 50.4%)    80.9%
 RED. MASS   0.7995        C  1 --  C  2           +8.3% ( 50.4%)    80.9%
 EFF. MASS   9.0902

 VIBRATION   14    5A1      ATOM PAIR        ENERGY CONTRIBUTION    RADIAL
 FREQ.      1010.71        C  1 --  C  6           +8.4% ( 46.7%)    42.0%
 T-DIPOLE    0.0480        C  3 --  C  4           +8.4% ( 46.7%)    42.0%
 TRAVEL      0.0943        C  1 --  C  2           +8.4% ( 46.7%)    42.1%
 RED. MASS   0.6401        C  4 --  C  5           +8.4% ( 46.7%)    42.1%
 EFF. MASS   7.5112

 VIBRATION   15    3B1      ATOM PAIR        ENERGY CONTRIBUTION    RADIAL
 FREQ.      1126.26        C  1 --  C  6           +8.3% ( 47.8%)    95.0%
 T-DIPOLE    0.1605        C  3 --  C  4           +8.3% ( 47.8%)    95.0%
 TRAVEL      0.0836        C  1 --  C  2           +8.3% ( 47.8%)    95.0%
 RED. MASS   0.9081        C  4 --  C  5           +8.3% ( 47.8%)    95.0%
 EFF. MASS   8.5849

 VIBRATION   16    5B2      ATOM PAIR        ENERGY CONTRIBUTION    RADIAL
 FREQ.      1149.35        C  1 --  C  2           +7.8% ( 41.2%)    15.2%
 T-DIPOLE    0.1139        C  4 --  C  5           +7.8% ( 41.2%)    15.2%
 TRAVEL      0.0878        C  3 --  C  4           +7.8% ( 41.2%)    15.1%
 RED. MASS   0.7627        C  1 --  C  6           +7.8% ( 41.2%)    15.2%
 EFF. MASS   7.6088

 VIBRATION   17    4A2      ATOM PAIR        ENERGY CONTRIBUTION    RADIAL
 FREQ.      1156.38        C  4 --  C  5           +9.2% ( 45.0%)    72.6%
 T-DIPOLE    0.0000        C  3 --  C  4           +9.2% ( 45.0%)    72.5%
 TRAVEL      0.0873        C  1 --  C  2           +9.2% ( 45.0%)    72.6%
 RED. MASS   0.7551        C  1 --  C  6           +9.2% ( 45.0%)    72.5%
 EFF. MASS   7.6572

 VIBRATION   18    4B1      ATOM PAIR        ENERGY CONTRIBUTION    RADIAL
 FREQ.      1163.10        C  1 --  H  8          +12.4% ( 38.1%)     0.0%
 T-DIPOLE    0.2472        C  4 --  H 13          +12.4% ( 38.1%)     0.0%
 TRAVEL      0.1903        C  2 --  H 10          +10.2% ( 34.7%)     2.4%
 RED. MASS   0.1052        C  5 --  H 16          +10.2% ( 34.7%)     2.4%
 EFF. MASS   1.5990        C  6 --  H 18          +10.2% ( 34.7%)     2.4%
                           C  3 --  H 12          +10.2% ( 34.7%)     2.4%

 VIBRATION   19    6A1      ATOM PAIR        ENERGY CONTRIBUTION    RADIAL
 FREQ.      1173.25        C  5 --  C  6          +12.4% ( 55.0%)   100.0%
 T-DIPOLE    0.1222        C  2 --  C  3          +12.4% ( 55.0%)   100.0%
 TRAVEL      0.0790        C  4 --  C  5           +7.0% ( 41.3%)    26.6%
 RED. MASS   1.3057        C  1 --  C  2           +7.0% ( 41.3%)    26.6%
 EFF. MASS   9.2163

 VIBRATION   20    5A2      ATOM PAIR        ENERGY CONTRIBUTION    RADIAL
 FREQ.      1183.14        C  4 --  H 14          +17.9% ( 43.5%)     0.0%
 T-DIPOLE    0.0000        C  1 --  H  7          +17.9% ( 43.5%)     0.0%
 TRAVEL      0.2241        C  1 --  H  8          +11.0% ( 34.0%)     0.0%
 RED. MASS   0.1167        C  4 --  H 13          +11.0% ( 34.0%)     0.0%
 EFF. MASS   1.1357

 VIBRATION   21    6B2      ATOM PAIR        ENERGY CONTRIBUTION    RADIAL
 FREQ.      1209.19        C  2 --  H 10          +10.6% ( 35.7%)     0.2%
 T-DIPOLE    0.0072        C  5 --  H 16          +10.6% ( 35.7%)     0.2%
 TRAVEL      0.1568        C  3 --  H 12          +10.6% ( 35.7%)     0.2%
 RED. MASS   0.1539        C  6 --  H 18          +10.6% ( 35.7%)     0.2%
 EFF. MASS   2.2646

 VIBRATION   22    6A2      ATOM PAIR        ENERGY CONTRIBUTION    RADIAL
 FREQ.      1210.99        C  4 --  H 13           +7.3% ( 33.9%)     0.0%
 T-DIPOLE    0.0000        C  1 --  H  8           +7.3% ( 33.9%)     0.0%
 TRAVEL      0.1106        C  1 --  C  6           +5.9% ( 30.4%)    84.5%
 RED. MASS   0.2783        C  1 --  C  2           +5.9% ( 30.4%)    84.7%
 EFF. MASS   4.5418

 VIBRATION   23    5B1      ATOM PAIR        ENERGY CONTRIBUTION    RADIAL
 FREQ.      1244.09        C  1 --  H  8           +8.5% ( 37.1%)     0.0%
 T-DIPOLE    0.0680        C  4 --  H 13           +8.5% ( 37.1%)     0.0%
 TRAVEL      0.1064        C  2 --  C  3           +7.5% ( 34.8%)   100.0%
 RED. MASS   0.3483        C  5 --  C  6           +7.5% ( 34.8%)   100.0%
 EFF. MASS   4.7766

 VIBRATION   24    7A1      ATOM PAIR        ENERGY CONTRIBUTION    RADIAL
 FREQ.      1245.85        C  3 --  H 11           +9.8% ( 37.7%)     1.7%
 T-DIPOLE    0.1005        C  6 --  H 17           +9.8% ( 37.7%)     1.7%
 TRAVEL      0.1168        C  5 --  H 15           +9.8% ( 37.7%)     1.8%
 RED. MASS   0.2512        C  2 --  H  9           +9.8% ( 37.7%)     1.8%
 EFF. MASS   3.9485

 VIBRATION   25    6B1      ATOM PAIR        ENERGY CONTRIBUTION    RADIAL
 FREQ.      1308.65        C  4 --  H 13          +10.1% ( 28.9%)     0.0%
 T-DIPOLE    0.2114        C  1 --  H  8          +10.1% ( 28.9%)     0.0%
 TRAVEL      0.1929        C  3 --  H 12           +8.8% ( 27.0%)     0.0%
 RED. MASS   0.0837        C  6 --  H 18           +8.8% ( 27.0%)     0.0%
 EFF. MASS   1.3891

 VIBRATION   26    7A2      ATOM PAIR        ENERGY CONTRIBUTION    RADIAL
 FREQ.      1309.70        C  4 --  H 13          +11.5% ( 37.1%)     0.0%
 T-DIPOLE    0.0000        C  1 --  H  8          +11.5% ( 37.1%)     0.0%
 TRAVEL      0.1408        C  1 --  H  7           +8.6% ( 32.0%)     0.0%
 RED. MASS   0.1194        C  4 --  H 14           +8.6% ( 32.0%)     0.0%
 EFF. MASS   2.5949

 VIBRATION   27    7B2      ATOM PAIR        ENERGY CONTRIBUTION    RADIAL
 FREQ.      1320.17        C  4 --  H 13           +7.9% ( 25.6%)     1.8%
 T-DIPOLE    0.5394        C  1 --  H  8           +7.9% ( 25.6%)     1.7%
 TRAVEL      0.1777        C  4 --  H 14           +7.8% ( 25.5%)     1.8%
 RED. MASS   0.0831        C  1 --  H  7           +7.8% ( 25.5%)     1.8%
 EFF. MASS   1.6151

 VIBRATION   28    8A1      ATOM PAIR        ENERGY CONTRIBUTION    RADIAL
 FREQ.      1321.00        C  3 --  H 12          +12.8% ( 37.2%)     0.3%
 T-DIPOLE    0.1679        C  6 --  H 18          +12.8% ( 37.2%)     0.3%
 TRAVEL      0.1601        C  5 --  H 16          +12.8% ( 37.2%)     0.3%
 RED. MASS   0.1212        C  2 --  H 10          +12.8% ( 37.2%)     0.3%
 EFF. MASS   1.9902

 VIBRATION   29    8A2      ATOM PAIR        ENERGY CONTRIBUTION    RADIAL
 FREQ.      1331.48        C  2 --  H  9           +7.9% ( 28.0%)     0.0%
 T-DIPOLE    0.0000        C  5 --  H 15           +7.9% ( 28.0%)     0.0%
 TRAVEL      0.1500        C  6 --  H 17           +7.9% ( 28.0%)     0.0%
 RED. MASS   0.1243        C  3 --  H 11           +7.9% ( 28.0%)     0.0%
 EFF. MASS   2.2509

 VIBRATION   30    7B1      ATOM PAIR        ENERGY CONTRIBUTION    RADIAL
 FREQ.      1334.76        C  3 --  H 12          +11.4% ( 30.4%)     2.2%
 T-DIPOLE    0.5022        C  6 --  H 18          +11.4% ( 30.4%)     2.2%
 TRAVEL      0.1796        C  2 --  H 10          +11.4% ( 30.4%)     2.1%
 RED. MASS   0.1177        C  5 --  H 16          +11.4% ( 30.4%)     2.1%
 EFF. MASS   1.5677        C  2 --  H  9          +10.8% ( 29.6%)     1.8%
                           C  5 --  H 15          +10.8% ( 29.6%)     1.8%
                           C  6 --  H 17          +10.8% ( 29.6%)     1.7%
                           C  3 --  H 11          +10.8% ( 29.6%)     1.7%

 VIBRATION   31    8B2      ATOM PAIR        ENERGY CONTRIBUTION    RADIAL
 FREQ.      1338.61        C  6 --  H 18           +9.8% ( 28.3%)     2.2%
 T-DIPOLE    0.0395        C  2 --  H 10           +9.8% ( 28.3%)     2.2%
 TRAVEL      0.1633        C  3 --  H 12           +9.8% ( 28.3%)     2.3%
 RED. MASS   0.0918        C  5 --  H 16           +9.8% ( 28.3%)     2.2%
 EFF. MASS   1.6112

 VIBRATION   32    9A1      ATOM PAIR        ENERGY CONTRIBUTION    RADIAL
 FREQ.      1338.64        C  1 --  H  8          +14.9% ( 35.9%)     1.5%
 T-DIPOLE    0.0416        C  4 --  H 13          +14.9% ( 35.9%)     1.5%
 TRAVEL      0.1767        C  1 --  H  7          +12.5% ( 32.9%)     3.8%
 RED. MASS   0.1229        C  4 --  H 14          +12.5% ( 32.9%)     3.8%
 EFF. MASS   1.8880

 VIBRATION   33   10A1      ATOM PAIR        ENERGY CONTRIBUTION    RADIAL
 FREQ.      1352.31        C  4 --  H 13          +18.1% ( 37.6%)     1.7%
 T-DIPOLE    0.5099        C  1 --  H  8          +18.1% ( 37.6%)     1.6%
 TRAVEL      0.1797        C  1 --  H  7          +17.2% ( 36.6%)     1.1%
 RED. MASS   0.1566        C  4 --  H 14          +17.2% ( 36.6%)     1.0%
 EFF. MASS   1.5456

 VIBRATION   34    8B1      ATOM PAIR        ENERGY CONTRIBUTION    RADIAL
 FREQ.      1385.52        C  1 --  H  7          +14.7% ( 43.4%)     0.0%
 T-DIPOLE    0.6666        C  4 --  H 14          +14.7% ( 43.4%)     0.0%
 TRAVEL      0.1207        C  1 --  H  8          +10.7% ( 37.0%)     0.0%
 RED. MASS   0.3444        C  4 --  H 13          +10.7% ( 37.0%)     0.0%
 EFF. MASS   3.3400

 VIBRATION   35    9B2      ATOM PAIR        ENERGY CONTRIBUTION    RADIAL
 FREQ.      1397.56        C  6 --  H 18           +9.3% ( 34.7%)     0.2%
 T-DIPOLE    0.6431        C  3 --  H 12           +9.3% ( 34.7%)     0.2%
 TRAVEL      0.1182        C  5 --  H 16           +9.3% ( 34.7%)     0.2%
 RED. MASS   0.3100        C  2 --  H 10           +9.3% ( 34.7%)     0.2%
 EFF. MASS   3.4526

 VIBRATION   36    9A2      ATOM PAIR        ENERGY CONTRIBUTION    RADIAL
 FREQ.      1407.12        C  3 --  H 11           +7.7% ( 30.3%)     0.1%
 T-DIPOLE    0.0000        C  2 --  H  9           +7.7% ( 30.3%)     0.1%
 TRAVEL      0.1317        C  5 --  H 15           +7.7% ( 30.3%)     0.1%
 RED. MASS   0.1899        C  6 --  H 17           +7.7% ( 30.3%)     0.1%
 EFF. MASS   2.7634

 VIBRATION   37   10B2      ATOM PAIR        ENERGY CONTRIBUTION    RADIAL
 FREQ.      2650.81        C  2 --  H 10          +10.3% ( 33.3%)    98.4%
 T-DIPOLE    0.1757        C  5 --  H 16          +10.3% ( 33.3%)    98.4%
 TRAVEL      0.1349        C  3 --  H 12          +10.3% ( 33.3%)    98.4%
 RED. MASS   0.0868        C  6 --  H 18          +10.3% ( 33.3%)    98.4%
 EFF. MASS   1.3984

 VIBRATION   38   10A2      ATOM PAIR        ENERGY CONTRIBUTION    RADIAL
 FREQ.      2655.85        C  6 --  H 18          +12.7% ( 36.9%)    98.2%
 T-DIPOLE    0.0000        C  3 --  H 12          +12.7% ( 36.9%)    98.2%
 TRAVEL      0.1340        C  5 --  H 16          +12.6% ( 36.9%)    98.3%
 RED. MASS   0.1237        C  2 --  H 10          +12.6% ( 36.9%)    98.3%
 EFF. MASS   1.4131        C  6 --  H 17          +11.9% ( 35.8%)    98.0%
                           C  3 --  H 11          +11.9% ( 35.8%)    98.0%
                           C  5 --  H 15          +11.9% ( 35.8%)    98.0%
                           C  2 --  H  9          +11.9% ( 35.8%)    98.0%

 VIBRATION   39   11A1      ATOM PAIR        ENERGY CONTRIBUTION    RADIAL
 FREQ.      2664.75        C  1 --  H  8          +20.5% ( 46.9%)    98.4%
 T-DIPOLE    0.0159        C  4 --  H 13          +20.5% ( 46.9%)    98.4%
 TRAVEL      0.1334        C  1 --  H  7          +16.7% ( 42.3%)    98.0%
 RED. MASS   0.1518        C  4 --  H 14          +16.7% ( 42.3%)    98.0%
 EFF. MASS   1.4217

 VIBRATION   40   11B2      ATOM PAIR        ENERGY CONTRIBUTION    RADIAL
 FREQ.      2674.36        C  4 --  H 14          +20.4% ( 46.6%)    98.3%
 T-DIPOLE    0.3763        C  1 --  H  7          +20.4% ( 46.6%)    98.3%
 TRAVEL      0.1320        C  1 --  H  8          +16.3% ( 41.7%)    97.8%
 RED. MASS   0.1507        C  4 --  H 13          +16.3% ( 41.7%)    97.8%
 EFF. MASS   1.4465

 VIBRATION   41    9B1      ATOM PAIR        ENERGY CONTRIBUTION    RADIAL
 FREQ.      2682.55        C  2 --  H 10          +12.8% ( 36.8%)    98.2%
 T-DIPOLE    0.3941        C  5 --  H 16          +12.8% ( 36.8%)    98.2%
 TRAVEL      0.1312        C  3 --  H 12          +12.8% ( 36.8%)    98.1%
 RED. MASS   0.1263        C  6 --  H 18          +12.8% ( 36.8%)    98.1%
 EFF. MASS   1.4604        C  2 --  H  9          +11.8% ( 35.3%)    97.7%
                           C  5 --  H 15          +11.8% ( 35.3%)    97.7%
                           C  3 --  H 11          +11.8% ( 35.3%)    97.8%
                           C  6 --  H 17          +11.8% ( 35.3%)    97.8%

 VIBRATION   42   12A1      ATOM PAIR        ENERGY CONTRIBUTION    RADIAL
 FREQ.      2689.49        C  5 --  H 15          +10.5% ( 33.2%)    98.2%
 T-DIPOLE    0.8562        C  2 --  H  9          +10.5% ( 33.2%)    98.2%
 TRAVEL      0.1305        C  6 --  H 17          +10.5% ( 33.2%)    98.3%
 RED. MASS   0.0919        C  3 --  H 11          +10.5% ( 33.2%)    98.3%
 EFF. MASS   1.4728

 VIBRATION   43   12B2      ATOM PAIR        ENERGY CONTRIBUTION    RADIAL
 FREQ.      2742.53        C  1 --  H  7          +12.7% ( 35.1%)    98.5%
 T-DIPOLE    0.5924        C  4 --  H 14          +12.7% ( 35.1%)    98.5%
 TRAVEL      0.1424        C  3 --  H 11           +8.3% ( 28.3%)    97.1%
 RED. MASS   0.0859        C  6 --  H 17           +8.3% ( 28.3%)    97.1%
 EFF. MASS   1.2116

 VIBRATION   44   13A1      ATOM PAIR        ENERGY CONTRIBUTION    RADIAL
 FREQ.      2743.82        C  4 --  H 14          +14.1% ( 36.9%)    98.0%
 T-DIPOLE    0.0957        C  1 --  H  7          +14.1% ( 36.9%)    98.1%
 TRAVEL      0.1430        C  4 --  H 13          +10.0% ( 31.1%)    95.6%
 RED. MASS   0.0921        C  1 --  H  8          +10.0% ( 31.1%)    95.6%
 EFF. MASS   1.2024

 VIBRATION   45   11A2      ATOM PAIR        ENERGY CONTRIBUTION    RADIAL
 FREQ.      2744.44        C  5 --  H 15          +12.8% ( 35.2%)    96.5%
 T-DIPOLE    0.0000        C  2 --  H  9          +12.8% ( 35.2%)    96.5%
 TRAVEL      0.1399        C  3 --  H 11          +12.8% ( 35.2%)    96.4%
 RED. MASS   0.1206        C  6 --  H 17          +12.8% ( 35.2%)    96.4%
 EFF. MASS   1.2562        C  5 --  H 16          +12.0% ( 34.1%)    96.1%
                           C  2 --  H 10          +12.0% ( 34.1%)    96.1%
                           C  3 --  H 12          +12.0% ( 34.1%)    96.2%
                           C  6 --  H 18          +12.0% ( 34.1%)    96.2%

 VIBRATION   46   10B1      ATOM PAIR        ENERGY CONTRIBUTION    RADIAL
 FREQ.      2744.90        C  6 --  H 17          +12.9% ( 35.3%)    97.1%
 T-DIPOLE    0.5852        C  2 --  H  9          +12.9% ( 35.3%)    97.2%
 TRAVEL      0.1426        C  3 --  H 11          +12.9% ( 35.3%)    97.1%
 RED. MASS   0.1208        C  5 --  H 15          +12.9% ( 35.3%)    97.2%
 EFF. MASS   1.2075        C  6 --  H 18          +11.9% ( 33.8%)    96.9%
                           C  2 --  H 10          +11.9% ( 33.8%)    96.8%
                           C  3 --  H 12          +11.9% ( 33.8%)    96.9%
                           C  5 --  H 16          +11.9% ( 33.8%)    96.8%

 VIBRATION   47   13B2      ATOM PAIR        ENERGY CONTRIBUTION    RADIAL
 FREQ.      2747.50        C  4 --  H 13          +17.4% ( 41.2%)    97.3%
 T-DIPOLE    0.0021        C  1 --  H  8          +17.4% ( 41.2%)    97.3%
 TRAVEL      0.1379        C  4 --  H 14          +11.8% ( 33.8%)    94.2%
 RED. MASS   0.1086        C  1 --  H  7          +11.8% ( 33.8%)    94.2%
 EFF. MASS   1.2918

 VIBRATION   48   14A1      ATOM PAIR        ENERGY CONTRIBUTION    RADIAL
 FREQ.      2749.48        C  1 --  H  8          +15.7% ( 39.0%)    97.6%
 T-DIPOLE    0.5676        C  4 --  H 13          +15.7% ( 39.0%)    97.7%
 TRAVEL      0.1392        C  1 --  H  7           +9.4% ( 30.2%)    93.3%
 RED. MASS   0.0972        C  4 --  H 14           +9.4% ( 30.2%)    93.3%
 EFF. MASS   1.2660

           FORCE CONSTANT IN INTERNAL COORDINATES (Millidynes/A)

    ATOM   CHEMICAL  BOND LENGTH      BOND ANGLE     TWIST ANGLE
   NUMBER   SYMBOL  FORCE CONSTANT  FORCE CONSTANT  FORCE CONSTANT

      1       C        0.000000        0.000000        0.000000
      2       C        7.042526        0.000000        0.000000
      3       C       10.792181       29.791925        0.000000
      4       C        7.053169       29.884205        6.843449
      5       C        6.268977        8.038983       10.143120
      6       C        6.273131        8.021184       10.157024
      7       H        4.109812        0.997467        0.771782
      8       H        4.111150        1.004530        0.791005
      9       H        4.110670        1.004006        0.767315
     10       H        4.105681        1.007899        0.786450
     11       H        4.110142        1.015888        0.753305
     12       H        4.106281        1.031897        0.762564
     13       H        4.111235        1.003831        0.791587
     14       H        4.109731        0.997990        0.771445
     15       H        4.110591        1.004071        0.767413
     16       H        4.105770        1.007884        0.786344
     17       H        4.110217        1.004139        0.767713
     18       H        4.106211        1.008492        0.785329

 **********************
 *                    *
 * JOB ENDED NORMALLY *
 *                    *
 **********************



 TOTAL JOB TIME:             0.78 SECONDS

 == MOPAC DONE ==
