 *******************************************************************************
 ** Site#: 37037        For non-commercial use only           Version 21.153W **
 *******************************************************************************
 ** Cite this program as: MOPAC2016, Version: 21.153W, James J. P. Stewart,   **
 ** Stewart Computational Chemistry, web: HTTP://OpenMOPAC.net. Days left: 364**
 *******************************************************************************
 **                                                                           **
 **                                MOPAC2016                                  **
 **                                                                           **
 *******************************************************************************

                              PM7 CALCULATION RESULTS

 *******************************************************************************
 *  CALCULATION DONE:                                Thu Jun  3 15:52:41 2021  *
 *  GEO_DAT    - DATA SET GEOMETRY IS IN FILE "Saddle_TS.arc"
 *  TS         - USE EF ROUTINE FOR TS SEARCH
 *  T=         - A TIME OF 172800.0 SECONDS REQUESTED
 *  DUMP=N     - RESTART FILE WRITTEN EVERY 7200.0 SECONDS REQUESTED
 *  GNORM      - EXIT WHEN GRADIENT NORM DROPS BELOW 0.500
 *******************************************************************************
TS gnorm=0.5   geo_dat="Saddle_TS.arc"
 Refine transition state for Cyclohexane boat <=> Cyclohexane chair

   ATOM                 CHEMICAL                   X               Y               Z
  NUMBER                 SYMBOL               (ANGSTROMS)     (ANGSTROMS)     (ANGSTROMS)
 
     1       C(HETATM    1  C1  HET A   1)   -0.01472211  *  -0.07960754  *  -0.05246990  *
     2       C(HETATM    2  C2  HET A   1)    1.51468310  *  -0.08553186  *  -0.04991316  *
     3       C(HETATM    3  C3  HET A   1)    2.04347973  *   1.34761057  *  -0.11442367  *
     4       C(HETATM    4  C4  HET A   1)    1.38076677  *   2.31069665  *   0.88414426  *
     5       C(HETATM    5  C5  HET A   1)    0.15937607  *   1.81590826  *   1.68415401  *
     6       C(HETATM    6  C6  HET A   1)   -0.53443880  *   0.51137584  *   1.25828145  *
     7       H(HETATM    7 1H1  HET A   1)   -0.40419439  *  -1.10647095  *  -0.18611617  *
     8       H(HETATM    8 2H1  HET A   1)   -0.39091994  *   0.50559083  *  -0.91427537  *
     9       H(HETATM    9 1H2  HET A   1)    1.89732597  *  -0.66515638  *  -0.91103808  *
    10       H(HETATM   10 2H2  HET A   1)    1.89306921  *  -0.59333981  *   0.85564778  *
    11       H(HETATM   11 1H3  HET A   1)    1.89747108  *   1.73841037  *  -1.14112768  *
    12       H(HETATM   12 2H3  HET A   1)    3.13750181  *   1.34176048  *   0.05502659  *
    13       H(HETATM   13 1H4  HET A   1)    1.08828084  *   3.22891237  *   0.33544310  *
    14       H(HETATM   14 2H4  HET A   1)    2.14786375  *   2.64310452  *   1.61371143  *
    15       H(HETATM   15 1H5  HET A   1)   -0.59329188  *   2.62910289  *   1.68572638  *
    16       H(HETATM   16 2H5  HET A   1)    0.46854500  *   1.70434835  *   2.74355895  *
    17       H(HETATM   17 1H6  HET A   1)   -1.62372870  *   0.68389373  *   1.17643811  *
    18       H(HETATM   18 2H6  HET A   1)   -0.41478217  *  -0.23833879  *   2.06493030  *
 

 General Reference for PM7:
 "Optimization of Parameters for Semiempirical Methods VI: More Modifications to the 
 NDDO Approximations and Re-optimization of Parameters", J. J. P. Stewart, J. Mol. Mod., 1:32, 19 (2013)
 https://link.springer.com/article/10.1007/s00894-012-1667-x

           Empirical Formula: C6 H12  =    18 atoms



      MOLECULAR POINT GROUP   :   C1  


      RHF CALCULATION, NO. OF DOUBLY OCCUPIED LEVELS = 18


          Transition state refinement using EF

          HESSIAN CALCULATED NUMERICALLY

 CYCLE:     1 TIME:   0.250 TIME LEFT:  2.00D  GRAD.:     3.698 HEAT: -19.96065
 CYCLE:     2 TIME:   0.000 TIME LEFT:  2.00D  GRAD.:     0.696 HEAT: -20.04873
 CYCLE:     3 TIME:   0.000 TIME LEFT:  2.00D  GRAD.:     1.440 HEAT: -20.04829
 CYCLE:     4 TIME:   0.016 TIME LEFT:  2.00D  GRAD.:     1.805 HEAT: -20.04834
 CYCLE:     5 TIME:   0.000 TIME LEFT:  2.00D  GRAD.:     0.490 HEAT: -20.05154

     GRADIENT =  0.49004 IS LESS THAN CUTOFF =  0.50000



 -------------------------------------------------------------------------------
 TS gnorm=0.5
 Refine transition state for Cyclohexane boat <=> Cyclohexane chair



     GEOMETRY OPTIMISED USING EIGENVECTOR FOLLOWING (TS).     
     SCF FIELD WAS ACHIEVED                                   


                              PM7 CALCULATION
                                                       MOPAC2016 (Version: 21.153W)
                                                       Thu Jun  3 15:52:41 2021
                                                       No. of days remaining = 364




          FINAL HEAT OF FORMATION =        -20.05154 KCAL/MOL =     -83.89563 KJ/MOL


          TOTAL ENERGY            =       -899.38526 EV
          ELECTRONIC ENERGY       =      -4320.00159 EV  POINT GROUP:     C2  
          CORE-CORE REPULSION     =       3420.61633 EV
          COSMO AREA              =        135.00 SQUARE ANGSTROMS
          COSMO VOLUME            =        128.89 CUBIC ANGSTROMS

          GRADIENT NORM           =          0.49004 = 0.11550 PER ATOM
          IONIZATION POTENTIAL    =         10.516227 EV
          HOMO LUMO ENERGIES (EV) =        -10.516  4.030
          NO. OF FILLED LEVELS    =         18
          MOLECULAR WEIGHT        =         84.1608

          MOLECULAR DIMENSIONS (Angstroms)

            Atom       Atom       Distance
            H    17    H    12     4.94405
            H     9    H    16     4.18439
            H    13    H    10     3.40104


          SCF CALCULATIONS        =         60
 
          WALL-CLOCK TIME         =          0.312 SECONDS
          COMPUTATION TIME        =          1.156 SECONDS




   ATOM                 CHEMICAL                   X               Y               Z
  NUMBER                 SYMBOL               (ANGSTROMS)     (ANGSTROMS)     (ANGSTROMS)
 
     1       C(HETATM    1  C1  HET A   1)   -0.01718339  *  -0.05792110  *  -0.06477006  *
     2       C(HETATM    2  C2  HET A   1)    1.51179070  *  -0.09191806  *  -0.04178095  *
     3       C(HETATM    3  C3  HET A   1)    2.04206106  *   1.33996478  *  -0.11426424  *
     4       C(HETATM    4  C4  HET A   1)    1.37862453  *   2.30655183  *   0.88251288  *
     5       C(HETATM    5  C5  HET A   1)    0.15140590  *   1.82080082  *   1.68060828  *
     6       C(HETATM    6  C6  HET A   1)   -0.51797833  *   0.49830950  *   1.26808637  *
     7       H(HETATM    7 1H1  HET A   1)   -0.42964135  *  -1.06825464  *  -0.23726932  *
     8       H(HETATM    8 2H1  HET A   1)   -0.37450033  *   0.56750000  *  -0.90399615  *
     9       H(HETATM    9 1H2  HET A   1)    1.90358987  *  -0.68756312  *  -0.88557010  *
    10       H(HETATM   10 2H2  HET A   1)    1.86975252  *  -0.59049916  *   0.87807270  *
    11       H(HETATM   11 1H3  HET A   1)    1.89600455  *   1.72489315  *  -1.14275336  *
    12       H(HETATM   12 2H3  HET A   1)    3.13631257  *   1.33804730  *   0.04839323  *
    13       H(HETATM   13 1H4  HET A   1)    1.08817420  *   3.22123494  *   0.32775495  *
    14       H(HETATM   14 2H4  HET A   1)    2.14568249  *   2.63994292  *   1.60956496  *
    15       H(HETATM   15 1H5  HET A   1)   -0.61209050  *   2.62398423  *   1.65077419  *
    16       H(HETATM   16 2H5  HET A   1)    0.44356877  *   1.73781213  *   2.74695116  *
    17       H(HETATM   17 1H6  HET A   1)   -1.61479384  *   0.63872407  *   1.22380148  *
    18       H(HETATM   18 2H6  HET A   1)   -0.34745367  *  -0.25790323  *   2.06006373  *

                             CARTESIAN COORDINATES

   1    C       -0.017183392    -0.057921096    -0.064770055
   2    C        1.511790697    -0.091918055    -0.041780947
   3    C        2.042061057     1.339964784    -0.114264240
   4    C        1.378624529     2.306551829     0.882512881
   5    C        0.151405897     1.820800819     1.680608283
   6    C       -0.517978328     0.498309496     1.268086366
   7    H       -0.429641347    -1.068254643    -0.237269317
   8    H       -0.374500329     0.567500004    -0.903996151
   9    H        1.903589868    -0.687563116    -0.885570098
  10    H        1.869752521    -0.590499160     0.878072696
  11    H        1.896004554     1.724893153    -1.142753356
  12    H        3.136312574     1.338047299     0.048393231
  13    H        1.088174204     3.221234945     0.327754945
  14    H        2.145682492     2.639942919     1.609564958
  15    H       -0.612090502     2.623984231     1.650774193
  16    H        0.443568775     1.737812127     2.746951161
  17    H       -1.614793836     0.638724071     1.223801484
  18    H       -0.347453672    -0.257903226     2.060063727


           Empirical Formula: C6 H12  =    18 atoms



      MOLECULAR POINT GROUP   :   C2  


                  EIGENVALUES  
 -29.78826 -25.83844 -25.79844 -20.97796 -20.72655 -17.98180 -16.28638 -15.96062
 -14.80123 -14.10058 -13.34551 -12.73565 -12.64203 -11.95997 -11.80212 -10.87993
 -10.84722 -10.51623   4.03031   4.10627   4.59083   4.68402   4.79708   5.22995
   5.43643   5.66809   5.97904   5.99034   6.22393   6.33414   6.49979   6.70597
   6.77026   6.82716   6.83868   6.84266


              NET ATOMIC CHARGES AND DIPOLE CONTRIBUTIONS

  ATOM NO.                 TYPE                        CHARGE      No. of ELECS.   s-Pop       p-Pop       
    1          C(HETATM    1  C1  HET A   1)          -0.258600        4.2586     1.05641     3.20219
    2          C(HETATM    2  C2  HET A   1)          -0.258718        4.2587     1.05637     3.20235
    3          C(HETATM    3  C3  HET A   1)          -0.260055        4.2601     1.05749     3.20256
    4          C(HETATM    4  C4  HET A   1)          -0.259118        4.2591     1.05845     3.20067
    5          C(HETATM    5  C5  HET A   1)          -0.259104        4.2591     1.05854     3.20056
    6          C(HETATM    6  C6  HET A   1)          -0.260016        4.2600     1.05763     3.20239
    7          H(HETATM    7 1H1  HET A   1)           0.126704        0.8733     0.87330
    8          H(HETATM    8 2H1  HET A   1)           0.137878        0.8621     0.86212
    9          H(HETATM    9 1H2  HET A   1)           0.126718        0.8733     0.87328
   10          H(HETATM   10 2H2  HET A   1)           0.137584        0.8624     0.86242
   11          H(HETATM   11 1H3  HET A   1)           0.130383        0.8696     0.86962
   12          H(HETATM   12 2H3  HET A   1)           0.127456        0.8725     0.87254
   13          H(HETATM   13 1H4  HET A   1)           0.128098        0.8719     0.87190
   14          H(HETATM   14 2H4  HET A   1)           0.127295        0.8727     0.87271
   15          H(HETATM   15 1H5  HET A   1)           0.127348        0.8727     0.87265
   16          H(HETATM   16 2H5  HET A   1)           0.128117        0.8719     0.87188
   17          H(HETATM   17 1H6  HET A   1)           0.127402        0.8726     0.87260
   18          H(HETATM   18 2H6  HET A   1)           0.130627        0.8694     0.86937

          NET CHARGE ON RESIDUES

      Residue         Charge  Anion or
                              Cation?
      HET A   1       +0.000
 


 DIPOLE           X         Y         Z       TOTAL
 POINT-CHG.     0.001     0.069     0.041     0.080
 HYBRID         0.002     0.047     0.029     0.055
 SUM            0.003     0.116     0.070     0.136


          ATOMIC ORBITAL ELECTRON POPULATIONS

                   Atom                  s        px        py        pz   
   C(HETATM    1  C1  HET A   1)   1.05641   1.01720   1.12826   1.05673
   C(HETATM    2  C2  HET A   1)   1.05637   1.01651   1.03218   1.15366
   C(HETATM    3  C3  HET A   1)   1.05749   1.09819   1.01031   1.09406
   C(HETATM    4  C4  HET A   1)   1.05845   1.05419   1.07015   1.07633
   C(HETATM    5  C5  HET A   1)   1.05854   1.05374   1.05118   1.09564
   C(HETATM    6  C6  HET A   1)   1.05763   1.09953   1.04756   1.05530
   H(HETATM    7 1H1  HET A   1)   0.87330
   H(HETATM    8 2H1  HET A   1)   0.86212
   H(HETATM    9 1H2  HET A   1)   0.87328
   H(HETATM   10 2H2  HET A   1)   0.86242
   H(HETATM   11 1H3  HET A   1)   0.86962
   H(HETATM   12 2H3  HET A   1)   0.87254
   H(HETATM   13 1H4  HET A   1)   0.87190
   H(HETATM   14 2H4  HET A   1)   0.87271
   H(HETATM   15 1H5  HET A   1)   0.87265
   H(HETATM   16 2H5  HET A   1)   0.87188
   H(HETATM   17 1H6  HET A   1)   0.87260
   H(HETATM   18 2H6  HET A   1)   0.86937
 *******************************************************************************
 ** Site#: 37037        For non-commercial use only           Version 21.153W **
 *******************************************************************************
 ** Cite this program as: MOPAC2016, Version: 21.153W, James J. P. Stewart,   **
 ** Stewart Computational Chemistry, web: HTTP://OpenMOPAC.net. Days left: 364**
 *******************************************************************************
 **                                                                           **
 **                                MOPAC2016                                  **
 **                                                                           **
 *******************************************************************************

                              PM7 CALCULATION RESULTS

 *******************************************************************************
 *  CALCULATION DONE:                                Thu Jun  3 15:52:41 2021  *
 *  IRC=N      - INTRINSIC REACTION COORDINATE  1 DEFINED
 *  DRC        - DYNAMIC REACTION COORDINATE CALCULATION
 *  OLDGEO     - PREVIOUS GEOMETRY TO BE USED
 *  T=         - A TIME OF 172800.0 SECONDS REQUESTED
 *  DUMP=N     - RESTART FILE WRITTEN EVERY 7200.0 SECONDS REQUESTED
 *  CYCLES=    - DO A MAXIMUM OF 200 STEPS
 *  HTML       - WRITE HTML SCRIPT TO GENERATE ANIMATION USING JSMOL
 *             - TO DISPLAY IN PDB FORMAT, ADD "PDBOUT"
 *  T-PRIOR    - TIME TAKES PRIORITY IN DRC
 *******************************************************************************
oldgeo   IRC=1* HTML T-priority=1 DRC cycles=200
 Reaction path for Cyclohexane boat <=> Cyclohexane chair

   ATOM                 CHEMICAL                   X               Y               Z
  NUMBER                 SYMBOL               (ANGSTROMS)     (ANGSTROMS)     (ANGSTROMS)
 
     1       C(HETATM    1  C1  HET A   1)   -0.01718339  *  -0.05792110  *  -0.06477006  *
     2       C(HETATM    2  C2  HET A   1)    1.51179070  *  -0.09191806  *  -0.04178095  *
     3       C(HETATM    3  C3  HET A   1)    2.04206106  *   1.33996478  *  -0.11426424  *
     4       C(HETATM    4  C4  HET A   1)    1.37862453  *   2.30655183  *   0.88251288  *
     5       C(HETATM    5  C5  HET A   1)    0.15140590  *   1.82080082  *   1.68060828  *
     6       C(HETATM    6  C6  HET A   1)   -0.51797833  *   0.49830950  *   1.26808637  *
     7       H(HETATM    7 1H1  HET A   1)   -0.42964135  *  -1.06825464  *  -0.23726932  *
     8       H(HETATM    8 2H1  HET A   1)   -0.37450033  *   0.56750000  *  -0.90399615  *
     9       H(HETATM    9 1H2  HET A   1)    1.90358987  *  -0.68756312  *  -0.88557010  *
    10       H(HETATM   10 2H2  HET A   1)    1.86975252  *  -0.59049916  *   0.87807270  *
    11       H(HETATM   11 1H3  HET A   1)    1.89600455  *   1.72489315  *  -1.14275336  *
    12       H(HETATM   12 2H3  HET A   1)    3.13631257  *   1.33804730  *   0.04839323  *
    13       H(HETATM   13 1H4  HET A   1)    1.08817420  *   3.22123494  *   0.32775495  *
    14       H(HETATM   14 2H4  HET A   1)    2.14568249  *   2.63994292  *   1.60956496  *
    15       H(HETATM   15 1H5  HET A   1)   -0.61209050  *   2.62398423  *   1.65077419  *
    16       H(HETATM   16 2H5  HET A   1)    0.44356877  *   1.73781213  *   2.74695116  *
    17       H(HETATM   17 1H6  HET A   1)   -1.61479384  *   0.63872407  *   1.22380148  *
    18       H(HETATM   18 2H6  HET A   1)   -0.34745367  *  -0.25790323  *   2.06006373  *
 

 General Reference for PM7:
 "Optimization of Parameters for Semiempirical Methods VI: More Modifications to the 
 NDDO Approximations and Re-optimization of Parameters", J. J. P. Stewart, J. Mol. Mod., 1:32, 19 (2013)
 https://link.springer.com/article/10.1007/s00894-012-1667-x

           Empirical Formula: C6 H12  =    18 atoms



      MOLECULAR POINT GROUP   :   C2  


      RHF CALCULATION, NO. OF DOUBLY OCCUPIED LEVELS = 18



          HEAT OF FORMATION =     -20.051538 KCALS/MOLE


          GRADIENT NORM =   0.48880

          MOLECULAR WEIGHT =   84.16


          ESTIMATED TIME TO COMPLETE CALCULATION =        0.00 SECONDS

    FOR POINT-GROUP C2   THERE ARE   2 UNIQUE SYMMETRY FUNCTIONS.

 STEP:   1 TIME =     0.02 SECS, INTEGRAL =      0.02 TIME LEFT: 172799.98
 STEP:   2 TIME =     0.00 SECS, INTEGRAL =      0.02 TIME LEFT: 172799.98
 STEP:   3 TIME =     0.02 SECS, INTEGRAL =      0.03 TIME LEFT: 172799.97
 STEP:   4                       INTEGRAL =      0.03 TIME LEFT: 172799.97
 STEP:   5                       INTEGRAL =      0.03 TIME LEFT: 172799.97
 STEP:   6                       INTEGRAL =      0.03 TIME LEFT: 172799.97
 STEP:   7 TIME =     0.00 SECS, INTEGRAL =      0.03 TIME LEFT: 172799.97
 STEP:   8 TIME =     0.02 SECS, INTEGRAL =      0.05 TIME LEFT: 172799.95
 STEP:   9 TIME =     0.00 SECS, INTEGRAL =      0.05 TIME LEFT: 172799.95
 STEP:  10 TIME =     0.02 SECS, INTEGRAL =      0.06 TIME LEFT: 172799.94
 STEP:  11 TIME =     0.00 SECS, INTEGRAL =      0.06 TIME LEFT: 172799.94
 STEP:  12 TIME =     0.02 SECS, INTEGRAL =      0.08 TIME LEFT: 172799.92
 STEP:  13                       INTEGRAL =      0.08 TIME LEFT: 172799.92
 STEP:  14                       INTEGRAL =      0.08 TIME LEFT: 172799.92
 STEP:  15                       INTEGRAL =      0.08 TIME LEFT: 172799.92
 STEP:  16                       INTEGRAL =      0.08 TIME LEFT: 172799.92
 STEP:  17                       INTEGRAL =      0.08 TIME LEFT: 172799.92
 STEP:  18                       INTEGRAL =      0.08 TIME LEFT: 172799.92
 STEP:  19 TIME =     0.00 SECS, INTEGRAL =      0.08 TIME LEFT: 172799.92
 STEP:  20 TIME =     0.02 SECS, INTEGRAL =      0.09 TIME LEFT: 172799.91
 STEP:  21 TIME =     0.00 SECS, INTEGRAL =      0.09 TIME LEFT: 172799.91
 STEP:  22 TIME =     0.00 SECS, INTEGRAL =      0.09 TIME LEFT: 172799.91
 STEP:  23 TIME =     0.00 SECS, INTEGRAL =      0.09 TIME LEFT: 172799.91
 STEP:  24 TIME =     0.02 SECS, INTEGRAL =      0.11 TIME LEFT: 172799.89
 STEP:  25                       INTEGRAL =      0.11 TIME LEFT: 172799.89
 STEP:  26                       INTEGRAL =      0.11 TIME LEFT: 172799.89
 STEP:  27                       INTEGRAL =      0.11 TIME LEFT: 172799.89
 STEP:  28                       INTEGRAL =      0.11 TIME LEFT: 172799.89
 STEP:  29                       INTEGRAL =      0.11 TIME LEFT: 172799.89
 STEP:  30                       INTEGRAL =      0.11 TIME LEFT: 172799.89
 STEP:  31 TIME =     0.00 SECS, INTEGRAL =      0.11 TIME LEFT: 172799.89
 STEP:  32 TIME =     0.00 SECS, INTEGRAL =      0.11 TIME LEFT: 172799.89
 STEP:  33 TIME =     0.00 SECS, INTEGRAL =      0.11 TIME LEFT: 172799.89
 STEP:  34 TIME =     0.02 SECS, INTEGRAL =      0.12 TIME LEFT: 172799.88
 STEP:  35 TIME =     0.00 SECS, INTEGRAL =      0.12 TIME LEFT: 172799.88
 STEP:  36 TIME =     0.02 SECS, INTEGRAL =      0.14 TIME LEFT: 172799.86
 STEP:  37 TIME =     0.00 SECS, INTEGRAL =      0.14 TIME LEFT: 172799.86
 STEP:  38 TIME =     0.02 SECS, INTEGRAL =      0.16 TIME LEFT: 172799.84
 STEP:  39 TIME =     0.00 SECS, INTEGRAL =      0.16 TIME LEFT: 172799.84
 STEP:  40 TIME =     0.02 SECS, INTEGRAL =      0.17 TIME LEFT: 172799.83
 STEP:  41 TIME =     0.00 SECS, INTEGRAL =      0.17 TIME LEFT: 172799.83
 STEP:  42 TIME =     0.00 SECS, INTEGRAL =      0.17 TIME LEFT: 172799.83
 STEP:  43                       INTEGRAL =      0.17 TIME LEFT: 172799.83
 STEP:  44                       INTEGRAL =      0.17 TIME LEFT: 172799.83
 STEP:  45                       INTEGRAL =      0.17 TIME LEFT: 172799.83
 STEP:  46                       INTEGRAL =      0.17 TIME LEFT: 172799.83
 STEP:  47                       INTEGRAL =      0.17 TIME LEFT: 172799.83
 STEP:  48                       INTEGRAL =      0.17 TIME LEFT: 172799.83
 STEP:  49                       INTEGRAL =      0.17 TIME LEFT: 172799.83
 STEP:  50                       INTEGRAL =      0.17 TIME LEFT: 172799.83
 STEP:  51                       INTEGRAL =      0.17 TIME LEFT: 172799.83
 STEP:  52                       INTEGRAL =      0.17 TIME LEFT: 172799.83
 STEP:  53                       INTEGRAL =      0.17 TIME LEFT: 172799.83
 STEP:  54                       INTEGRAL =      0.17 TIME LEFT: 172799.83
           INITIAL VELOCITY IN DRC (Angstroms/Femtosecond)
         0.00053         0.00438        -0.00372
        -0.00052        -0.00190         0.00543
         0.01287        -0.00600         0.01371
        -0.02754         0.01604        -0.02971
         0.02746        -0.02263         0.02518
        -0.01278         0.01101        -0.01028
        -0.00193         0.00513        -0.00372
         0.00927         0.00321        -0.00911
         0.00192        -0.00173         0.00610
        -0.00939        -0.00711         0.00645
         0.06508        -0.01485         0.00104
         0.00591        -0.01937         0.06700
        -0.10226        -0.03688        -0.08095
        -0.03521         0.11759        -0.06416
         0.03714        -0.01846         0.13219
         0.09991        -0.09136        -0.00707
        -0.00523         0.05578        -0.04204
        -0.06544        -0.00265        -0.01306
 THE VIBRATIONAL FREQUENCY (  -217.57CM(-1)) IS TOO SMALL
 FOR ONE QUANTUM TO BE USED
 INSTEAD 0.3KCAL/MOLE WILL BE USED TO START THE IRC

 TIME PRIORITY, INTERVAL = 1.00 FEMTOSECONDS



 FEMTOSECONDS  POINT  POTENTIAL + KINETIC  =   TOTAL     ERROR    REF%   MOVEMENT
     0.000       1   -20.05154    0.30000   -19.75154   0.00000     1   %  0.0000
     1.000       1   -20.05184    0.29953   -19.75231  -0.00078     2   %  0.0408
     2.000       1   -20.05279    0.30010   -19.75269  -0.00115     3   %  0.0816
     3.000       1   -20.05439    0.30172   -19.75267  -0.00113     4   %  0.1225
     4.000       2   -20.05662    0.30437   -19.75225  -0.00071     5   %  0.1635
     5.000       3   -20.05965    0.30752   -19.75213  -0.00059     6   %  0.2046
     6.000       3   -20.06356    0.31166   -19.75189  -0.00036     7   %  0.2460
     7.000       4   -20.06847    0.31708   -19.75139   0.00014     8   %  0.2875
     8.000       4   -20.07398    0.32292   -19.75107   0.00047     9   %  0.3294
     9.000       5   -20.07984    0.32876   -19.75108   0.00046    10   %  0.3716
    10.000       5   -20.08682    0.33589   -19.75093   0.00061    11   %  0.4143
    11.000       6   -20.09499    0.34440   -19.75060   0.00094    12   %  0.4573
    12.000       6   -20.10418    0.35402   -19.75015   0.00138    13   %  0.5010
    13.000       7   -20.11478    0.36555   -19.74923   0.00230    14   %  0.5452
    14.000       7   -20.12558    0.37665   -19.74893   0.00261    15   %  0.5902
    15.000       8   -20.13557    0.38570   -19.74987   0.00167    16   %  0.6360
    16.000       8   -20.14776    0.39761   -19.75015   0.00139    17   %  0.6824
    17.000       9   -20.16288    0.41308   -19.74980   0.00174    18   %  0.7296
    18.000       9   -20.17876    0.43005   -19.74871   0.00283    19   %  0.7776
    19.000      10   -20.19646    0.45150   -19.74495   0.00659    20   %  0.8263
    20.000      10   -20.21284    0.46848   -19.74436   0.00718    21   %  0.8762
    22.000      12   -20.24503    0.49482   -19.75021   0.00133    22   %  0.9788
    23.000      12   -20.26881    0.51945   -19.74935   0.00219    23   %  1.0314
    24.000      13   -20.29987    0.55919   -19.74068   0.01087    24   %  1.0851
    25.000      14   -20.32625    0.58532   -19.74093   0.01061    25   %  1.1403
    26.000      15   -20.34509    0.59494   -19.75015   0.00139    26   %  1.1969
    27.000      16   -20.36216    0.61034   -19.75182  -0.00028    27   %  1.2547
    28.000      17   -20.39019    0.63913   -19.75106   0.00048    28   %  1.3137
    29.000      18   -20.43229    0.68299   -19.74931   0.00223    29   %  1.3741
    30.000      19   -20.47819    0.73041   -19.74778   0.00376    30   %  1.4359
    31.000      20   -20.51586    0.76619   -19.74967   0.00187    31   %  1.4993
    32.000      21   -20.54316    0.79156   -19.75161  -0.00006    32   %  1.5644
    33.000      23   -20.57164    0.81983   -19.75181  -0.00026    33   %  1.6311
    34.000      24   -20.61588    0.86492   -19.75096   0.00059    34   %  1.6994
    35.000      25   -20.67636    0.92680   -19.74956   0.00198    35   %  1.7693
    36.000      26   -20.73909    0.99037   -19.74872   0.00282    36   %  1.8412
    37.000      27   -20.79034    1.03978   -19.75056   0.00099    37   %  1.9152
    38.000      29   -20.82972    1.07803   -19.75169  -0.00014    38   %  1.9915
    39.000      30   -20.87404    1.12238   -19.75167  -0.00012    39   %  2.0699
    40.000      31   -20.93768    1.18724   -19.75044   0.00111    40   %  2.1504
    41.000      32   -21.01826    1.26949   -19.74878   0.00277    41   %  2.2327
    42.000      33   -21.09876    1.35071   -19.74805   0.00351    42   %  2.3172
    43.000      35   -21.16436    1.41332   -19.75105   0.00051    43   %  2.4037
    44.000      36   -21.21988    1.46810   -19.75178  -0.00023    44   %  2.4925
    45.000      38   -21.28386    1.53223   -19.75163  -0.00007    45   %  2.5833
    46.000      39   -21.37141    1.62091   -19.75050   0.00106    46   %  2.6761
    47.000      40   -21.47611    1.72696   -19.74915   0.00241    47   %  2.7712
    48.000      41   -21.57757    1.82871   -19.74886   0.00270    48   %  2.8687
    49.000      43   -21.66072    1.90945   -19.75127   0.00029    49   %  2.9688
    50.000      45   -21.73273    1.98100   -19.75173  -0.00017    50   %  3.0716
    51.000      46   -21.81621    2.06480   -19.75141   0.00015    51   %  3.1770
    52.000      48   -21.92507    2.17483   -19.75024   0.00133    52   %  3.2847
    53.000      49   -22.05001    2.30116   -19.74885   0.00271    53   %  3.3948
    54.000      50   -22.16670    2.41700   -19.74969   0.00187    54   %  3.5071
    55.000      52   -22.26202    2.51071   -19.75131   0.00026    55   %  3.6216
    56.000      53   -22.34726    2.59540   -19.75186  -0.00029    56   %  3.7384
    57.000      55   -22.44631    2.69486   -19.75145   0.00012    57   %  3.8571
    58.000      56   -22.57190    2.82190   -19.75001   0.00157    58   %  3.9779
    59.000      57   -22.70990    2.96142   -19.74848   0.00310    59   %  4.1008
    60.000      59   -22.83393    3.08399   -19.74994   0.00164    60   %  4.2261
    61.000      60   -22.93063    3.17917   -19.75146   0.00012    61   %  4.3539
    62.000      62   -23.01311    3.26133   -19.75178  -0.00020    62   %  4.4840
    63.000      64   -23.10939    3.35817   -19.75122   0.00036    63   %  4.6163
    64.000      65   -23.22997    3.48018   -19.74979   0.00180    64   %  4.7505
    65.000      66   -23.35604    3.60763   -19.74841   0.00318    65   %  4.8862
    66.000      68   -23.45962    3.70919   -19.75043   0.00116    66   %  5.0233
    67.000      70   -23.52975    3.77817   -19.75158   0.00002    67   %  5.1615
    68.000      71   -23.58381    3.83184   -19.75197  -0.00037    68   %  5.3007
    69.000      73   -23.65062    3.89926   -19.75136   0.00024    69   %  5.4406
    70.000      74   -23.73814    3.98835   -19.74979   0.00182    70   %  5.5812
    71.000      75   -23.82310    4.07479   -19.74831   0.00330    71   %  5.7224
    72.000      77   -23.87475    4.12386   -19.75089   0.00072    72   %  5.8644
    73.000      79   -23.88269    4.13098   -19.75171  -0.00010    73   %  6.0072
    74.000      80   -23.86940    4.11745   -19.75195  -0.00033    74   %  6.1505
    75.000      82   -23.86451    4.11333   -19.75118   0.00044    75   %  6.2938
    76.000      83   -23.87405    4.12442   -19.74963   0.00199    76   %  6.4366
    77.000      85   -23.87372    4.12467   -19.74905   0.00257    77   %  6.5785
    78.000      87   -23.83062    4.07955   -19.75108   0.00055    78   %  6.7190
    79.000      88   -23.73995    3.98805   -19.75190  -0.00027    79   %  6.8577
    80.000      90   -23.62755    3.87540   -19.75215  -0.00051    80   %  6.9942
    81.000      92   -23.52630    3.77498   -19.75132   0.00032    81   %  7.1283
    82.000      93   -23.43992    3.69028   -19.74965   0.00199    82   %  7.2599
    83.000      94   -23.33876    3.59029   -19.74847   0.00317    83   %  7.3888
    84.000      97   -23.19183    3.44039   -19.75144   0.00020    84   %  7.5151
    85.000      99   -22.99644    3.24453   -19.75191  -0.00027    85   %  7.6387
    86.000     100   -22.78524    3.03325   -19.75200  -0.00035    86   %  7.7591
    87.000     102   -22.59349    2.84229   -19.75120   0.00045    87   %  7.8758
    88.000     104   -22.42482    2.67502   -19.74981   0.00184    88   %  7.9882
    89.000     105   -22.24881    2.49910   -19.74971   0.00194    89   %  8.0958
    90.000     107   -22.03568    2.28421   -19.75147   0.00018    90   %  8.1980
    91.000     109   -21.78825    2.03613   -19.75213  -0.00047    91   %  8.2946
    92.000     111   -21.54350    1.79129   -19.75222  -0.00056    92   %  8.3852
    93.000     113   -21.33780    1.58658   -19.75123   0.00043    93   %  8.4697
    94.000     114   -21.17308    1.42353   -19.74955   0.00211    94   %  8.5480
    95.000     116   -21.01580    1.26640   -19.74940   0.00226    95   %  8.6204
    96.000     118   -20.83642    1.08486   -19.75157   0.00009    96   %  8.6869
    97.000     120   -20.64015    0.88807   -19.75209  -0.00043    97   %  8.7477
    98.000     122   -20.46762    0.71554   -19.75208  -0.00042    98   %  8.8027
    99.000     124   -20.35462    0.60354   -19.75107   0.00059    99   %  8.8516
   100.000     125   -20.29978    0.55016   -19.74961   0.00205   100   %  8.8942
   101.000     127   -20.26391    0.51383   -19.75008   0.00158   101   %  8.9303
   102.000     129   -20.21607    0.46442   -19.75166   0.00000   102   %  8.9596
   103.000     131   -20.16280    0.41064   -19.75217  -0.00051   103   %  8.9819
   104.000     133   -20.14403    0.39201   -19.75202  -0.00035   104   %  8.9973
   105.000     134   -20.19175    0.44086   -19.75089   0.00078   105   %  9.0057
   106.000     136   -20.29946    0.54999   -19.74947   0.00219   106   %  9.0074
   107.000     138   -20.42214    0.67166   -19.75048   0.00119   107   %  9.0031
   108.000     140   -20.52560    0.77404   -19.75156   0.00010   108   %  8.9933
   109.000     142   -20.61601    0.86399   -19.75202  -0.00035   109   %  8.9786
   110.000     144   -20.73364    0.98181   -19.75184  -0.00017   110   %  8.9591
   111.000     145   -20.90789    1.15711   -19.75078   0.00088   111   %  8.9349
   112.000     147   -21.12651    1.37724   -19.74927   0.00240   112   %  8.9058
   113.000     149   -21.33999    1.58918   -19.75081   0.00086   113   %  8.8719
   114.000     151   -21.51413    1.76244   -19.75169  -0.00002   114   %  8.8331
   115.000     153   -21.65798    1.90585   -19.75213  -0.00046   115   %  8.7890
   116.000     155   -21.81340    2.06149   -19.75191  -0.00023   116   %  8.7397
   117.000     157   -22.00964    2.25886   -19.75078   0.00089   117   %  8.6853
   118.000     158   -22.23095    2.48177   -19.74918   0.00250   118   %  8.6261
   119.000     160   -22.42879    2.67796   -19.75082   0.00086   119   %  8.5628
   120.000     162   -22.56900    2.81737   -19.75162   0.00006   120   %  8.4961
   121.000     165   -22.66443    2.91236   -19.75207  -0.00039   121   %  8.4264
   122.000     166   -22.76115    3.00929   -19.75185  -0.00017   122   %  8.3540
   123.000     168   -22.89118    3.14054   -19.75064   0.00105   123   %  8.2787
   124.000     170   -23.03614    3.28701   -19.74913   0.00256   124   %  8.2006
   125.000     172   -23.14793    3.39683   -19.75110   0.00059   125   %  8.1195
   126.000     174   -23.19564    3.44384   -19.75180  -0.00011   126   %  8.0354
   127.000     176   -23.19812    3.44588   -19.75224  -0.00054   127   %  7.9479
   128.000     178   -23.20500    3.45295   -19.75205  -0.00035   128   %  7.8570
   129.000     180   -23.24764    3.49667   -19.75097   0.00073   129   %  7.7627
   130.000     181   -23.30622    3.55671   -19.74951   0.00219   130   %  7.6656
   131.000     183   -23.33174    3.58068   -19.75106   0.00064   131   %  7.5663
   132.000     186   -23.29249    3.54067   -19.75182  -0.00011   132   %  7.4656
   133.000     188   -23.21006    3.45779   -19.75227  -0.00056   133   %  7.3638
   134.000     190   -23.13773    3.38568   -19.75205  -0.00034   134   %  7.2613
   135.000     192   -23.10657    3.35570   -19.75088   0.00084   135   %  7.1580
   136.000     193   -23.09569    3.34643   -19.74926   0.00246   136   %  7.0542
   137.000     195   -23.05276    3.30148   -19.75128   0.00043   137   %  6.9497
   138.000     198   -22.94963    3.19765   -19.75198  -0.00026   138   %  6.8444
   139.000     200   -22.81135    3.05890   -19.75244  -0.00072   139   %  6.7382
   140.000     202   -22.69251    2.94028   -19.75223  -0.00051   140   %  6.6307
   141.000     204   -22.62303    2.87197   -19.75106   0.00067   141   %  6.5221
   142.000     205   -22.58024    2.83098   -19.74926   0.00247   142   %  6.4126
   143.000     207   -22.50889    2.75760   -19.75129   0.00044   143   %  6.3030
   144.000     210   -22.38004    2.62809   -19.75195  -0.00022   144   %  6.1938
   145.000     212   -22.22088    2.46850   -19.75238  -0.00065   145   %  6.0851
   146.000     214   -22.08952    2.33752   -19.75200  -0.00027   146   %  5.9772
   147.000     216   -22.01612    2.26550   -19.75062   0.00112   147   %  5.8699
   148.000     217   -21.97474    2.22588   -19.74886   0.00288   148   %  5.7632
   149.000     220   -21.90793    2.15638   -19.75155   0.00020   149   %  5.6570
   150.000     222   -21.78833    2.03627   -19.75206  -0.00032   150   %  5.5513
   151.000     224   -21.64584    1.89340   -19.75244  -0.00070   151   %  5.4454
   152.000     226   -21.53853    1.78651   -19.75202  -0.00027   152   %  5.3391
   153.000     228   -21.49604    1.74542   -19.75062   0.00113   153   %  5.2322
   154.000     230   -21.48773    1.73829   -19.74944   0.00231   154   %  5.1249
   155.000     232   -21.45605    1.70472   -19.75133   0.00042   155   %  5.0178
   156.000     234   -21.37077    1.61881   -19.75197  -0.00022   156   %  4.9113
   157.000     237   -21.26300    1.51070   -19.75230  -0.00055   157   %  4.8054
   158.000     239   -21.19405    1.44227   -19.75178  -0.00003   158   %  4.7000
   159.000     240   -21.19291    1.44252   -19.75039   0.00136   159   %  4.5951
   160.000     242   -21.22769    1.47860   -19.74908   0.00267   160   %  4.4908
   161.000     245   -21.23498    1.48336   -19.75163   0.00013   161   %  4.3871
   162.000     247   -21.18709    1.43498   -19.75211  -0.00036   162   %  4.2840
   163.000     249   -21.11739    1.36493   -19.75245  -0.00070   163   %  4.1810
   164.000     251   -21.08711    1.33523   -19.75188  -0.00012   164   %  4.0777
   165.000     253   -21.12522    1.37484   -19.75038   0.00138   165   %  3.9740
   166.000     255   -21.19586    1.44622   -19.74964   0.00212   166   %  3.8703
   167.000     257   -21.23583    1.48438   -19.75145   0.00031   167   %  3.7673
   168.000     260   -21.21425    1.46222   -19.75203  -0.00027   168   %  3.6655
   169.000     262   -21.16596    1.41361   -19.75234  -0.00058   169   %  3.5651
   170.000     264   -21.15599    1.40420   -19.75179  -0.00002   170   %  3.4661
   171.000     266   -21.21290    1.46246   -19.75044   0.00133   171   %  3.3686
   172.000     268   -21.29757    1.54770   -19.74987   0.00189   172   %  3.2732
   173.000     270   -21.34463    1.59304   -19.75159   0.00018   173   %  3.1812
   174.000     273   -21.32431    1.57216   -19.75215  -0.00038   174   %  3.0941
   175.000     275   -21.27392    1.52146   -19.75246  -0.00069   175   %  3.0127
   176.000     277   -21.25902    1.50711   -19.75191  -0.00014   176   %  2.9381
   177.000     279   -21.30863    1.55817   -19.75046   0.00131   177   %  2.8745
   178.000     281   -21.38340    1.63361   -19.74979   0.00198   178   %  2.8261
   179.000     283   -21.41592    1.66440   -19.75153   0.00025   179   %  2.7910
   180.000     286   -21.37476    1.62266   -19.75210  -0.00033   180   %  2.7668
   181.000     288   -21.29917    1.54674   -19.75243  -0.00065   181   %  2.7529
   182.000     290   -21.25857    1.50669   -19.75188  -0.00010   182   %  2.7504
   183.000     292   -21.28313    1.53263   -19.75050   0.00128   183   %  2.7598
   184.000     294   -21.33090    1.58073   -19.75017   0.00161   184   %  2.7785
   185.000     297   -21.33161    1.57997   -19.75164   0.00014   185   %  2.8044
   186.000     299   -21.25639    1.50422   -19.75218  -0.00040   186   %  2.8360
   187.000     302   -21.14669    1.39421   -19.75248  -0.00069   187   %  2.8721
   188.000     304   -21.07333    1.32139   -19.75195  -0.00016   188   %  2.9112
   189.000     306   -21.06701    1.31649   -19.75052   0.00126   189   %  2.9526
   190.000     307   -21.08699    1.33782   -19.74916   0.00262   190   %  2.9962
   191.000     310   -21.06145    1.30981   -19.75163   0.00015   191   %  3.0422
   192.000     313   -20.95919    1.20707   -19.75212  -0.00034   192   %  3.0907
   193.000     315   -20.82406    1.07161   -19.75246  -0.00067   193   %  3.1412
   194.000     317   -20.73112    0.97922   -19.75191  -0.00012   194   %  3.1930
   195.000     319   -20.71275    0.96226   -19.75049   0.00130   195   %  3.2456
   196.000     321   -20.72520    0.97510   -19.75009   0.00170   196   %  3.2988
   197.000     324   -20.69454    0.94292   -19.75162   0.00018   197   %  3.3527
   198.000     327   -20.59242    0.84026   -19.75216  -0.00037   198   %  3.4076
   199.000     329   -20.46372    0.71124   -19.75248  -0.00069   199   %  3.4628
   200.000     331   -20.38531    0.63340   -19.75191  -0.00012   200   %  3.5176


           INITIAL VELOCITY IN DRC (Angstroms/Femtosecond)
        -0.00053        -0.00438         0.00372
         0.00052         0.00190        -0.00543
        -0.01287         0.00600        -0.01371
         0.02754        -0.01604         0.02971
        -0.02746         0.02263        -0.02518
         0.01278        -0.01101         0.01028
         0.00193        -0.00513         0.00372
        -0.00927        -0.00321         0.00911
        -0.00192         0.00173        -0.00610
         0.00939         0.00711        -0.00645
        -0.06508         0.01485        -0.00104
        -0.00591         0.01937        -0.06700
         0.10226         0.03688         0.08095
         0.03521        -0.11759         0.06416
        -0.03714         0.01846        -0.13219
        -0.09991         0.09136         0.00707
         0.00523        -0.05578         0.04204
         0.06544         0.00265         0.01306
 THE VIBRATIONAL FREQUENCY (  -217.57CM(-1)) IS TOO SMALL
 FOR ONE QUANTUM TO BE USED
 INSTEAD 0.3KCAL/MOLE WILL BE USED TO START THE IRC

 TIME PRIORITY, INTERVAL = 1.00 FEMTOSECONDS



 FEMTOSECONDS  POINT  POTENTIAL + KINETIC  =   TOTAL     ERROR    REF%   MOVEMENT
     0.000       1   -20.05154    0.30000   -19.75154   0.00000     1   %  0.0000
     1.000       1   -20.05205    0.29952   -19.75254  -0.00100     2   %  0.0408
     2.000       1   -20.05331    0.30022   -19.75309  -0.00156     3   %  0.0816
     3.000       1   -20.05530    0.30209   -19.75321  -0.00167     4   %  0.1225
     4.000       2   -20.05803    0.30515   -19.75288  -0.00135     5   %  0.1636
     5.000       3   -20.06136    0.30851   -19.75285  -0.00131     6   %  0.2048
     6.000       3   -20.06560    0.31280   -19.75280  -0.00126     7   %  0.2463
     7.000       4   -20.07080    0.31786   -19.75294  -0.00141     8   %  0.2879
     8.000       4   -20.07685    0.32421   -19.75265  -0.00111     9   %  0.3300
     9.000       5   -20.08380    0.33235   -19.75145   0.00009    10   %  0.3723
    10.000       5   -20.09149    0.34078   -19.75071   0.00083    11   %  0.4153
    11.000       6   -20.09960    0.34889   -19.75071   0.00083    12   %  0.4587
    12.000       6   -20.10908    0.35849   -19.75059   0.00095    13   %  0.5027
    13.000       7   -20.12019    0.36983   -19.75035   0.00119    14   %  0.5472
    14.000       7   -20.13214    0.38215   -19.74999   0.00155    15   %  0.5925
    15.000       8   -20.14493    0.39581   -19.74912   0.00242    16   %  0.6385
    16.000       8   -20.15859    0.40970   -19.74888   0.00266    17   %  0.6853
    17.000       9   -20.17220    0.42202   -19.75018   0.00136    18   %  0.7329
    18.000       9   -20.18852    0.43821   -19.75031   0.00123    19   %  0.7815
    19.000      10   -20.20898    0.46047   -19.74851   0.00303    20   %  0.8308
    20.000      10   -20.22930    0.48222   -19.74708   0.00446    21   %  0.8814
    21.000      11   -20.24937    0.50463   -19.74473   0.00681    22   %  0.9333
    22.000      11   -20.26955    0.52419   -19.74536   0.00618    23   %  0.9863
    24.000      13   -20.31536    0.56501   -19.75034   0.00120    24   %  1.0955
    25.000      14   -20.34841    0.60047   -19.74793   0.00361    25   %  1.1519
    26.000      14   -20.38363    0.63798   -19.74565   0.00589    26   %  1.2098
    27.000      15   -20.41484    0.66725   -19.74759   0.00396    27   %  1.2695
    28.000      16   -20.44201    0.69117   -19.75084   0.00071    28   %  1.3307
    29.000      17   -20.47306    0.72144   -19.75162  -0.00008    29   %  1.3934
    30.000      18   -20.51608    0.76554   -19.75055   0.00100    30   %  1.4577
    31.000      19   -20.56948    0.82053   -19.74895   0.00260    31   %  1.5240
    32.000      20   -20.62266    0.87445   -19.74822   0.00333    32   %  1.5924
    33.000      21   -20.66833    0.91781   -19.75052   0.00103    33   %  1.6631
    34.000      23   -20.70987    0.95814   -19.75173  -0.00018    34   %  1.7359
    35.000      24   -20.75949    1.00818   -19.75130   0.00024    35   %  1.8107
    36.000      25   -20.82544    1.07556   -19.74989   0.00166    36   %  1.8876
    37.000      26   -20.90210    1.15365   -19.74846   0.00309    37   %  1.9667
    38.000      27   -20.97687    1.22784   -19.74903   0.00252    38   %  2.0482
    39.000      28   -21.04321    1.29230   -19.75091   0.00064    39   %  2.1323
    40.000      29   -21.10809    1.35642   -19.75167  -0.00012    40   %  2.2188
    41.000      31   -21.18580    1.43470   -19.75110   0.00045    41   %  2.3078
    42.000      32   -21.28367    1.53426   -19.74942   0.00214    42   %  2.3995
    43.000      33   -21.39230    1.64449   -19.74781   0.00375    43   %  2.4941
    44.000      34   -21.49632    1.74747   -19.74884   0.00271    44   %  2.5919
    45.000      35   -21.58982    1.83835   -19.75148   0.00008    45   %  2.6928
    46.000      37   -21.68384    1.93237   -19.75147   0.00009    46   %  2.7968
    47.000      38   -21.79613    2.04539   -19.75074   0.00083    47   %  2.9036
    48.000      40   -21.93156    2.18202   -19.74954   0.00202    48   %  3.0134
    49.000      41   -22.07794    2.32925   -19.74870   0.00287    49   %  3.1263
    50.000      42   -22.21789    2.46801   -19.74988   0.00169    50   %  3.2423
    51.000      44   -22.34765    2.59642   -19.75123   0.00034    51   %  3.3616
    52.000      45   -22.48101    2.72975   -19.75126   0.00031    52   %  3.4842
    53.000      46   -22.63644    2.88626   -19.75018   0.00139    53   %  3.6103
    54.000      47   -22.81613    3.06774   -19.74839   0.00319    54   %  3.7400
    55.000      49   -23.00429    3.25682   -19.74747   0.00411    55   %  3.8735
    56.000      50   -23.18105    3.43096   -19.75009   0.00149    56   %  4.0111
    57.000      52   -23.34470    3.59370   -19.75099   0.00059    57   %  4.1525
    58.000      53   -23.51244    3.76177   -19.75067   0.00092    58   %  4.2977
    59.000      54   -23.70433    3.95518   -19.74915   0.00244    59   %  4.4465
    60.000      55   -23.91930    4.17205   -19.74725   0.00433    60   %  4.5986
    61.000      57   -24.13805    4.39134   -19.74671   0.00488    61   %  4.7541
    62.000      58   -24.34035    4.58985   -19.75049   0.00110    62   %  4.9129
    63.000      60   -24.52638    4.77555   -19.75083   0.00077    63   %  5.0751
    64.000      61   -24.71735    4.96686   -19.75048   0.00112    64   %  5.2406
    65.000      63   -24.93099    5.18200   -19.74898   0.00262    65   %  5.4097
    66.000      64   -25.16234    5.41539   -19.74695   0.00466    66   %  5.5824
    67.000      65   -25.38499    5.63739   -19.74761   0.00401    67   %  5.7589
    68.000      67   -25.57837    5.82800   -19.75037   0.00125    68   %  5.9390
    69.000      69   -25.74634    5.99570   -19.75064   0.00098    69   %  6.1225
    70.000      70   -25.91242    6.16236   -19.75006   0.00157    70   %  6.3090
    71.000      72   -26.09493    6.34640   -19.74853   0.00310    71   %  6.4979
    72.000      73   -26.28677    6.54018   -19.74659   0.00505    72   %  6.6889
    73.000      74   -26.45825    6.70983   -19.74842   0.00322    73   %  6.8818
    74.000      76   -26.58958    6.83918   -19.75040   0.00124    74   %  7.0762
    75.000      78   -26.68691    6.93606   -19.75085   0.00080    75   %  7.2721
    76.000      79   -26.77574    7.02540   -19.75034   0.00131    76   %  7.4693
    77.000      81   -26.87297    7.12411   -19.74886   0.00280    77   %  7.6680
    78.000      82   -26.96517    7.21808   -19.74709   0.00458    78   %  7.8680
    79.000      84   -27.02089    7.27173   -19.74916   0.00251    79   %  8.0693
    80.000      86   -27.02063    7.26997   -19.75066   0.00102    80   %  8.2714
    81.000      87   -26.97525    7.22435   -19.75090   0.00077    81   %  8.4738
    82.000      89   -26.91597    7.16565   -19.75032   0.00136    82   %  8.6758
    83.000      90   -26.86014    7.11126   -19.74888   0.00281    83   %  8.8766
    84.000      92   -26.79445    7.04703   -19.74742   0.00428    84   %  9.0754
    85.000      93   -26.68722    6.93721   -19.75001   0.00169    85   %  9.2717
    86.000      95   -26.52153    6.77038   -19.75115   0.00055    86   %  9.4651
    87.000      97   -26.31312    6.56168   -19.75144   0.00026    87   %  9.6552
    88.000      99   -26.09671    6.34573   -19.75098   0.00073    88   %  9.8420
    89.000     100   -25.89008    6.14043   -19.74965   0.00207    89   % 10.0253
    90.000     102   -25.67968    5.93178   -19.74790   0.00382    90   % 10.2049
    91.000     104   -25.43255    5.68193   -19.75062   0.00110    91   % 10.3806
    92.000     106   -25.13746    5.38615   -19.75131   0.00041    92   % 10.5517
    93.000     108   -24.81876    5.06722   -19.75154   0.00019    93   % 10.7177
    94.000     110   -24.51692    4.76588   -19.75104   0.00069    94   % 10.8775
    95.000     111   -24.25236    4.50253   -19.74983   0.00191    95   % 11.0305
    96.000     113   -24.00857    4.25957   -19.74900   0.00274    96   % 11.1757
    97.000     115   -23.75526    4.00446   -19.75080   0.00095    97   % 11.3128
    98.000     117   -23.48185    3.73029   -19.75156   0.00019    98   % 11.4415
    99.000     118   -23.21440    3.46257   -19.75183  -0.00008    99   % 11.5617
   100.000     120   -22.99433    3.24321   -19.75112   0.00063   100   % 11.6736
   101.000     122   -22.83916    3.08963   -19.74953   0.00223   101   % 11.7773
   102.000     123   -22.72800    2.97997   -19.74803   0.00373   102   % 11.8731
   103.000     125   -22.62427    2.87315   -19.75112   0.00064   103   % 11.9609
   104.000     127   -22.51694    2.76534   -19.75160   0.00016   104   % 12.0408
   105.000     129   -22.43254    2.68079   -19.75175   0.00001   105   % 12.1124
   106.000     131   -22.40956    2.65850   -19.75106   0.00070   106   % 12.1752
   107.000     133   -22.45752    2.70771   -19.74981   0.00196   107   % 12.2290
   108.000     134   -22.54622    2.79751   -19.74871   0.00306   108   % 12.2736
   109.000     136   -22.63262    2.88126   -19.75136   0.00041   109   % 12.3091
   110.000     138   -22.70171    2.94994   -19.75178  -0.00000   110   % 12.3359
   111.000     140   -22.77711    3.02521   -19.75190  -0.00013   111   % 12.3545
   112.000     142   -22.89410    3.14295   -19.75115   0.00063   112   % 12.3655
   113.000     144   -23.05852    3.30878   -19.74974   0.00204   113   % 12.3696
   114.000     145   -23.23276    3.48393   -19.74884   0.00294   114   % 12.3675
   115.000     148   -23.37233    3.62087   -19.75146   0.00032   115   % 12.3598
   116.000     150   -23.46293    3.71108   -19.75185  -0.00006   116   % 12.3465
   117.000     152   -23.53380    3.78186   -19.75194  -0.00015   117   % 12.3278
   118.000     154   -23.62302    3.87185   -19.75117   0.00062   118   % 12.3036
   119.000     155   -23.73525    3.98539   -19.74985   0.00194   119   % 12.2738
   120.000     157   -23.83557    4.08550   -19.75008   0.00172   120   % 12.2385
   121.000     159   -23.88035    4.12889   -19.75146   0.00034   121   % 12.1982
   122.000     162   -23.86134    4.10936   -19.75198  -0.00018   122   % 12.1533
   123.000     164   -23.81266    4.06059   -19.75207  -0.00027   123   % 12.1045
   124.000     165   -23.77690    4.02564   -19.75126   0.00055   124   % 12.0523
   125.000     167   -23.76255    4.01270   -19.74985   0.00196   125   % 11.9974
   126.000     169   -23.73242    3.98285   -19.74958   0.00224   126   % 11.9406
   127.000     171   -23.64598    3.89438   -19.75160   0.00022   127   % 11.8822
   128.000     173   -23.49905    3.74701   -19.75204  -0.00022   128   % 11.8226
   129.000     175   -23.33225    3.58020   -19.75205  -0.00023   129   % 11.7615
   130.000     177   -23.19193    3.44089   -19.75105   0.00078   130   % 11.6988
   131.000     179   -23.08458    3.33513   -19.74945   0.00237   131   % 11.6345
   132.000     180   -22.97297    3.22292   -19.75005   0.00178   132   % 11.5686
   133.000     183   -22.81573    3.06414   -19.75160   0.00023   133   % 11.5017
   134.000     185   -22.61008    2.85791   -19.75218  -0.00035   134   % 11.4343
   135.000     187   -22.39859    2.64629   -19.75230  -0.00047   135   % 11.3669
   136.000     189   -22.22755    2.47613   -19.75142   0.00041   136   % 11.2998
   137.000     190   -22.10186    2.35193   -19.74993   0.00190   137   % 11.2336
   138.000     192   -21.98075    2.23037   -19.75038   0.00146   138   % 11.1690
   139.000     194   -21.81997    2.06815   -19.75181   0.00003   139   % 11.1065
   140.000     197   -21.61833    1.86601   -19.75232  -0.00047   140   % 11.0460
   141.000     199   -21.42199    1.66965   -19.75234  -0.00049   141   % 10.9869
   142.000     201   -21.27781    1.52644   -19.75137   0.00047   142   % 10.9285
   143.000     202   -21.18782    1.43786   -19.74996   0.00188   143   % 10.8706
   144.000     204   -21.10826    1.35765   -19.75061   0.00124   144   % 10.8132
   145.000     207   -20.99329    1.24151   -19.75178   0.00006   145   % 10.7570
   146.000     209   -20.84189    1.08958   -19.75231  -0.00046   146   % 10.7023
   147.000     211   -20.70068    0.94828   -19.75240  -0.00055   147   % 10.6493
   148.000     213   -20.61755    0.86602   -19.75153   0.00032   148   % 10.5979
   149.000     215   -20.59305    0.84301   -19.75004   0.00181   149   % 10.5483
   150.000     216   -20.58126    0.83035   -19.75091   0.00094   150   % 10.5008
   151.000     219   -20.53340    0.78151   -19.75190  -0.00005   151   % 10.4557
   152.000     221   -20.45024    0.69782   -19.75242  -0.00057   152   % 10.4124
   153.000     223   -20.38107    0.62865   -19.75242  -0.00056   153   % 10.3699
   154.000     225   -20.37487    0.62353   -19.75134   0.00051   154   % 10.3273
   155.000     227   -20.43119    0.68140   -19.74979   0.00206   155   % 10.2845
   156.000     229   -20.50015    0.74926   -19.75089   0.00096   156   % 10.2422
   157.000     231   -20.53413    0.78232   -19.75181   0.00004   157   % 10.2013
   158.000     234   -20.53405    0.78178   -19.75227  -0.00042   158   % 10.1624
   159.000     236   -20.54983    0.79754   -19.75228  -0.00043   159   % 10.1252
   160.000     238   -20.63225    0.88090   -19.75135   0.00051   160   % 10.0896
   161.000     239   -20.78130    1.03124   -19.75006   0.00180   161   % 10.0559
   162.000     241   -20.94519    1.19416   -19.75103   0.00083   162   % 10.0247
   163.000     244   -21.07312    1.32124   -19.75188  -0.00002   163   %  9.9964
   164.000     246   -21.16766    1.41534   -19.75232  -0.00046   164   %  9.9708
   165.000     248   -21.28224    1.53001   -19.75223  -0.00037   165   %  9.9473
   166.000     250   -21.46841    1.71727   -19.75114   0.00072   166   %  9.9256
   167.000     252   -21.72434    1.97481   -19.74953   0.00233   167   %  9.9052
   168.000     254   -21.99488    2.24401   -19.75087   0.00099   168   %  9.8865
   169.000     257   -22.22897    2.47723   -19.75174   0.00012   169   %  9.8694
   170.000     259   -22.42702    2.67486   -19.75216  -0.00029   170   %  9.8539
   171.000     261   -22.64263    2.89058   -19.75204  -0.00018   171   %  9.8397
   172.000     263   -22.92697    3.17607   -19.75090   0.00097   172   %  9.8267
   173.000     265   -23.27540    3.52624   -19.74915   0.00272   173   %  9.8149
   174.000     267   -23.62951    3.87865   -19.75086   0.00102   174   %  9.8046
   175.000     269   -23.93337    4.18166   -19.75171   0.00016   175   %  9.7959
   176.000     272   -24.18789    4.43584   -19.75204  -0.00016   176   %  9.7885
   177.000     274   -24.44915    4.69735   -19.75180   0.00009   177   %  9.7819
   178.000     276   -24.76871    5.01815   -19.75056   0.00133   178   %  9.7755
   179.000     278   -25.13894    5.39014   -19.74880   0.00309   179   %  9.7687
   180.000     280   -25.49821    5.74744   -19.75078   0.00112   180   %  9.7615
   181.000     282   -25.78771    6.03609   -19.75162   0.00028   181   %  9.7539
   182.000     285   -26.00561    6.25362   -19.75199  -0.00008   182   %  9.7459
   183.000     287   -26.20589    6.45409   -19.75180   0.00011   183   %  9.7374
   184.000     289   -26.43880    6.68815   -19.75065   0.00126   184   %  9.7285
   185.000     291   -26.69522    6.94642   -19.74880   0.00311   185   %  9.7196
   186.000     293   -26.90883    7.15786   -19.75096   0.00096   186   %  9.7111
   187.000     296   -27.01980    7.26801   -19.75178   0.00015   187   %  9.7031
   188.000     298   -27.03075    7.27862   -19.75214  -0.00020   188   %  9.6955
   189.000     301   -27.00122    7.24921   -19.75201  -0.00007   189   %  9.6877
   190.000     303   -26.98646    7.23550   -19.75096   0.00098   190   %  9.6792
   191.000     305   -26.97781    7.22825   -19.74956   0.00239   191   %  9.6695
   192.000     307   -26.91187    7.16058   -19.75129   0.00067   192   %  9.6583
   193.000     310   -26.72925    6.97729   -19.75196  -0.00000   193   %  9.6456
   194.000     312   -26.43586    6.68343   -19.75244  -0.00047   194   %  9.6311
   195.000     314   -26.09717    6.34469   -19.75248  -0.00051   195   %  9.6150
   196.000     316   -25.77406    6.02247   -19.75159   0.00038   196   %  9.5974
   197.000     318   -25.46611    5.71598   -19.75013   0.00184   197   %  9.5788
   198.000     321   -25.11322    5.36171   -19.75151   0.00047   198   %  9.5597
   199.000     324   -24.66440    4.91220   -19.75220  -0.00022   199   %  9.5404
   200.000     326   -24.13707    4.38439   -19.75268  -0.00069   200   %  9.5208



 **********************
 *                    *
 * JOB ENDED NORMALLY *
 *                    *
 **********************



 TOTAL JOB TIME:             6.05 SECONDS

 == MOPAC DONE ==
