 *******************************************************************************
 ** Site#: 37037        For non-commercial use only           Version 21.153W **
 *******************************************************************************
 ** Cite this program as: MOPAC2016, Version: 21.153W, James J. P. Stewart,   **
 ** Stewart Computational Chemistry, web: HTTP://OpenMOPAC.net. Days left: 364**
 *******************************************************************************
 **                                                                           **
 **                                MOPAC2016                                  **
 **                                                                           **
 *******************************************************************************

                              PM7 CALCULATION RESULTS

 *******************************************************************************
 *  CALCULATION DONE:                                Thu Jun  3 15:47:59 2021  *
 *  GEO-OK     - OVERRIDE INTERATOMIC DISTANCE AND OTHER SAFETY CHECKS
 *  GEO_DAT    - DATA SET GEOMETRY IS IN FILE "Cyclohexane chair.arc"
 *  GEO_REF    - REFERENCE GEOMETRY IS IN FILE "Cyclohexane boat.arc"
 *               (NO BIAS TOWARDS THE REFERENCE GEOMETRY WILL BE APPLIED)
 *  RESIDUES   - DETERMINE THE SEQUENCE OF RESIDUES
 *  SADDLE     - TRANSITION STATE TO BE OPTIMIZED
 *  T=         - A TIME OF 172800.0 SECONDS REQUESTED
 *  DUMP=N     - RESTART FILE WRITTEN EVERY 7200.0 SECONDS REQUESTED
 *  BAR=       - REDUCE BAR LENGTH BY A MAX. OF   0.50
 *  HTML       - WRITE HTML SCRIPT TO READ PDB FILE USING JSMOL
 *******************************************************************************
geo_ref="Cyclohexane boat.arc" geo_dat="Cyclohexane chair.arc" saddle  bar=0.5  HTML geo-ok
 Transition state for Cyclohexane boat <=> Cyclohexane chair

   ATOM   CHEMICAL          X               Y               Z
  NUMBER   SYMBOL      (ANGSTROMS)     (ANGSTROMS)     (ANGSTROMS)
 
     1       C          0.00000000  *   0.00000000  *   0.00000000  *
     2       C          1.53487200  *   0.00000000  *   0.00000000  *
     3       C          2.07418224  *   1.43695028  *   0.00000000  *
     4       C          1.53699855  *   2.21488398  *   1.20922034  *
     5       C          0.00210016  *   2.21381582  *   1.21117402  *
     6       C         -0.53709063  *   0.77667261  *   1.21015461  *
     7       H         -0.38004198  *  -1.03709103  *   0.01555707  *
     8       H         -0.37793201  *   0.45148814  *  -0.93620511  *
     9       H          1.91566425  *  -0.54927348  *  -0.87932585  *
    10       H          1.91054735  *  -0.54274150  *   0.88711800  *
    11       H          1.78169938  *   1.94886331  *  -0.93568033  *
    12       H          3.17891630  *   1.42839187  *   0.01392713  *
    13       H          1.91535818  *   3.25325440  *   1.19093265  *
    14       H          1.91611274  *   1.76561554  *   2.14570933  *
    15       H         -0.37382471  *   2.75632659  *   0.32437710  *
    16       H         -0.37762554  *   2.76190906  *   2.09216455  *
    17       H         -1.64161741  *   0.78601360  *   1.19647304  *
    18       H         -0.24478704  *   0.26432741  *   2.14549362  *
 

                        After docking

                     Atoms that move a lot

                     Atom Label             GEO_REF Coordinates       Movement    Integral

            (HETATM   16 2H5  HET A   1)   1.110   1.243   2.560        1.88         1.88
            (HETATM   13 1H4  HET A   1)   0.423   2.846   0.018        1.88         3.76
            (HETATM   15 1H5  HET A   1)  -0.191   2.432   2.451        1.85         5.62
            (HETATM   14 2H4  HET A   1)   1.724   3.260   1.137        1.85         7.47
            (HETATM   11 1H3  HET A   1)   2.236   1.782  -1.038        0.79         8.26
            (HETATM   18 2H6  HET A   1)  -0.704  -0.168   2.055        0.79         9.05
            (HETATM   17 1H6  HET A   1)  -1.550   1.051   1.101        0.72         9.78
            (HETATM   12 2H3  HET A   1)   3.083   1.447   0.472        0.72        10.50
            (HETATM    4  C4  HET A   1)   1.146   2.410   0.732        0.66        11.16
            (HETATM    5  C5  HET A   1)   0.387   1.700   1.859        0.66        11.83
            (HETATM    8 2H1  HET A   1)  -0.369   0.566  -0.875        0.28        12.10
            (HETATM   10 2H2  HET A   1)   1.902  -0.545   0.889        0.27        12.38
            (HETATM    7 1H1  HET A   1)  -0.383  -1.029  -0.120        0.26        12.63
            (HETATM    9 1H2  HET A   1)   1.915  -0.552  -0.877        0.25        12.89
            (HETATM    6  C6  HET A   1)  -0.551   0.620   1.295        0.18        13.07
            (HETATM    3  C3  HET A   1)   2.084   1.436   0.000        0.18        13.25
            (HETATM    2  C2  HET A   1)   1.533   0.000   0.000        0.13        13.38
            (HETATM    1  C1  HET A   1)   0.000   0.000   0.000        0.13        13.51

     Residues that move a lot and their (Movement in Angstroms, per atom)


   Difference between GEO_DAT and GEO_REF: 13.511 = total,  0.7506 = Average,  0.9863 = RMS, in Angstroms

 General Reference for PM7:
 "Optimization of Parameters for Semiempirical Methods VI: More Modifications to the 
 NDDO Approximations and Re-optimization of Parameters", J. J. P. Stewart, J. Mol. Mod., 1:32, 19 (2013)
 https://link.springer.com/article/10.1007/s00894-012-1667-x

           Empirical Formula: C6 H12  =    18 atoms



      MOLECULAR POINT GROUP   :   D3d 


      RHF CALCULATION, NO. OF DOUBLY OCCUPIED LEVELS = 18



  CARTESIAN GEOMETRY OF FIRST SYSTEM


   1    C          0.00000       0.00000       0.00000
   2    C          1.53276       0.00000       0.00000
   3    C          2.08419       1.43587       0.00000
   4    C          1.14614       2.41030       0.73241
   5    C          0.38690       1.70023       1.85877
   6    C         -0.55144       0.61952       1.29536
   7    H         -0.38264      -1.02907      -0.11994
   8    H         -0.36913       0.56649      -0.87542
   9    H          1.91542      -0.55222      -0.87659
  10    H          1.90188      -0.54534       0.88876
  11    H          2.23622       1.78180      -1.03843
  12    H          3.08307       1.44655       0.47246
  13    H          0.42324       2.84630       0.01768
  14    H          1.72430       3.25990       1.13701
  15    H         -0.19102       2.43167       2.45104
  16    H          1.10979       1.24309       2.56019
  17    H         -1.55011       1.05077       1.10101
  18    H         -0.70394      -0.16809       2.05531


  CARTESIAN GEOMETRY OF SECOND SYSTEM


   1    C          0.00794      -0.10419       0.07657
   2    C          1.52375       0.02498      -0.12707
   3    C          1.94759       1.49990      -0.10150
   4    C          1.52468       2.16004       1.21809
   5    C          0.00919       2.02970       1.42360
   6    C         -0.41465       0.55465       1.39699
   7    H         -0.28673      -1.16879       0.07229
   8    H         -0.52836       0.36625      -0.76854
   9    H          1.82033      -0.43954      -1.08424
  10    H          2.05798      -0.53364       0.66364
  11    H          1.49117       2.03762      -0.95334
  12    H          3.04117       1.58357      -0.23488
  13    H          1.81722       3.22593       1.21999
  14    H          2.06203       1.69190       2.06348
  15    H         -0.52522       2.58806       0.63323
  16    H         -0.28601       2.49305       2.38219
  17    H         -1.50805       0.47177       1.53064
  18    H          0.04158       0.01651       2.24849


   "DISTANCE":     4.184398


  REACTION COORDINATE VECTOR


   1    C         -0.00794       0.10419      -0.07657
   2    C          0.00900      -0.02498       0.12707
   3    C          0.13660      -0.06403       0.10150
   4    C         -0.37854       0.25025      -0.48568
   5    C          0.37771      -0.32947       0.43518
   6    C         -0.13679       0.06486      -0.10163
   7    H         -0.09590       0.13972      -0.19222
   8    H          0.15923       0.20024      -0.10688
   9    H          0.09509      -0.11268       0.20765
  10    H         -0.15611      -0.01169       0.22512
  11    H          0.74505      -0.25582      -0.08508
  12    H          0.04190      -0.13702       0.70734
  13    H         -1.39399      -0.37963      -1.20231
  14    H         -0.33773       1.56801      -0.92647
  15    H          0.33420      -0.15639       1.81781
  16    H          1.39580      -1.24996       0.17800
  17    H         -0.04206       0.57900      -0.42963
  18    H         -0.74552      -0.18460      -0.19318
 *+*+*+*+*+*+*+*+*+*+*+*+*+*+*+*+*+*+*+*+*+*+*+*+*+*+*+*+*+*+*+*+*+*+*+*+*+*+*+*+
            BAR SHORTENED BY       0.000 PERCENT
 GRADIENT CRITERION IN FLEPO =     1.000


          FOR POINT    1 SECOND STRUCTURE
 DISTANCE A - B      4.184398
 HEAT              -24.012010
 GRADIENT NORM       0.083874
 DIRECTION COSINE   -0.000009
 HTML geo-ok
 Transition state for Cyclohexane boat <=> Cyclohexane chair

  C(HETATM    1  C1  HET A   1)   0.00000000 +0    0.0000000 +0    0.0000000 +0
  C(HETATM    2  C2  HET A   1)   1.53275816 +1    0.0000000 +0    0.0000000 +0     1     0     0
  C(HETATM    3  C3  HET A   1)   1.53812074 +1  111.0088476 +1    0.0000000 +0     2     1     0
  C(HETATM    4  C4  HET A   1)   1.53813695 +1  111.8855928 +1   30.8738781 +1     3     2     1
  C(HETATM    5  C5  HET A   1)   1.53275420 +1  111.0096587 +1   30.8475904 +1     4     3     2
  C(HETATM    6  C6  HET A   1)   1.53813233 +1  111.0090077 +1  -64.4401847 +1     1     2     3
  H(HETATM    7 1H1  HET A   1)   1.10443664 +1  110.2705824 +1  173.3521333 +1     1     2     3
  H(HETATM    8 2H1  HET A   1)   1.10613270 +1  109.4944129 +1   57.0924966 +1     1     2     3
  H(HETATM    9 1H2  HET A   1)   1.10443559 +1  110.2720091 +1 -122.2095446 +1     2     1     3
  H(HETATM   10 2H2  HET A   1)   1.10613814 +1  109.4936519 +1  121.5329347 +1     2     1     3
  H(HETATM   11 1H3  HET A   1)   1.10503764 +1  109.9717732 +1  -90.9875460 +1     3     2     1
  H(HETATM   12 2H3  HET A   1)   1.10503124 +1  109.4567351 +1  153.0346371 +1     3     2     1
  H(HETATM   13 1H4  HET A   1)   1.10613448 +1  109.9136025 +1  -90.4400816 +1     4     3     2
  H(HETATM   14 2H4  HET A   1)   1.10443823 +1  110.0306506 +1  153.1953332 +1     4     3     2
  H(HETATM   15 1H5  HET A   1)   1.10443670 +1  110.2714384 +1  173.3535415 +1     5     4     3
  H(HETATM   16 2H5  HET A   1)   1.10613571 +1  109.4950512 +1   57.0936717 +1     5     4     3
  H(HETATM   17 1H6  HET A   1)   1.10503307 +1  109.4554004 +1  153.0077110 +1     6     1     2
  H(HETATM   18 2H6  HET A   1)   1.10503470 +1  109.9726852 +1  -91.0149000 +1     6     1     2
 
 TIME=     0.02
  REACTANTS AND PRODUCTS SWAPPED AROUND
 *+*+*+*+*+*+*+*+*+*+*+*+*+*+*+*+*+*+*+*+*+*+*+*+*+*+*+*+*+*+*+*+*+*+*+*+*+*+*+*+
            BAR SHORTENED BY       4.780 PERCENT
 GRADIENT CRITERION IN FLEPO =     1.000


          FOR POINT    2 FIRST  STRUCTURE
 DISTANCE A - B      3.984398
 HEAT              -27.180380
 GRADIENT NORM       3.036997
 DIRECTION COSINE    0.152710
 HTML geo-ok
 Transition state for Cyclohexane boat <=> Cyclohexane chair

  C(HETATM    1  C1  HET A   1)   0.00000000 +0    0.0000000 +0    0.0000000 +0
  C(HETATM    2  C2  HET A   1)   1.53412809 +1    0.0000000 +0    0.0000000 +0     1     0     0
  C(HETATM    3  C3  HET A   1)   1.53420613 +1  110.4741823 +1    0.0000000 +0     2     1     0
  C(HETATM    4  C4  HET A   1)   1.53433168 +1  111.0981392 +1   56.9478195 +1     3     2     1
  C(HETATM    5  C5  HET A   1)   1.53492595 +1  112.1202984 +1  -53.1276332 +1     4     3     2
  C(HETATM    6  C6  HET A   1)   1.53413252 +1  110.3661306 +1  -59.2637230 +1     1     2     3
  H(HETATM    7 1H1  HET A   1)   1.10464422 +1  110.1580620 +1  178.8923184 +1     1     2     3
  H(HETATM    8 2H1  HET A   1)   1.10521607 +1  109.9268308 +1   62.1471579 +1     1     2     3
  H(HETATM    9 1H2  HET A   1)   1.10453406 +1  110.1071443 +1 -121.7784934 +1     2     1     3
  H(HETATM   10 2H2  HET A   1)   1.10615567 +1  109.9435207 +1  121.5516483 +1     2     1     3
  H(HETATM   11 1H3  HET A   1)   1.10491090 +1  109.9180568 +1  -65.1048100 +1     3     2     1
  H(HETATM   12 2H3  HET A   1)   1.10593088 +1  109.8781059 +1  178.4073638 +1     3     2     1
  H(HETATM   13 1H4  HET A   1)   1.10583180 +1  109.5086408 +1 -174.6512567 +1     4     3     2
  H(HETATM   14 2H4  HET A   1)   1.10512401 +1  109.6891480 +1   69.1355138 +1     4     3     2
  H(HETATM   15 1H5  HET A   1)   1.10348187 +1  109.6390704 +1  -70.2050882 +1     5     4     3
  H(HETATM   16 2H5  HET A   1)   1.10535433 +1  109.2741438 +1  173.6363902 +1     5     4     3
  H(HETATM   17 1H6  HET A   1)   1.10661557 +1  109.9621798 +1  178.8183798 +1     6     1     2
  H(HETATM   18 2H6  HET A   1)   1.10527242 +1  110.0156040 +1  -64.6448380 +1     6     1     2
 
 *+*+*+*+*+*+*+*+*+*+*+*+*+*+*+*+*+*+*+*+*+*+*+*+*+*+*+*+*+*+*+*+*+*+*+*+*+*+*+*+
            BAR SHORTENED BY       7.529 PERCENT
 GRADIENT CRITERION IN FLEPO =     1.000
           THERE HAVE BEEN 3 ATTEMPTS TO REDUCE THE GRADIENT.
           DURING THESE ATTEMPTS THE ENERGY DROPPED BY LESS THAN 0.3 KCAL/MOLE
           FURTHER CALCULATION IS NOT JUSTIFIED AT THIS TIME.
           TO CONTINUE, START AGAIN WITH THE WORD "PRECISE"


          FOR POINT    3 FIRST  STRUCTURE
 DISTANCE A - B      3.684398
 HEAT              -26.158855
 GRADIENT NORM       5.274075
 DIRECTION COSINE    0.754067
 HTML geo-ok
 Transition state for Cyclohexane boat <=> Cyclohexane chair

  C(HETATM    1  C1  HET A   1)   0.00000000 +0    0.0000000 +0    0.0000000 +0
  C(HETATM    2  C2  HET A   1)   1.53294997 +1    0.0000000 +0    0.0000000 +0     1     0     0
  C(HETATM    3  C3  HET A   1)   1.53276030 +1  110.0796465 +1    0.0000000 +0     2     1     0
  C(HETATM    4  C4  HET A   1)   1.53501779 +1  111.9237992 +1   56.6415865 +1     3     2     1
  C(HETATM    5  C5  HET A   1)   1.53615480 +1  114.2446052 +1  -46.9779456 +1     4     3     2
  C(HETATM    6  C6  HET A   1)   1.53172708 +1  109.8979026 +1  -62.1090174 +1     1     2     3
  H(HETATM    7 1H1  HET A   1)   1.10469312 +1  110.3542724 +1  176.2949286 +1     1     2     3
  H(HETATM    8 2H1  HET A   1)   1.10482955 +1  110.0126994 +1   59.4312342 +1     1     2     3
  H(HETATM    9 1H2  HET A   1)   1.10475872 +1  110.1958992 +1 -121.5473263 +1     2     1     3
  H(HETATM   10 2H2  HET A   1)   1.10388831 +1  109.9684712 +1  121.5453572 +1     2     1     3
  H(HETATM   11 1H3  HET A   1)   1.10382785 +1  109.5222596 +1  -65.4482590 +1     3     2     1
  H(HETATM   12 2H3  HET A   1)   1.10679222 +1  109.8677928 +1  178.3019074 +1     3     2     1
  H(HETATM   13 1H4  HET A   1)   1.10774030 +1  108.9636994 +1 -168.3831546 +1     4     3     2
  H(HETATM   14 2H4  HET A   1)   1.10386978 +1  109.3709789 +1   75.9781106 +1     4     3     2
  H(HETATM   15 1H5  HET A   1)   1.10312817 +1  109.4573046 +1  -79.9087860 +1     5     4     3
  H(HETATM   16 2H5  HET A   1)   1.10802997 +1  108.4025623 +1  164.3712888 +1     5     4     3
  H(HETATM   17 1H6  HET A   1)   1.10639864 +1  109.8727770 +1  178.6075800 +1     6     1     2
  H(HETATM   18 2H6  HET A   1)   1.10484288 +1  109.9451930 +1  -65.0881820 +1     6     1     2
 
 *+*+*+*+*+*+*+*+*+*+*+*+*+*+*+*+*+*+*+*+*+*+*+*+*+*+*+*+*+*+*+*+*+*+*+*+*+*+*+*+
            BAR SHORTENED BY      10.857 PERCENT
 GRADIENT CRITERION IN FLEPO =     2.274


          FOR POINT    4 FIRST  STRUCTURE
 DISTANCE A - B      3.284398
 HEAT              -24.103343
 GRADIENT NORM       7.439517
 DIRECTION COSINE    0.698729
 HTML geo-ok
 Transition state for Cyclohexane boat <=> Cyclohexane chair

  C(HETATM    1  C1  HET A   1)   0.00000000 +0    0.0000000 +0    0.0000000 +0
  C(HETATM    2  C2  HET A   1)   1.53416190 +1    0.0000000 +0    0.0000000 +0     1     0     0
  C(HETATM    3  C3  HET A   1)   1.53128444 +1  110.0787133 +1    0.0000000 +0     2     1     0
  C(HETATM    4  C4  HET A   1)   1.53372203 +1  112.7137292 +1   55.0670138 +1     3     2     1
  C(HETATM    5  C5  HET A   1)   1.53796644 +1  116.4500984 +1  -38.6054040 +1     4     3     2
  C(HETATM    6  C6  HET A   1)   1.52983314 +1  110.0306498 +1  -64.2410731 +1     1     2     3
  H(HETATM    7 1H1  HET A   1)   1.10476457 +1  110.3291501 +1  174.0804759 +1     1     2     3
  H(HETATM    8 2H1  HET A   1)   1.10601085 +1  110.0004617 +1   56.9217405 +1     1     2     3
  H(HETATM    9 1H2  HET A   1)   1.10733419 +1  110.1134639 +1 -121.5238272 +1     2     1     3
  H(HETATM   10 2H2  HET A   1)   1.10389471 +1  110.2070528 +1  121.5775782 +1     2     1     3
  H(HETATM   11 1H3  HET A   1)   1.10665690 +1  109.6991158 +1  -67.8649088 +1     3     2     1
  H(HETATM   12 2H3  HET A   1)   1.10775396 +1  109.4854329 +1  176.3378825 +1     3     2     1
  H(HETATM   13 1H4  HET A   1)   1.10931337 +1  108.1435331 +1 -159.7118474 +1     4     3     2
  H(HETATM   14 2H4  HET A   1)   1.10395279 +1  109.2380154 +1   85.5791192 +1     4     3     2
  H(HETATM   15 1H5  HET A   1)   1.10411655 +1  108.7720063 +1  -92.7788066 +1     5     4     3
  H(HETATM   16 2H5  HET A   1)   1.10675855 +1  107.7230254 +1  153.0740661 +1     5     4     3
  H(HETATM   17 1H6  HET A   1)   1.10814163 +1  109.5278103 +1  176.4596763 +1     6     1     2
  H(HETATM   18 2H6  HET A   1)   1.10662011 +1  110.3144149 +1  -67.8987865 +1     6     1     2
 
 TIME=     0.25
  REACTANTS AND PRODUCTS SWAPPED AROUND
 *+*+*+*+*+*+*+*+*+*+*+*+*+*+*+*+*+*+*+*+*+*+*+*+*+*+*+*+*+*+*+*+*+*+*+*+*+*+*+*+
            BAR SHORTENED BY       0.000 PERCENT
 GRADIENT CRITERION IN FLEPO =     4.440


          FOR POINT    5 SECOND STRUCTURE
 DISTANCE A - B      3.284398
 HEAT              -24.012010
 GRADIENT NORM       0.083874
 DIRECTION COSINE   -0.020821
 HTML geo-ok
 Transition state for Cyclohexane boat <=> Cyclohexane chair

  C(HETATM    1  C1  HET A   1)   0.00000000 +0    0.0000000 +0    0.0000000 +0
  C(HETATM    2  C2  HET A   1)   1.53275816 +1    0.0000000 +0    0.0000000 +0     1     0     0
  C(HETATM    3  C3  HET A   1)   1.53812074 +1  111.0088476 +1    0.0000000 +0     2     1     0
  C(HETATM    4  C4  HET A   1)   1.53813695 +1  111.8855928 +1   30.8738781 +1     3     2     1
  C(HETATM    5  C5  HET A   1)   1.53275420 +1  111.0096587 +1   30.8475904 +1     4     3     2
  C(HETATM    6  C6  HET A   1)   1.53813233 +1  111.0090077 +1  -64.4401847 +1     1     2     3
  H(HETATM    7 1H1  HET A   1)   1.10443664 +1  110.2705824 +1  173.3521333 +1     1     2     3
  H(HETATM    8 2H1  HET A   1)   1.10613270 +1  109.4944129 +1   57.0924966 +1     1     2     3
  H(HETATM    9 1H2  HET A   1)   1.10443559 +1  110.2720091 +1 -122.2095446 +1     2     1     3
  H(HETATM   10 2H2  HET A   1)   1.10613814 +1  109.4936519 +1  121.5329347 +1     2     1     3
  H(HETATM   11 1H3  HET A   1)   1.10503764 +1  109.9717732 +1  -90.9875460 +1     3     2     1
  H(HETATM   12 2H3  HET A   1)   1.10503124 +1  109.4567351 +1  153.0346371 +1     3     2     1
  H(HETATM   13 1H4  HET A   1)   1.10613448 +1  109.9136025 +1  -90.4400816 +1     4     3     2
  H(HETATM   14 2H4  HET A   1)   1.10443823 +1  110.0306506 +1  153.1953332 +1     4     3     2
  H(HETATM   15 1H5  HET A   1)   1.10443670 +1  110.2714384 +1  173.3535415 +1     5     4     3
  H(HETATM   16 2H5  HET A   1)   1.10613571 +1  109.4950512 +1   57.0936717 +1     5     4     3
  H(HETATM   17 1H6  HET A   1)   1.10503307 +1  109.4554004 +1  153.0077110 +1     6     1     2
  H(HETATM   18 2H6  HET A   1)   1.10503470 +1  109.9726852 +1  -91.0149000 +1     6     1     2
 
 TIME=     0.00
  REACTANTS AND PRODUCTS SWAPPED AROUND
 *+*+*+*+*+*+*+*+*+*+*+*+*+*+*+*+*+*+*+*+*+*+*+*+*+*+*+*+*+*+*+*+*+*+*+*+*+*+*+*+
            BAR SHORTENED BY      15.223 PERCENT
 GRADIENT CRITERION IN FLEPO =     4.440


          FOR POINT    6 FIRST  STRUCTURE
 DISTANCE A - B      2.784398
 HEAT              -21.554687
 GRADIENT NORM      10.309458
 DIRECTION COSINE   -0.011721
 HTML geo-ok
 Transition state for Cyclohexane boat <=> Cyclohexane chair

  C(HETATM    1  C1  HET A   1)   0.00000000 +0    0.0000000 +0    0.0000000 +0
  C(HETATM    2  C2  HET A   1)   1.53041427 +1    0.0000000 +0    0.0000000 +0     1     0     0
  C(HETATM    3  C3  HET A   1)   1.52764275 +1  110.2466058 +1    0.0000000 +0     2     1     0
  C(HETATM    4  C4  HET A   1)   1.53851666 +1  113.5195181 +1   52.6920295 +1     3     2     1
  C(HETATM    5  C5  HET A   1)   1.53895434 +1  118.0262387 +1  -27.3713820 +1     4     3     2
  C(HETATM    6  C6  HET A   1)   1.52768251 +1  110.3368238 +1  -66.2451344 +1     1     2     3
  H(HETATM    7 1H1  HET A   1)   1.10877549 +1  110.4231361 +1  171.5706265 +1     1     2     3
  H(HETATM    8 2H1  HET A   1)   1.10956420 +1  109.8036076 +1   55.1631800 +1     1     2     3
  H(HETATM    9 1H2  HET A   1)   1.10534504 +1  110.1483700 +1 -121.3548889 +1     2     1     3
  H(HETATM   10 2H2  HET A   1)   1.10247950 +1  109.9807485 +1  121.7220377 +1     2     1     3
  H(HETATM   11 1H3  HET A   1)   1.10998130 +1  109.5603712 +1  -69.8832080 +1     3     2     1
  H(HETATM   12 2H3  HET A   1)   1.10803966 +1  109.3916071 +1  174.3155639 +1     3     2     1
  H(HETATM   13 1H4  HET A   1)   1.11078801 +1  108.1784473 +1 -149.4449129 +1     4     3     2
  H(HETATM   14 2H4  HET A   1)   1.10855705 +1  108.7005433 +1   96.5546684 +1     4     3     2
  H(HETATM   15 1H5  HET A   1)   1.10850085 +1  108.4064954 +1 -110.0043711 +1     5     4     3
  H(HETATM   16 2H5  HET A   1)   1.10833951 +1  107.0955359 +1  136.8991731 +1     5     4     3
  H(HETATM   17 1H6  HET A   1)   1.10784901 +1  109.3398201 +1  173.9765585 +1     6     1     2
  H(HETATM   18 2H6  HET A   1)   1.10852076 +1  109.8803534 +1  -70.7805239 +1     6     1     2
 
 TIME=     0.08
  REACTANTS AND PRODUCTS SWAPPED AROUND
 *+*+*+*+*+*+*+*+*+*+*+*+*+*+*+*+*+*+*+*+*+*+*+*+*+*+*+*+*+*+*+*+*+*+*+*+*+*+*+*+
            BAR SHORTENED BY      17.957 PERCENT
 GRADIENT CRITERION IN FLEPO =     7.309


          FOR POINT    7 SECOND STRUCTURE
 DISTANCE A - B      2.284398
 HEAT              -23.038777
 GRADIENT NORM      11.553794
 DIRECTION COSINE    0.171214
 HTML geo-ok
 Transition state for Cyclohexane boat <=> Cyclohexane chair

  C(HETATM    1  C1  HET A   1)   0.00000000 +0    0.0000000 +0    0.0000000 +0
  C(HETATM    2  C2  HET A   1)   1.52917528 +1    0.0000000 +0    0.0000000 +0     1     0     0
  C(HETATM    3  C3  HET A   1)   1.54143583 +1  110.9676303 +1    0.0000000 +0     2     1     0
  C(HETATM    4  C4  HET A   1)   1.53596698 +1  112.8637924 +1   35.2605975 +1     3     2     1
  C(HETATM    5  C5  HET A   1)   1.53186552 +1  114.0831689 +1   21.2445658 +1     4     3     2
  C(HETATM    6  C6  HET A   1)   1.53466715 +1  111.0950249 +1  -65.8327873 +1     1     2     3
  H(HETATM    7 1H1  HET A   1)   1.10508382 +1  110.0788753 +1  172.3173463 +1     1     2     3
  H(HETATM    8 2H1  HET A   1)   1.10561104 +1  109.7331316 +1   55.9457223 +1     1     2     3
  H(HETATM    9 1H2  HET A   1)   1.10317752 +1  110.3309254 +1 -121.6652538 +1     2     1     3
  H(HETATM   10 2H2  HET A   1)   1.10191988 +1  109.7987532 +1  121.5844650 +1     2     1     3
  H(HETATM   11 1H3  HET A   1)   1.10449703 +1  109.4614704 +1  -86.3227593 +1     3     2     1
  H(HETATM   12 2H3  HET A   1)   1.10226289 +1  109.1344790 +1  158.5560537 +1     3     2     1
  H(HETATM   13 1H4  HET A   1)   1.10134314 +1  110.1254197 +1 -101.7300853 +1     4     3     2
  H(HETATM   14 2H4  HET A   1)   1.10349944 +1  109.2823448 +1  142.1417399 +1     4     3     2
  H(HETATM   15 1H5  HET A   1)   1.10445636 +1  107.8406519 +1 -174.8213396 +1     5     4     3
  H(HETATM   16 2H5  HET A   1)   1.10194510 +1  108.7277409 +1   69.8252158 +1     5     4     3
  H(HETATM   17 1H6  HET A   1)   1.10387917 +1  109.2325000 +1  158.2667993 +1     6     1     2
  H(HETATM   18 2H6  HET A   1)   1.10562981 +1  109.9771380 +1  -86.2336665 +1     6     1     2
 
 *+*+*+*+*+*+*+*+*+*+*+*+*+*+*+*+*+*+*+*+*+*+*+*+*+*+*+*+*+*+*+*+*+*+*+*+*+*+*+*+
            BAR SHORTENED BY      20.000 PERCENT
 GRADIENT CRITERION IN FLEPO =     8.554


          FOR POINT    8 SECOND STRUCTURE
 DISTANCE A - B      1.827519
 HEAT              -21.382425
 GRADIENT NORM      16.694810
 DIRECTION COSINE    0.414853
 HTML geo-ok
 Transition state for Cyclohexane boat <=> Cyclohexane chair

  C(HETATM    1  C1  HET A   1)   0.00000000 +0    0.0000000 +0    0.0000000 +0
  C(HETATM    2  C2  HET A   1)   1.52570670 +1    0.0000000 +0    0.0000000 +0     1     0     0
  C(HETATM    3  C3  HET A   1)   1.53029280 +1  111.0581746 +1    0.0000000 +0     2     1     0
  C(HETATM    4  C4  HET A   1)   1.53076454 +1  113.7305554 +1   39.5014486 +1     3     2     1
  C(HETATM    5  C5  HET A   1)   1.53220303 +1  116.3552572 +1   11.3718135 +1     4     3     2
  C(HETATM    6  C6  HET A   1)   1.53234504 +1  111.1426386 +1  -66.4475214 +1     1     2     3
  H(HETATM    7 1H1  HET A   1)   1.10955340 +1  110.4807224 +1  171.6563893 +1     1     2     3
  H(HETATM    8 2H1  HET A   1)   1.10712527 +1  109.9104120 +1   55.2086437 +1     1     2     3
  H(HETATM    9 1H2  HET A   1)   1.10817253 +1  110.0515868 +1 -121.9659048 +1     2     1     3
  H(HETATM   10 2H2  HET A   1)   1.10639030 +1  109.6608923 +1  121.9662045 +1     2     1     3
  H(HETATM   11 1H3  HET A   1)   1.11005786 +1  109.1493676 +1  -82.2478735 +1     3     2     1
  H(HETATM   12 2H3  HET A   1)   1.11084157 +1  109.1542913 +1  162.3805911 +1     3     2     1
  H(HETATM   13 1H4  HET A   1)   1.10036332 +1  109.8874364 +1 -111.9122885 +1     4     3     2
  H(HETATM   14 2H4  HET A   1)   1.10191049 +1  109.4307957 +1  132.3518984 +1     4     3     2
  H(HETATM   15 1H5  HET A   1)   1.10202883 +1  107.0557160 +1 -162.6185242 +1     5     4     3
  H(HETATM   16 2H5  HET A   1)   1.09874254 +1  107.8136404 +1   82.9063167 +1     5     4     3
  H(HETATM   17 1H6  HET A   1)   1.09936319 +1  109.2071158 +1  161.9367652 +1     6     1     2
  H(HETATM   18 2H6  HET A   1)   1.10914230 +1  109.8978152 +1  -82.6862626 +1     6     1     2
 
 TIME=     0.08
  REACTANTS AND PRODUCTS SWAPPED AROUND
 *+*+*+*+*+*+*+*+*+*+*+*+*+*+*+*+*+*+*+*+*+*+*+*+*+*+*+*+*+*+*+*+*+*+*+*+*+*+*+*+
            BAR SHORTENED BY      20.000 PERCENT
 GRADIENT CRITERION IN FLEPO =    10.000


          FOR POINT    9 FIRST  STRUCTURE
 DISTANCE A - B      1.462015
 HEAT              -19.866943
 GRADIENT NORM      21.950271
 DIRECTION COSINE   -0.203297
 HTML geo-ok
 Transition state for Cyclohexane boat <=> Cyclohexane chair

  C(HETATM    1  C1  HET A   1)   0.00000000 +0    0.0000000 +0    0.0000000 +0
  C(HETATM    2  C2  HET A   1)   1.52964828 +1    0.0000000 +0    0.0000000 +0     1     0     0
  C(HETATM    3  C3  HET A   1)   1.52710538 +1  109.9061855 +1    0.0000000 +0     2     1     0
  C(HETATM    4  C4  HET A   1)   1.53681416 +1  113.8438204 +1   51.1451554 +1     3     2     1
  C(HETATM    5  C5  HET A   1)   1.53216972 +1  118.5414985 +1  -20.0370485 +1     4     3     2
  C(HETATM    6  C6  HET A   1)   1.52323675 +1  110.0081629 +1  -67.5142618 +1     1     2     3
  H(HETATM    7 1H1  HET A   1)   1.11225737 +1  109.9485906 +1  168.7526284 +1     1     2     3
  H(HETATM    8 2H1  HET A   1)   1.10815280 +1  110.9160635 +1   54.5286984 +1     1     2     3
  H(HETATM    9 1H2  HET A   1)   1.10578850 +1  109.9073794 +1 -120.4245759 +1     2     1     3
  H(HETATM   10 2H2  HET A   1)   1.09781609 +1  110.6111436 +1  121.5829174 +1     2     1     3
  H(HETATM   11 1H3  HET A   1)   1.11072476 +1  109.8132401 +1  -71.4731669 +1     3     2     1
  H(HETATM   12 2H3  HET A   1)   1.10783268 +1  107.8017032 +1  172.7303456 +1     3     2     1
  H(HETATM   13 1H4  HET A   1)   1.10627355 +1  108.9243931 +1 -142.0858499 +1     4     3     2
  H(HETATM   14 2H4  HET A   1)   1.10940780 +1  109.6565516 +1  103.7208269 +1     4     3     2
  H(HETATM   15 1H5  HET A   1)   1.10574428 +1  107.4067437 +1 -120.9971512 +1     5     4     3
  H(HETATM   16 2H5  HET A   1)   1.09843499 +1  106.4326046 +1  126.3175395 +1     5     4     3
  H(HETATM   17 1H6  HET A   1)   1.10746344 +1  109.8358567 +1  172.0670860 +1     6     1     2
  H(HETATM   18 2H6  HET A   1)   1.11664099 +1  110.2880888 +1  -72.2842235 +1     6     1     2
 
 TIME=     0.03
  REACTANTS AND PRODUCTS SWAPPED AROUND
 *+*+*+*+*+*+*+*+*+*+*+*+*+*+*+*+*+*+*+*+*+*+*+*+*+*+*+*+*+*+*+*+*+*+*+*+*+*+*+*+
            BAR SHORTENED BY      20.000 PERCENT
 GRADIENT CRITERION IN FLEPO =    10.000


          FOR POINT   10 SECOND STRUCTURE
 DISTANCE A - B      1.169612
 HEAT              -20.277786
 GRADIENT NORM      26.869625
 DIRECTION COSINE   -0.262445
 HTML geo-ok
 Transition state for Cyclohexane boat <=> Cyclohexane chair

  C(HETATM    1  C1  HET A   1)   0.00000000 +0    0.0000000 +0    0.0000000 +0
  C(HETATM    2  C2  HET A   1)   1.53793501 +1    0.0000000 +0    0.0000000 +0     1     0     0
  C(HETATM    3  C3  HET A   1)   1.52511770 +1  110.6387971 +1    0.0000000 +0     2     1     0
  C(HETATM    4  C4  HET A   1)   1.54345698 +1  113.8173220 +1   42.6764730 +1     3     2     1
  C(HETATM    5  C5  HET A   1)   1.53303511 +1  117.2220156 +1    4.7865180 +1     4     3     2
  C(HETATM    6  C6  HET A   1)   1.52873657 +1  110.2262181 +1  -67.7771117 +1     1     2     3
  H(HETATM    7 1H1  HET A   1)   1.10302042 +1  109.6620335 +1  171.0793756 +1     1     2     3
  H(HETATM    8 2H1  HET A   1)   1.09681339 +1  110.2537767 +1   54.3725604 +1     1     2     3
  H(HETATM    9 1H2  HET A   1)   1.09906815 +1  109.8286063 +1 -120.9476345 +1     2     1     3
  H(HETATM   10 2H2  HET A   1)   1.10820250 +1  110.0186050 +1  122.0299593 +1     2     1     3
  H(HETATM   11 1H3  HET A   1)   1.10500553 +1  109.9007171 +1  -78.8515895 +1     3     2     1
  H(HETATM   12 2H3  HET A   1)   1.10700938 +1  109.2550380 +1  164.5617987 +1     3     2     1
  H(HETATM   13 1H4  HET A   1)   1.10789771 +1  109.8411274 +1 -118.5434496 +1     4     3     2
  H(HETATM   14 2H4  HET A   1)   1.12371608 +1  109.7621352 +1  126.3267432 +1     4     3     2
  H(HETATM   15 1H5  HET A   1)   1.11777798 +1  106.5208900 +1 -155.0589096 +1     5     4     3
  H(HETATM   16 2H5  HET A   1)   1.10577849 +1  107.0582343 +1   92.2192983 +1     5     4     3
  H(HETATM   17 1H6  HET A   1)   1.12004979 +1  109.5737560 +1  164.6535792 +1     6     1     2
  H(HETATM   18 2H6  HET A   1)   1.11571963 +1  109.9486258 +1  -79.9622777 +1     6     1     2
 
 TIME=     0.02
  REACTANTS AND PRODUCTS SWAPPED AROUND
 *+*+*+*+*+*+*+*+*+*+*+*+*+*+*+*+*+*+*+*+*+*+*+*+*+*+*+*+*+*+*+*+*+*+*+*+*+*+*+*+
            BAR SHORTENED BY      20.000 PERCENT
 GRADIENT CRITERION IN FLEPO =    10.000


          FOR POINT   11 FIRST  STRUCTURE
 DISTANCE A - B      0.935690
 HEAT              -19.494182
 GRADIENT NORM      18.678389
 DIRECTION COSINE   -0.187955
 HTML geo-ok
 Transition state for Cyclohexane boat <=> Cyclohexane chair

  C(HETATM    1  C1  HET A   1)   0.00000000 +0    0.0000000 +0    0.0000000 +0
  C(HETATM    2  C2  HET A   1)   1.52900868 +1    0.0000000 +0    0.0000000 +0     1     0     0
  C(HETATM    3  C3  HET A   1)   1.52774324 +1  110.2711264 +1    0.0000000 +0     2     1     0
  C(HETATM    4  C4  HET A   1)   1.52939059 +1  114.0095865 +1   49.4365001 +1     3     2     1
  C(HETATM    5  C5  HET A   1)   1.53204267 +1  118.7708491 +1  -15.0197477 +1     4     3     2
  C(HETATM    6  C6  HET A   1)   1.53236683 +1  110.5269320 +1  -67.5796613 +1     1     2     3
  H(HETATM    7 1H1  HET A   1)   1.10467415 +1  110.0468996 +1  169.9054810 +1     1     2     3
  H(HETATM    8 2H1  HET A   1)   1.10732432 +1  110.2781433 +1   53.9579796 +1     1     2     3
  H(HETATM    9 1H2  HET A   1)   1.10697578 +1  110.3108207 +1 -121.0488158 +1     2     1     3
  H(HETATM   10 2H2  HET A   1)   1.10588571 +1  110.5709188 +1  121.6647698 +1     2     1     3
  H(HETATM   11 1H3  HET A   1)   1.10672705 +1  109.5836571 +1  -73.1936638 +1     3     2     1
  H(HETATM   12 2H3  HET A   1)   1.10720288 +1  109.0638661 +1  171.5467535 +1     3     2     1
  H(HETATM   13 1H4  HET A   1)   1.10579997 +1  108.8614430 +1 -137.5700424 +1     4     3     2
  H(HETATM   14 2H4  HET A   1)   1.11160184 +1  109.4861933 +1  108.7632409 +1     4     3     2
  H(HETATM   15 1H5  HET A   1)   1.10243103 +1  107.4700580 +1 -128.6862341 +1     5     4     3
  H(HETATM   16 2H5  HET A   1)   1.09748531 +1  106.3495580 +1  119.1785474 +1     5     4     3
  H(HETATM   17 1H6  HET A   1)   1.11545522 +1  109.3140006 +1  172.6204985 +1     6     1     2
  H(HETATM   18 2H6  HET A   1)   1.10986990 +1  109.9059926 +1  -72.7006440 +1     6     1     2
 
 TIME=     0.03
  REACTANTS AND PRODUCTS SWAPPED AROUND
 *+*+*+*+*+*+*+*+*+*+*+*+*+*+*+*+*+*+*+*+*+*+*+*+*+*+*+*+*+*+*+*+*+*+*+*+*+*+*+*+
            BAR SHORTENED BY      20.000 PERCENT
 GRADIENT CRITERION IN FLEPO =    10.000


          FOR POINT   12 SECOND STRUCTURE
 DISTANCE A - B      0.748552
 HEAT              -20.049778
 GRADIENT NORM      16.153155
 DIRECTION COSINE   -0.412087
 HTML geo-ok
 Transition state for Cyclohexane boat <=> Cyclohexane chair

  C(HETATM    1  C1  HET A   1)   0.00000000 +0    0.0000000 +0    0.0000000 +0
  C(HETATM    2  C2  HET A   1)   1.53208455 +1    0.0000000 +0    0.0000000 +0     1     0     0
  C(HETATM    3  C3  HET A   1)   1.52921346 +1  110.5768820 +1    0.0000000 +0     2     1     0
  C(HETATM    4  C4  HET A   1)   1.53600584 +1  114.0710360 +1   43.9169606 +1     3     2     1
  C(HETATM    5  C5  HET A   1)   1.53336765 +1  117.7519722 +1    1.1017346 +1     4     3     2
  C(HETATM    6  C6  HET A   1)   1.52847382 +1  110.4772452 +1  -67.6067054 +1     1     2     3
  H(HETATM    7 1H1  HET A   1)   1.10447941 +1  109.9602718 +1  170.8834813 +1     1     2     3
  H(HETATM    8 2H1  HET A   1)   1.10387853 +1  110.1210831 +1   54.2519351 +1     1     2     3
  H(HETATM    9 1H2  HET A   1)   1.10494318 +1  110.0790105 +1 -120.9802805 +1     2     1     3
  H(HETATM   10 2H2  HET A   1)   1.10447529 +1  110.1921027 +1  121.8643561 +1     2     1     3
  H(HETATM   11 1H3  HET A   1)   1.10667519 +1  109.6194169 +1  -78.0927389 +1     3     2     1
  H(HETATM   12 2H3  HET A   1)   1.10750603 +1  109.2448727 +1  166.2282489 +1     3     2     1
  H(HETATM   13 1H4  HET A   1)   1.11789164 +1  109.6801347 +1 -123.3092655 +1     4     3     2
  H(HETATM   14 2H4  HET A   1)   1.11217521 +1  109.4585043 +1  122.8331718 +1     4     3     2
  H(HETATM   15 1H5  HET A   1)   1.10743020 +1  106.7304497 +1 -149.9789656 +1     5     4     3
  H(HETATM   16 2H5  HET A   1)   1.10022843 +1  106.8173955 +1   97.1297054 +1     5     4     3
  H(HETATM   17 1H6  HET A   1)   1.11144662 +1  109.8160324 +1  166.2876981 +1     6     1     2
  H(HETATM   18 2H6  HET A   1)   1.11017908 +1  109.8779992 +1  -78.4877286 +1     6     1     2
 
 TIME=     0.02
  REACTANTS AND PRODUCTS SWAPPED AROUND
 *+*+*+*+*+*+*+*+*+*+*+*+*+*+*+*+*+*+*+*+*+*+*+*+*+*+*+*+*+*+*+*+*+*+*+*+*+*+*+*+
            BAR SHORTENED BY      20.000 PERCENT
 GRADIENT CRITERION IN FLEPO =    10.000


          FOR POINT   13 FIRST  STRUCTURE
 DISTANCE A - B      0.598841
 HEAT              -19.519037
 GRADIENT NORM      23.392944
 DIRECTION COSINE   -0.156339
 HTML geo-ok
 Transition state for Cyclohexane boat <=> Cyclohexane chair

  C(HETATM    1  C1  HET A   1)   0.00000000 +0    0.0000000 +0    0.0000000 +0
  C(HETATM    2  C2  HET A   1)   1.53054618 +1    0.0000000 +0    0.0000000 +0     1     0     0
  C(HETATM    3  C3  HET A   1)   1.52889814 +1  110.3773692 +1    0.0000000 +0     2     1     0
  C(HETATM    4  C4  HET A   1)   1.53107917 +1  114.1176213 +1   48.3068515 +1     3     2     1
  C(HETATM    5  C5  HET A   1)   1.53834161 +1  118.5503835 +1  -11.6495331 +1     4     3     2
  C(HETATM    6  C6  HET A   1)   1.52769759 +1  110.4817156 +1  -67.7460714 +1     1     2     3
  H(HETATM    7 1H1  HET A   1)   1.10424862 +1  110.1076425 +1  170.6789747 +1     1     2     3
  H(HETATM    8 2H1  HET A   1)   1.10707794 +1  109.9002222 +1   53.6637317 +1     1     2     3
  H(HETATM    9 1H2  HET A   1)   1.10559429 +1  110.2302933 +1 -121.4015963 +1     2     1     3
  H(HETATM   10 2H2  HET A   1)   1.10997908 +1  110.1522586 +1  121.8820050 +1     2     1     3
  H(HETATM   11 1H3  HET A   1)   1.10466563 +1  108.0549799 +1  -74.5303012 +1     3     2     1
  H(HETATM   12 2H3  HET A   1)   1.11364994 +1  109.4486993 +1  170.9145078 +1     3     2     1
  H(HETATM   13 1H4  HET A   1)   1.11950066 +1  108.2898660 +1 -134.8233382 +1     4     3     2
  H(HETATM   14 2H4  HET A   1)   1.12768197 +1  108.0716319 +1  111.8611243 +1     4     3     2
  H(HETATM   15 1H5  HET A   1)   1.10655679 +1  107.0867164 +1 -132.9696256 +1     5     4     3
  H(HETATM   16 2H5  HET A   1)   1.11594345 +1  106.6688393 +1  113.9613573 +1     5     4     3
  H(HETATM   17 1H6  HET A   1)   1.09701274 +1  109.7685099 +1  170.6569910 +1     6     1     2
  H(HETATM   18 2H6  HET A   1)   1.10910199 +1  109.4427028 +1  -74.1513800 +1     6     1     2
 
 TIME=     0.02
  REACTANTS AND PRODUCTS SWAPPED AROUND
 *+*+*+*+*+*+*+*+*+*+*+*+*+*+*+*+*+*+*+*+*+*+*+*+*+*+*+*+*+*+*+*+*+*+*+*+*+*+*+*+
            BAR SHORTENED BY      20.000 PERCENT
 GRADIENT CRITERION IN FLEPO =    10.000


          FOR POINT   14 SECOND STRUCTURE
 DISTANCE A - B      0.479073
 HEAT              -20.084552
 GRADIENT NORM      14.951381
 DIRECTION COSINE    0.004286
 HTML geo-ok
 Transition state for Cyclohexane boat <=> Cyclohexane chair

  C(HETATM    1  C1  HET A   1)   0.00000000 +0    0.0000000 +0    0.0000000 +0
  C(HETATM    2  C2  HET A   1)   1.53101360 +1    0.0000000 +0    0.0000000 +0     1     0     0
  C(HETATM    3  C3  HET A   1)   1.52934975 +1  110.4742516 +1    0.0000000 +0     2     1     0
  C(HETATM    4  C4  HET A   1)   1.53711286 +1  114.4100302 +1   45.4063424 +1     3     2     1
  C(HETATM    5  C5  HET A   1)   1.54268347 +1  117.5885177 +1   -1.1514912 +1     4     3     2
  C(HETATM    6  C6  HET A   1)   1.53606978 +1  109.8575098 +1  -68.1469005 +1     1     2     3
  H(HETATM    7 1H1  HET A   1)   1.10332121 +1  110.2273104 +1  170.9544574 +1     1     2     3
  H(HETATM    8 2H1  HET A   1)   1.09745360 +1  110.2666358 +1   53.3579924 +1     1     2     3
  H(HETATM    9 1H2  HET A   1)   1.10605093 +1  109.8877654 +1 -121.1314303 +1     2     1     3
  H(HETATM   10 2H2  HET A   1)   1.09846486 +1  110.3837411 +1  121.8317016 +1     2     1     3
  H(HETATM   11 1H3  HET A   1)   1.10644009 +1  109.2791746 +1  -77.1182839 +1     3     2     1
  H(HETATM   12 2H3  HET A   1)   1.10829595 +1  109.9708557 +1  168.2152411 +1     3     2     1
  H(HETATM   13 1H4  HET A   1)   1.10296384 +1  108.7251737 +1 -125.4779928 +1     4     3     2
  H(HETATM   14 2H4  HET A   1)   1.11134261 +1  108.3329103 +1  120.5667118 +1     4     3     2
  H(HETATM   15 1H5  HET A   1)   1.10977082 +1  106.9568980 +1 -146.4813845 +1     5     4     3
  H(HETATM   16 2H5  HET A   1)   1.11335367 +1  108.1382789 +1  100.8743164 +1     5     4     3
  H(HETATM   17 1H6  HET A   1)   1.10806663 +1  109.2448441 +1  167.4007755 +1     6     1     2
  H(HETATM   18 2H6  HET A   1)   1.10766272 +1  108.9100402 +1  -77.9703681 +1     6     1     2
 
 *+*+*+*+*+*+*+*+*+*+*+*+*+*+*+*+*+*+*+*+*+*+*+*+*+*+*+*+*+*+*+*+*+*+*+*+*+*+*+*+
            BAR SHORTENED BY      20.000 PERCENT
 GRADIENT CRITERION IN FLEPO =    10.000


          FOR POINT   15 SECOND STRUCTURE
 DISTANCE A - B      0.383258
 HEAT              -20.022419
 GRADIENT NORM       7.186205
 DIRECTION COSINE    0.274976
 HTML geo-ok
 Transition state for Cyclohexane boat <=> Cyclohexane chair

  C(HETATM    1  C1  HET A   1)   0.00000000 +0    0.0000000 +0    0.0000000 +0
  C(HETATM    2  C2  HET A   1)   1.52790034 +1    0.0000000 +0    0.0000000 +0     1     0     0
  C(HETATM    3  C3  HET A   1)   1.53029750 +1  110.5630488 +1    0.0000000 +0     2     1     0
  C(HETATM    4  C4  HET A   1)   1.53576140 +1  114.1493537 +1   45.9714003 +1     3     2     1
  C(HETATM    5  C5  HET A   1)   1.53931031 +1  118.1116676 +1   -3.3253174 +1     4     3     2
  C(HETATM    6  C6  HET A   1)   1.53021336 +1  110.1459111 +1  -68.0746868 +1     1     2     3
  H(HETATM    7 1H1  HET A   1)   1.10794753 +1  110.2734214 +1  170.6403965 +1     1     2     3
  H(HETATM    8 2H1  HET A   1)   1.10326082 +1  110.1981281 +1   53.5745174 +1     1     2     3
  H(HETATM    9 1H2  HET A   1)   1.10623647 +1  110.2219475 +1 -121.4926106 +1     2     1     3
  H(HETATM   10 2H2  HET A   1)   1.10584941 +1  110.3007272 +1  121.8564671 +1     2     1     3
  H(HETATM   11 1H3  HET A   1)   1.11110596 +1  108.8969467 +1  -76.5556019 +1     3     2     1
  H(HETATM   12 2H3  HET A   1)   1.10611545 +1  109.7691822 +1  168.6211680 +1     3     2     1
  H(HETATM   13 1H4  HET A   1)   1.10953138 +1  108.4510269 +1 -127.2880496 +1     4     3     2
  H(HETATM   14 2H4  HET A   1)   1.10994519 +1  108.4288317 +1  119.0794036 +1     4     3     2
  H(HETATM   15 1H5  HET A   1)   1.10753444 +1  107.2503580 +1 -143.4633410 +1     5     4     3
  H(HETATM   16 2H5  HET A   1)   1.10805462 +1  107.9158487 +1  103.6480470 +1     5     4     3
  H(HETATM   17 1H6  HET A   1)   1.10903433 +1  109.4677269 +1  167.8822483 +1     6     1     2
  H(HETATM   18 2H6  HET A   1)   1.10772603 +1  109.0591747 +1  -77.2063396 +1     6     1     2
 
 *+*+*+*+*+*+*+*+*+*+*+*+*+*+*+*+*+*+*+*+*+*+*+*+*+*+*+*+*+*+*+*+*+*+*+*+*+*+*+*+
            BAR SHORTENED BY      20.000 PERCENT
 GRADIENT CRITERION IN FLEPO =     4.186


          FOR POINT   16 SECOND STRUCTURE
 DISTANCE A - B      0.306607
 HEAT              -19.988004
 GRADIENT NORM       5.785449
 DIRECTION COSINE    0.307179
 HTML geo-ok
 Transition state for Cyclohexane boat <=> Cyclohexane chair

  C(HETATM    1  C1  HET A   1)   0.00000000 +0    0.0000000 +0    0.0000000 +0
  C(HETATM    2  C2  HET A   1)   1.52996574 +1    0.0000000 +0    0.0000000 +0     1     0     0
  C(HETATM    3  C3  HET A   1)   1.53016270 +1  110.3503203 +1    0.0000000 +0     2     1     0
  C(HETATM    4  C4  HET A   1)   1.53678485 +1  114.1761087 +1   46.6774898 +1     3     2     1
  C(HETATM    5  C5  HET A   1)   1.53995206 +1  118.3642277 +1   -5.0607387 +1     4     3     2
  C(HETATM    6  C6  HET A   1)   1.52673642 +1  110.0117951 +1  -68.1627029 +1     1     2     3
  H(HETATM    7 1H1  HET A   1)   1.10649427 +1  110.1489206 +1  170.2890298 +1     1     2     3
  H(HETATM    8 2H1  HET A   1)   1.10480313 +1  110.0344720 +1   53.4251131 +1     1     2     3
  H(HETATM    9 1H2  HET A   1)   1.10528431 +1  110.2491587 +1 -121.3266626 +1     2     1     3
  H(HETATM   10 2H2  HET A   1)   1.10751830 +1  110.1497686 +1  121.7814918 +1     2     1     3
  H(HETATM   11 1H3  HET A   1)   1.10710072 +1  109.0380154 +1  -75.7935879 +1     3     2     1
  H(HETATM   12 2H3  HET A   1)   1.10774088 +1  109.4031133 +1  169.2861491 +1     3     2     1
  H(HETATM   13 1H4  HET A   1)   1.10780494 +1  108.4123546 +1 -128.9236905 +1     4     3     2
  H(HETATM   14 2H4  HET A   1)   1.10963515 +1  108.4316576 +1  117.4355639 +1     4     3     2
  H(HETATM   15 1H5  HET A   1)   1.10542245 +1  107.4225242 +1 -141.0604115 +1     5     4     3
  H(HETATM   16 2H5  HET A   1)   1.10894801 +1  107.7731527 +1  106.0515096 +1     5     4     3
  H(HETATM   17 1H6  HET A   1)   1.10503827 +1  109.4395168 +1  168.4470218 +1     6     1     2
  H(HETATM   18 2H6  HET A   1)   1.10700516 +1  109.0682194 +1  -76.8762814 +1     6     1     2
 
 TIME=     0.08
  REACTANTS AND PRODUCTS SWAPPED AROUND
 *+*+*+*+*+*+*+*+*+*+*+*+*+*+*+*+*+*+*+*+*+*+*+*+*+*+*+*+*+*+*+*+*+*+*+*+*+*+*+*+
            BAR SHORTENED BY       0.000 PERCENT
 GRADIENT CRITERION IN FLEPO =     2.785
           THERE HAVE BEEN 3 ATTEMPTS TO REDUCE THE GRADIENT.
           DURING THESE ATTEMPTS THE ENERGY DROPPED BY LESS THAN 0.3 KCAL/MOLE
           FURTHER CALCULATION IS NOT JUSTIFIED AT THIS TIME.
           TO CONTINUE, START AGAIN WITH THE WORD "PRECISE"


          FOR POINT   17 FIRST  STRUCTURE
 DISTANCE A - B      0.306607
 HEAT              -19.912628
 GRADIENT NORM      10.259674
 DIRECTION COSINE    0.030541
 HTML geo-ok
 Transition state for Cyclohexane boat <=> Cyclohexane chair

  C(HETATM    1  C1  HET A   1)   0.00000000 +0    0.0000000 +0    0.0000000 +0
  C(HETATM    2  C2  HET A   1)   1.53305677 +1    0.0000000 +0    0.0000000 +0     1     0     0
  C(HETATM    3  C3  HET A   1)   1.52867629 +1  109.9997553 +1    0.0000000 +0     2     1     0
  C(HETATM    4  C4  HET A   1)   1.53782048 +1  114.0570772 +1   49.1118942 +1     3     2     1
  C(HETATM    5  C5  HET A   1)   1.54223145 +1  118.7429355 +1  -11.5709612 +1     4     3     2
  C(HETATM    6  C6  HET A   1)   1.52647253 +1  109.8231127 +1  -68.3300272 +1     1     2     3
  H(HETATM    7 1H1  HET A   1)   1.10522168 +1  110.1816903 +1  170.2721363 +1     1     2     3
  H(HETATM    8 2H1  HET A   1)   1.10037326 +1  110.1486268 +1   53.1215072 +1     1     2     3
  H(HETATM    9 1H2  HET A   1)   1.10988737 +1  110.4781986 +1 -120.7840621 +1     2     1     3
  H(HETATM   10 2H2  HET A   1)   1.10510728 +1  110.2860993 +1  122.2772185 +1     2     1     3
  H(HETATM   11 1H3  HET A   1)   1.10761688 +1  109.0983289 +1  -73.3295648 +1     3     2     1
  H(HETATM   12 2H3  HET A   1)   1.10612836 +1  109.2816513 +1  172.0212258 +1     3     2     1
  H(HETATM   13 1H4  HET A   1)   1.10888732 +1  108.0870869 +1 -135.2554635 +1     4     3     2
  H(HETATM   14 2H4  HET A   1)   1.10699674 +1  108.3942332 +1  111.5221987 +1     4     3     2
  H(HETATM   15 1H5  HET A   1)   1.10848370 +1  108.0140139 +1 -132.1077915 +1     5     4     3
  H(HETATM   16 2H5  HET A   1)   1.10647133 +1  107.4961466 +1  114.7813950 +1     5     4     3
  H(HETATM   17 1H6  HET A   1)   1.10921323 +1  109.4456840 +1  171.0307566 +1     6     1     2
  H(HETATM   18 2H6  HET A   1)   1.11509070 +1  109.0256466 +1  -74.5091439 +1     6     1     2
 
 TIME=     0.05
  REACTANTS AND PRODUCTS SWAPPED AROUND
 *+*+*+*+*+*+*+*+*+*+*+*+*+*+*+*+*+*+*+*+*+*+*+*+*+*+*+*+*+*+*+*+*+*+*+*+*+*+*+*+
            BAR SHORTENED BY      20.000 PERCENT
 GRADIENT CRITERION IN FLEPO =     7.260


          FOR POINT   18 SECOND STRUCTURE
 DISTANCE A - B      0.245285
 HEAT              -19.947219
 GRADIENT NORM       5.420016
 DIRECTION COSINE   -0.370410
 HTML geo-ok
 Transition state for Cyclohexane boat <=> Cyclohexane chair

  C(HETATM    1  C1  HET A   1)   0.00000000 +0    0.0000000 +0    0.0000000 +0
  C(HETATM    2  C2  HET A   1)   1.53058392 +1    0.0000000 +0    0.0000000 +0     1     0     0
  C(HETATM    3  C3  HET A   1)   1.52985963 +1  110.2802929 +1    0.0000000 +0     2     1     0
  C(HETATM    4  C4  HET A   1)   1.53684446 +1  114.1571272 +1   47.1651646 +1     3     2     1
  C(HETATM    5  C5  HET A   1)   1.53990696 +1  118.4758055 +1   -6.3579859 +1     4     3     2
  C(HETATM    6  C6  HET A   1)   1.52668248 +1  109.9740555 +1  -68.1962443 +1     1     2     3
  H(HETATM    7 1H1  HET A   1)   1.10623884 +1  110.1554975 +1  170.2855357 +1     1     2     3
  H(HETATM    8 2H1  HET A   1)   1.10391679 +1  110.0572595 +1   53.3643820 +1     1     2     3
  H(HETATM    9 1H2  HET A   1)   1.10620090 +1  110.2951891 +1 -121.2179467 +1     2     1     3
  H(HETATM   10 2H2  HET A   1)   1.10703398 +1  110.1770437 +1  121.8805749 +1     2     1     3
  H(HETATM   11 1H3  HET A   1)   1.10705671 +1  109.0507599 +1  -75.3007187 +1     3     2     1
  H(HETATM   12 2H3  HET A   1)   1.10724378 +1  109.3809420 +1  169.8329261 +1     3     2     1
  H(HETATM   13 1H4  HET A   1)   1.10726390 +1  108.3424692 +1 -130.1934633 +1     4     3     2
  H(HETATM   14 2H4  HET A   1)   1.10843187 +1  108.4218783 +1  116.2574911 +1     4     3     2
  H(HETATM   15 1H5  HET A   1)   1.10516998 +1  107.5194869 +1 -139.2802739 +1     5     4     3
  H(HETATM   16 2H5  HET A   1)   1.10759541 +1  107.7036246 +1  107.7982208 +1     5     4     3
  H(HETATM   17 1H6  HET A   1)   1.10571577 +1  109.4443187 +1  168.9651813 +1     6     1     2
  H(HETATM   18 2H6  HET A   1)   1.10847922 +1  109.0610378 +1  -76.4000133 +1     6     1     2
 
 TIME=     0.02
  REACTANTS AND PRODUCTS SWAPPED AROUND
 *+*+*+*+*+*+*+*+*+*+*+*+*+*+*+*+*+*+*+*+*+*+*+*+*+*+*+*+*+*+*+*+*+*+*+*+*+*+*+*+
            BAR SHORTENED BY      20.000 PERCENT
 GRADIENT CRITERION IN FLEPO =     2.420


          FOR POINT   19 FIRST  STRUCTURE
 DISTANCE A - B      0.196228
 HEAT              -19.926515
 GRADIENT NORM       6.606299
 DIRECTION COSINE   -0.328035
 HTML geo-ok
 Transition state for Cyclohexane boat <=> Cyclohexane chair

  C(HETATM    1  C1  HET A   1)   0.00000000 +0    0.0000000 +0    0.0000000 +0
  C(HETATM    2  C2  HET A   1)   1.52941304 +1    0.0000000 +0    0.0000000 +0     1     0     0
  C(HETATM    3  C3  HET A   1)   1.52880365 +1  110.0588481 +1    0.0000000 +0     2     1     0
  C(HETATM    4  C4  HET A   1)   1.53422165 +1  114.2721212 +1   48.5240721 +1     3     2     1
  C(HETATM    5  C5  HET A   1)   1.54295292 +1  118.7125682 +1  -10.5462906 +1     4     3     2
  C(HETATM    6  C6  HET A   1)   1.52662150 +1  109.9608198 +1  -68.1270639 +1     1     2     3
  H(HETATM    7 1H1  HET A   1)   1.10411278 +1  110.3682202 +1  170.2022387 +1     1     2     3
  H(HETATM    8 2H1  HET A   1)   1.10626620 +1  110.1131886 +1   53.3142243 +1     1     2     3
  H(HETATM    9 1H2  HET A   1)   1.10503197 +1  110.6126152 +1 -121.0141993 +1     2     1     3
  H(HETATM   10 2H2  HET A   1)   1.10648982 +1  110.1366400 +1  121.7642761 +1     2     1     3
  H(HETATM   11 1H3  HET A   1)   1.11129959 +1  109.0711971 +1  -73.8900445 +1     3     2     1
  H(HETATM   12 2H3  HET A   1)   1.10930895 +1  109.4814262 +1  171.4575272 +1     3     2     1
  H(HETATM   13 1H4  HET A   1)   1.10872573 +1  108.2526115 +1 -133.9706379 +1     4     3     2
  H(HETATM   14 2H4  HET A   1)   1.10981883 +1  108.6048918 +1  112.5703164 +1     4     3     2
  H(HETATM   15 1H5  HET A   1)   1.10742563 +1  108.0429519 +1 -133.5225350 +1     5     4     3
  H(HETATM   16 2H5  HET A   1)   1.10935185 +1  107.5662945 +1  113.2371841 +1     5     4     3
  H(HETATM   17 1H6  HET A   1)   1.10519588 +1  109.4977914 +1  170.3698950 +1     6     1     2
  H(HETATM   18 2H6  HET A   1)   1.10911083 +1  109.0311511 +1  -74.8993736 +1     6     1     2
 
 TIME=     0.02
  REACTANTS AND PRODUCTS SWAPPED AROUND
 *+*+*+*+*+*+*+*+*+*+*+*+*+*+*+*+*+*+*+*+*+*+*+*+*+*+*+*+*+*+*+*+*+*+*+*+*+*+*+*+
            BAR SHORTENED BY      20.000 PERCENT
 GRADIENT CRITERION IN FLEPO =     3.606


          FOR POINT   20 SECOND STRUCTURE
 DISTANCE A - B      0.156983
 HEAT              -19.957901
 GRADIENT NORM       5.515843
 DIRECTION COSINE   -0.012544
 HTML geo-ok
 Transition state for Cyclohexane boat <=> Cyclohexane chair

  C(HETATM    1  C1  HET A   1)   0.00000000 +0    0.0000000 +0    0.0000000 +0
  C(HETATM    2  C2  HET A   1)   1.52974605 +1    0.0000000 +0    0.0000000 +0     1     0     0
  C(HETATM    3  C3  HET A   1)   1.52877140 +1  110.0460341 +1    0.0000000 +0     2     1     0
  C(HETATM    4  C4  HET A   1)   1.53790381 +1  114.2676670 +1   47.7379965 +1     3     2     1
  C(HETATM    5  C5  HET A   1)   1.54152794 +1  118.3966727 +1   -7.3687373 +1     4     3     2
  C(HETATM    6  C6  HET A   1)   1.52901840 +1  109.9043054 +1  -68.4054613 +1     1     2     3
  H(HETATM    7 1H1  HET A   1)   1.10591399 +1  110.4250616 +1  170.1268178 +1     1     2     3
  H(HETATM    8 2H1  HET A   1)   1.10947334 +1  109.9867137 +1   53.3832254 +1     1     2     3
  H(HETATM    9 1H2  HET A   1)   1.10682839 +1  110.1961122 +1 -121.1725982 +1     2     1     3
  H(HETATM   10 2H2  HET A   1)   1.10319804 +1  110.2329871 +1  121.9156443 +1     2     1     3
  H(HETATM   11 1H3  HET A   1)   1.10638457 +1  109.1364299 +1  -74.7283505 +1     3     2     1
  H(HETATM   12 2H3  HET A   1)   1.10667176 +1  109.2551508 +1  170.4019725 +1     3     2     1
  H(HETATM   13 1H4  HET A   1)   1.10934481 +1  108.2339642 +1 -130.9826749 +1     4     3     2
  H(HETATM   14 2H4  HET A   1)   1.10984881 +1  108.4659136 +1  115.4776598 +1     4     3     2
  H(HETATM   15 1H5  HET A   1)   1.10909239 +1  107.5280740 +1 -137.9534076 +1     5     4     3
  H(HETATM   16 2H5  HET A   1)   1.10988971 +1  107.8905933 +1  109.0691252 +1     5     4     3
  H(HETATM   17 1H6  HET A   1)   1.10828840 +1  109.3267394 +1  169.3507053 +1     6     1     2
  H(HETATM   18 2H6  HET A   1)   1.10714954 +1  108.9926945 +1  -75.8730603 +1     6     1     2
 
 TIME=     0.02
  REACTANTS AND PRODUCTS SWAPPED AROUND
 *+*+*+*+*+*+*+*+*+*+*+*+*+*+*+*+*+*+*+*+*+*+*+*+*+*+*+*+*+*+*+*+*+*+*+*+*+*+*+*+
            BAR SHORTENED BY      20.000 PERCENT
 GRADIENT CRITERION IN FLEPO =     2.516


          FOR POINT   21 FIRST  STRUCTURE
 DISTANCE A - B      0.125586
 HEAT              -19.960502
 GRADIENT NORM       3.567944
 DIRECTION COSINE   -0.287088
 HTML geo-ok
 Transition state for Cyclohexane boat <=> Cyclohexane chair

  C(HETATM    1  C1  HET A   1)   0.00000000 +0    0.0000000 +0    0.0000000 +0
  C(HETATM    2  C2  HET A   1)   1.52904927 +1    0.0000000 +0    0.0000000 +0     1     0     0
  C(HETATM    3  C3  HET A   1)   1.52904322 +1  109.9899690 +1    0.0000000 +0     2     1     0
  C(HETATM    4  C4  HET A   1)   1.53705863 +1  114.1834159 +1   48.5461654 +1     3     2     1
  C(HETATM    5  C5  HET A   1)   1.54226753 +1  118.6966239 +1   -9.8633702 +1     4     3     2
  C(HETATM    6  C6  HET A   1)   1.52845551 +1  109.8681425 +1  -68.4138183 +1     1     2     3
  H(HETATM    7 1H1  HET A   1)   1.10720449 +1  110.4050906 +1  169.7614236 +1     1     2     3
  H(HETATM    8 2H1  HET A   1)   1.10640640 +1  110.1301526 +1   53.0330184 +1     1     2     3
  H(HETATM    9 1H2  HET A   1)   1.10623228 +1  110.3727921 +1 -121.3284239 +1     2     1     3
  H(HETATM   10 2H2  HET A   1)   1.10739886 +1  110.1390970 +1  121.7375328 +1     2     1     3
  H(HETATM   11 1H3  HET A   1)   1.10795519 +1  109.0329426 +1  -73.7943455 +1     3     2     1
  H(HETATM   12 2H3  HET A   1)   1.10761413 +1  109.3357807 +1  171.3501703 +1     3     2     1
  H(HETATM   13 1H4  HET A   1)   1.10975712 +1  107.9485496 +1 -133.4038362 +1     4     3     2
  H(HETATM   14 2H4  HET A   1)   1.10917421 +1  108.3805057 +1  113.2453221 +1     4     3     2
  H(HETATM   15 1H5  HET A   1)   1.10838658 +1  107.7639118 +1 -134.2966654 +1     5     4     3
  H(HETATM   16 2H5  HET A   1)   1.10959496 +1  107.8402692 +1  112.6287516 +1     5     4     3
  H(HETATM   17 1H6  HET A   1)   1.10735781 +1  109.3572728 +1  170.3052549 +1     6     1     2
  H(HETATM   18 2H6  HET A   1)   1.10806821 +1  109.0388208 +1  -74.8838469 +1     6     1     2
 
 TIME=     0.03
  REACTANTS AND PRODUCTS SWAPPED AROUND
 *+*+*+*+*+*+*+*+*+*+*+*+*+*+*+*+*+*+*+*+*+*+*+*+*+*+*+*+*+*+*+*+*+*+*+*+*+*+*+*+
            BAR SHORTENED BY      20.000 PERCENT
 GRADIENT CRITERION IN FLEPO =     2.516


          FOR POINT   22 SECOND STRUCTURE
 DISTANCE A - B      0.100469
 HEAT              -19.962408
 GRADIENT NORM       4.115116
 DIRECTION COSINE   -0.518589
 HTML geo-ok
 Transition state for Cyclohexane boat <=> Cyclohexane chair

  C(HETATM    1  C1  HET A   1)   0.00000000 +0    0.0000000 +0    0.0000000 +0
  C(HETATM    2  C2  HET A   1)   1.52951144 +1    0.0000000 +0    0.0000000 +0     1     0     0
  C(HETATM    3  C3  HET A   1)   1.52892559 +1  110.0125531 +1    0.0000000 +0     2     1     0
  C(HETATM    4  C4  HET A   1)   1.53760920 +1  114.2624945 +1   47.9076288 +1     3     2     1
  C(HETATM    5  C5  HET A   1)   1.54153946 +1  118.4735899 +1   -7.8439169 +1     4     3     2
  C(HETATM    6  C6  HET A   1)   1.52897060 +1  109.8788117 +1  -68.4299578 +1     1     2     3
  H(HETATM    7 1H1  HET A   1)   1.10613238 +1  110.4037199 +1  170.0873672 +1     1     2     3
  H(HETATM    8 2H1  HET A   1)   1.10785232 +1  110.0427375 +1   53.3172251 +1     1     2     3
  H(HETATM    9 1H2  HET A   1)   1.10632683 +1  110.2560771 +1 -121.2281142 +1     2     1     3
  H(HETATM   10 2H2  HET A   1)   1.10443513 +1  110.2359274 +1  121.8621537 +1     2     1     3
  H(HETATM   11 1H3  HET A   1)   1.10829612 +1  108.8776828 +1  -74.0080291 +1     3     2     1
  H(HETATM   12 2H3  HET A   1)   1.10696761 +1  109.2794177 +1  170.6408643 +1     3     2     1
  H(HETATM   13 1H4  HET A   1)   1.10882456 +1  108.1621614 +1 -131.4506245 +1     4     3     2
  H(HETATM   14 2H4  HET A   1)   1.10979557 +1  108.4850713 +1  115.1279748 +1     4     3     2
  H(HETATM   15 1H5  HET A   1)   1.10810166 +1  107.6356650 +1 -137.2060479 +1     5     4     3
  H(HETATM   16 2H5  HET A   1)   1.10925095 +1  107.8964596 +1  109.7578591 +1     5     4     3
  H(HETATM   17 1H6  HET A   1)   1.10555431 +1  109.3740138 +1  169.5648063 +1     6     1     2
  H(HETATM   18 2H6  HET A   1)   1.10767057 +1  109.0206549 +1  -75.6470712 +1     6     1     2
 
 TIME=     0.02
  REACTANTS AND PRODUCTS SWAPPED AROUND
 *+*+*+*+*+*+*+*+*+*+*+*+*+*+*+*+*+*+*+*+*+*+*+*+*+*+*+*+*+*+*+*+*+*+*+*+*+*+*+*+
            BAR SHORTENED BY      20.000 PERCENT
 AT END OF STEPWISE ASCENT OF REACTION BARRIER

 -------------------------------------------------------------------------------
 HTML geo-ok
 Transition state for Cyclohexane boat <=> Cyclohexane chair



     TRANSITION STATE LOCATED USING THE "SADDLE" TECHNIQUE    
     SCF FIELD WAS ACHIEVED                                   


                              PM7 CALCULATION
                                                       MOPAC2016 (Version: 21.153W)
                                                       Thu Jun  3 15:48:00 2021
                                                       No. of days remaining = 364




          FINAL H.O.F PLUS STRESS =        -19.96241 KCAL/MOL =     -83.52271 KJ/MOL
          FINAL STRESS            =          0.00000 KCAL/MOL =       0.00000 KJ/MOL
          FINAL HEAT OF FORMATION =        -19.96241 KCAL/MOL =     -83.52271 KJ/MOL
          TOTAL DISTORTION        =          0.06059 Angstroms
          AVERAGE DISTORTION      =          0.00337 Angstroms per atom (all atoms)
          RMS DISTORTION          =          0.00474 Angstroms per atom (all atoms)


          TOTAL ENERGY            =       -899.38097 EV
          ELECTRONIC ENERGY       =      -4316.14978 EV  POINT GROUP:     C1  
          CORE-CORE REPULSION     =       3416.76881 EV
          COSMO AREA              =        135.34 SQUARE ANGSTROMS
          COSMO VOLUME            =        129.22 CUBIC ANGSTROMS

          GRADIENT NORM           =          3.73844 = 0.88116 PER ATOM
          IONIZATION POTENTIAL    =         10.491356 EV
          HOMO LUMO ENERGIES (EV) =        -10.491  4.043
          NO. OF FILLED LEVELS    =         18
          MOLECULAR WEIGHT        =         84.1608

          MOLECULAR DIMENSIONS (Angstroms)

            Atom       Atom       Distance
            H    17    H    12     4.93555
            H     7    H    13     4.20575
            H     8    H    16     3.43983


          SCF CALCULATIONS        =        216
 
          WALL-CLOCK TIME         =          0.812 SECONDS
          COMPUTATION TIME        =          3.063 SECONDS



       FINAL  POINT  AND  DERIVATIVES

   PARAMETER     ATOM    TYPE            VALUE        GRADIENT
      1          1  C    CARTESIAN X    -0.014722     -0.163740  KCAL/ANGSTROM
      2          1  C    CARTESIAN Y    -0.079608     -1.155380  KCAL/ANGSTROM
      3          1  C    CARTESIAN Z    -0.052470      1.380692  KCAL/ANGSTROM
      4          2  C    CARTESIAN X     1.514683      0.033162  KCAL/ANGSTROM
      5          2  C    CARTESIAN Y    -0.085532      0.614572  KCAL/ANGSTROM
      6          2  C    CARTESIAN Z    -0.049913     -0.120542  KCAL/ANGSTROM
      7          3  C    CARTESIAN X     2.043480      1.141205  KCAL/ANGSTROM
      8          3  C    CARTESIAN Y     1.347611     -0.050887  KCAL/ANGSTROM
      9          3  C    CARTESIAN Z    -0.114424      0.040453  KCAL/ANGSTROM
     10          4  C    CARTESIAN X     1.380767      0.103239  KCAL/ANGSTROM
     11          4  C    CARTESIAN Y     2.310697     -0.054203  KCAL/ANGSTROM
     12          4  C    CARTESIAN Z     0.884144     -0.550800  KCAL/ANGSTROM
     13          5  C    CARTESIAN X     0.159376     -0.555194  KCAL/ANGSTROM
     14          5  C    CARTESIAN Y     1.815908     -0.709718  KCAL/ANGSTROM
     15          5  C    CARTESIAN Z     1.684154     -1.064675  KCAL/ANGSTROM
     16          6  C    CARTESIAN X    -0.534439     -1.253015  KCAL/ANGSTROM
     17          6  C    CARTESIAN Y     0.511376      0.383900  KCAL/ANGSTROM
     18          6  C    CARTESIAN Z     1.258281      0.708946  KCAL/ANGSTROM
     19          7  H    CARTESIAN X    -0.404194     -0.081524  KCAL/ANGSTROM
     20          7  H    CARTESIAN Y    -1.106471     -0.742728  KCAL/ANGSTROM
     21          7  H    CARTESIAN Z    -0.186116      0.007782  KCAL/ANGSTROM
     22          8  H    CARTESIAN X    -0.390920     -0.543790  KCAL/ANGSTROM
     23          8  H    CARTESIAN Y     0.505591      0.086632  KCAL/ANGSTROM
     24          8  H    CARTESIAN Z    -0.914275     -0.866708  KCAL/ANGSTROM
     25          9  H    CARTESIAN X     1.897326     -0.196882  KCAL/ANGSTROM
     26          9  H    CARTESIAN Y    -0.665156      0.172530  KCAL/ANGSTROM
     27          9  H    CARTESIAN Z    -0.911038     -0.650404  KCAL/ANGSTROM
     28         10  H    CARTESIAN X     1.893069      0.152002  KCAL/ANGSTROM
     29         10  H    CARTESIAN Y    -0.593340      0.061294  KCAL/ANGSTROM
     30         10  H    CARTESIAN Z     0.855648     -0.707671  KCAL/ANGSTROM
     31         11  H    CARTESIAN X     1.897471     -0.416589  KCAL/ANGSTROM
     32         11  H    CARTESIAN Y     1.738410      0.169269  KCAL/ANGSTROM
     33         11  H    CARTESIAN Z    -1.141128     -0.118090  KCAL/ANGSTROM
     34         12  H    CARTESIAN X     3.137502      0.037413  KCAL/ANGSTROM
     35         12  H    CARTESIAN Y     1.341760     -0.245380  KCAL/ANGSTROM
     36         12  H    CARTESIAN Z     0.055027      0.642222  KCAL/ANGSTROM
     37         13  H    CARTESIAN X     1.088281      0.042241  KCAL/ANGSTROM
     38         13  H    CARTESIAN Y     3.228912      0.488247  KCAL/ANGSTROM
     39         13  H    CARTESIAN Z     0.335443      0.036980  KCAL/ANGSTROM
     40         14  H    CARTESIAN X     2.147864      0.129281  KCAL/ANGSTROM
     41         14  H    CARTESIAN Y     2.643105      0.014959  KCAL/ANGSTROM
     42         14  H    CARTESIAN Z     1.613711      0.470046  KCAL/ANGSTROM
     43         15  H    CARTESIAN X    -0.593292      0.370862  KCAL/ANGSTROM
     44         15  H    CARTESIAN Y     2.629103     -0.044376  KCAL/ANGSTROM
     45         15  H    CARTESIAN Z     1.685726     -0.089126  KCAL/ANGSTROM
     46         16  H    CARTESIAN X     0.468545      0.160399  KCAL/ANGSTROM
     47         16  H    CARTESIAN Y     1.704348     -0.063345  KCAL/ANGSTROM
     48         16  H    CARTESIAN Z     2.743559     -0.057197  KCAL/ANGSTROM
     49         17  H    CARTESIAN X    -1.623729      0.510312  KCAL/ANGSTROM
     50         17  H    CARTESIAN Y     0.683894     -0.090095  KCAL/ANGSTROM
     51         17  H    CARTESIAN Z     1.176438      0.044007  KCAL/ANGSTROM
     52         18  H    CARTESIAN X    -0.414782     -0.266097  KCAL/ANGSTROM
     53         18  H    CARTESIAN Y    -0.238339      0.436612  KCAL/ANGSTROM
     54         18  H    CARTESIAN Z     2.064930      0.107732  KCAL/ANGSTROM




   ATOM                 CHEMICAL                   X               Y               Z
  NUMBER                 SYMBOL               (ANGSTROMS)     (ANGSTROMS)     (ANGSTROMS)
 
     1       C(HETATM    1  C1  HET A   1)   -0.01472211  *  -0.07960754  *  -0.05246990  *
     2       C(HETATM    2  C2  HET A   1)    1.51468310  *  -0.08553186  *  -0.04991316  *
     3       C(HETATM    3  C3  HET A   1)    2.04347973  *   1.34761057  *  -0.11442367  *
     4       C(HETATM    4  C4  HET A   1)    1.38076677  *   2.31069665  *   0.88414426  *
     5       C(HETATM    5  C5  HET A   1)    0.15937607  *   1.81590826  *   1.68415401  *
     6       C(HETATM    6  C6  HET A   1)   -0.53443880  *   0.51137584  *   1.25828145  *
     7       H(HETATM    7 1H1  HET A   1)   -0.40419439  *  -1.10647095  *  -0.18611617  *
     8       H(HETATM    8 2H1  HET A   1)   -0.39091994  *   0.50559083  *  -0.91427537  *
     9       H(HETATM    9 1H2  HET A   1)    1.89732597  *  -0.66515638  *  -0.91103808  *
    10       H(HETATM   10 2H2  HET A   1)    1.89306921  *  -0.59333981  *   0.85564778  *
    11       H(HETATM   11 1H3  HET A   1)    1.89747108  *   1.73841037  *  -1.14112768  *
    12       H(HETATM   12 2H3  HET A   1)    3.13750181  *   1.34176048  *   0.05502659  *
    13       H(HETATM   13 1H4  HET A   1)    1.08828084  *   3.22891237  *   0.33544310  *
    14       H(HETATM   14 2H4  HET A   1)    2.14786375  *   2.64310452  *   1.61371143  *
    15       H(HETATM   15 1H5  HET A   1)   -0.59329188  *   2.62910289  *   1.68572638  *
    16       H(HETATM   16 2H5  HET A   1)    0.46854500  *   1.70434835  *   2.74355895  *
    17       H(HETATM   17 1H6  HET A   1)   -1.62372870  *   0.68389373  *   1.17643811  *
    18       H(HETATM   18 2H6  HET A   1)   -0.41478217  *  -0.23833879  *   2.06493030  *

                             CARTESIAN COORDINATES

   1    C       -0.014722106    -0.079607542    -0.052469904
   2    C        1.514683096    -0.085531856    -0.049913164
   3    C        2.043479727     1.347610572    -0.114423675
   4    C        1.380766774     2.310696654     0.884144259
   5    C        0.159376068     1.815908264     1.684154011
   6    C       -0.534438801     0.511375835     1.258281454
   7    H       -0.404194390    -1.106470952    -0.186116172
   8    H       -0.390919938     0.505590827    -0.914275373
   9    H        1.897325970    -0.665156380    -0.911038083
  10    H        1.893069208    -0.593339811     0.855647782
  11    H        1.897471077     1.738410369    -1.141127683
  12    H        3.137501806     1.341760482     0.055026586
  13    H        1.088280843     3.228912369     0.335443098
  14    H        2.147863750     2.643104525     1.613711433
  15    H       -0.593291881     2.629102887     1.685726381
  16    H        0.468544996     1.704348355     2.743558947
  17    H       -1.623728702     0.683893726     1.176438113
  18    H       -0.414782172    -0.238338785     2.064930297


           Empirical Formula: C6 H12  =    18 atoms



      MOLECULAR POINT GROUP   :   C1  


                  EIGENVALUES  
 -29.73900 -25.86395 -25.81499 -20.98129 -20.76285 -17.87167 -16.25531 -16.01129
 -14.81926 -14.11682 -13.37808 -12.72496 -12.62306 -11.93378 -11.80302 -10.88678
 -10.85202 -10.49136   4.04273   4.11325   4.61385   4.67289   4.79177   5.24398
   5.43152   5.65986   5.96854   5.98132   6.22312   6.33732   6.49583   6.70527
   6.76663   6.82321   6.84033   6.84246


              NET ATOMIC CHARGES AND DIPOLE CONTRIBUTIONS

  ATOM NO.                 TYPE                        CHARGE      No. of ELECS.   s-Pop       p-Pop       
    1          C(HETATM    1  C1  HET A   1)          -0.258155        4.2582     1.05652     3.20164
    2          C(HETATM    2  C2  HET A   1)          -0.258191        4.2582     1.05624     3.20195
    3          C(HETATM    3  C3  HET A   1)          -0.259938        4.2599     1.05752     3.20242
    4          C(HETATM    4  C4  HET A   1)          -0.258967        4.2590     1.05843     3.20054
    5          C(HETATM    5  C5  HET A   1)          -0.258885        4.2589     1.05808     3.20081
    6          C(HETATM    6  C6  HET A   1)          -0.259936        4.2599     1.05708     3.20285
    7          H(HETATM    7 1H1  HET A   1)           0.126769        0.8732     0.87323
    8          H(HETATM    8 2H1  HET A   1)           0.137039        0.8630     0.86296
    9          H(HETATM    9 1H2  HET A   1)           0.126648        0.8734     0.87335
   10          H(HETATM   10 2H2  HET A   1)           0.137031        0.8630     0.86297
   11          H(HETATM   11 1H3  HET A   1)           0.130545        0.8695     0.86946
   12          H(HETATM   12 2H3  HET A   1)           0.127668        0.8723     0.87233
   13          H(HETATM   13 1H4  HET A   1)           0.128186        0.8718     0.87181
   14          H(HETATM   14 2H4  HET A   1)           0.127181        0.8728     0.87282
   15          H(HETATM   15 1H5  HET A   1)           0.127179        0.8728     0.87282
   16          H(HETATM   16 2H5  HET A   1)           0.128124        0.8719     0.87188
   17          H(HETATM   17 1H6  HET A   1)           0.127548        0.8725     0.87245
   18          H(HETATM   18 2H6  HET A   1)           0.130155        0.8698     0.86984
 DIPOLE           X         Y         Z       TOTAL
 POINT-CHG.     0.005     0.056     0.039     0.068
 HYBRID        -0.001     0.044     0.031     0.054
 SUM            0.003     0.100     0.071     0.122


          ATOMIC ORBITAL ELECTRON POPULATIONS

                   Atom                  s        px        py        pz   
   C(HETATM    1  C1  HET A   1)   1.05652   1.01701   1.12481   1.05981
   C(HETATM    2  C2  HET A   1)   1.05624   1.01669   1.03255   1.15272
   C(HETATM    3  C3  HET A   1)   1.05752   1.09793   1.01048   1.09401
   C(HETATM    4  C4  HET A   1)   1.05843   1.05473   1.06977   1.07605
   C(HETATM    5  C5  HET A   1)   1.05808   1.05353   1.05282   1.09446
   C(HETATM    6  C6  HET A   1)   1.05708   1.09618   1.04850   1.05817
   H(HETATM    7 1H1  HET A   1)   0.87323
   H(HETATM    8 2H1  HET A   1)   0.86296
   H(HETATM    9 1H2  HET A   1)   0.87335
   H(HETATM   10 2H2  HET A   1)   0.86297
   H(HETATM   11 1H3  HET A   1)   0.86946
   H(HETATM   12 2H3  HET A   1)   0.87233
   H(HETATM   13 1H4  HET A   1)   0.87181
   H(HETATM   14 2H4  HET A   1)   0.87282
   H(HETATM   15 1H5  HET A   1)   0.87282
   H(HETATM   16 2H5  HET A   1)   0.87188
   H(HETATM   17 1H6  HET A   1)   0.87245
   H(HETATM   18 2H6  HET A   1)   0.86984
 BEST ESTIMATE GEOMETRY OF THE TRANSITION STATE


           C1=   0.524     C2=   0.476

 -------------------------------------------------------------------------------
 HTML geo-ok
 Transition state for Cyclohexane boat <=> Cyclohexane chair



     TRANSITION STATE LOCATED USING THE "SADDLE" TECHNIQUE    
     SCF FIELD WAS ACHIEVED                                   


                              PM7 CALCULATION
                                                       MOPAC2016 (Version: 21.153W)
                                                       Thu Jun  3 15:48:00 2021
                                                       No. of days remaining = 364




          FINAL H.O.F PLUS STRESS =        -19.95930 KCAL/MOL =     -83.50972 KJ/MOL
          FINAL STRESS            =          0.00000 KCAL/MOL =       0.00000 KJ/MOL
          FINAL HEAT OF FORMATION =        -19.95930 KCAL/MOL =     -83.50972 KJ/MOL
          TOTAL DISTORTION        =          0.15874 Angstroms
          AVERAGE DISTORTION      =          0.00882 Angstroms per atom (all atoms)
          RMS DISTORTION          =          0.01241 Angstroms per atom (all atoms)


          TOTAL ENERGY            =       -899.38090 EV
          ELECTRONIC ENERGY       =      -4315.91928 EV  POINT GROUP:     C1  
          CORE-CORE REPULSION     =       3416.53838 EV
          COSMO AREA              =        135.26 SQUARE ANGSTROMS
          COSMO VOLUME            =        129.16 CUBIC ANGSTROMS

          GRADIENT NORM           =          3.30601 = 0.77923 PER ATOM
          IONIZATION POTENTIAL    =         10.491036 EV
          HOMO LUMO ENERGIES (EV) =        -10.491  4.044
          NO. OF FILLED LEVELS    =         18
          MOLECULAR WEIGHT        =         84.1608

          MOLECULAR DIMENSIONS (Angstroms)

            Atom       Atom       Distance
            H    17    H    12     4.93895
            H     7    H    13     4.20922
            H     8    H    16     3.42750


          SCF CALCULATIONS        =          1
 
          WALL-CLOCK TIME         =          0.844 SECONDS
          COMPUTATION TIME        =          3.188 SECONDS



       FINAL  POINT  AND  DERIVATIVES

   PARAMETER     ATOM    TYPE            VALUE        GRADIENT
      1          1  C    CARTESIAN X    -0.013962     -0.058818  KCAL/ANGSTROM
      2          1  C    CARTESIAN Y    -0.080256     -0.993866  KCAL/ANGSTROM
      3          1  C    CARTESIAN Z    -0.052140      1.437584  KCAL/ANGSTROM
      4          2  C    CARTESIAN X     1.515296     -0.201130  KCAL/ANGSTROM
      5          2  C    CARTESIAN Y    -0.085752      0.786083  KCAL/ANGSTROM
      6          2  C    CARTESIAN Z    -0.050037     -0.488694  KCAL/ANGSTROM
      7          3  C    CARTESIAN X     2.043502      0.989933  KCAL/ANGSTROM
      8          3  C    CARTESIAN Y     1.347639      0.243882  KCAL/ANGSTROM
      9          3  C    CARTESIAN Z    -0.114745      0.177398  KCAL/ANGSTROM
     10          4  C    CARTESIAN X     1.383923      0.147832  KCAL/ANGSTROM
     11          4  C    CARTESIAN Y     2.308708     -0.146175  KCAL/ANGSTROM
     12          4  C    CARTESIAN Z     0.887548     -0.398723  KCAL/ANGSTROM
     13          5  C    CARTESIAN X     0.156040     -0.396632  KCAL/ANGSTROM
     14          5  C    CARTESIAN Y     1.818908     -0.579593  KCAL/ANGSTROM
     15          5  C    CARTESIAN Z     1.681059     -0.738711  KCAL/ANGSTROM
     16          6  C    CARTESIAN X    -0.533311     -1.035123  KCAL/ANGSTROM
     17          6  C    CARTESIAN Y     0.510682      0.560969  KCAL/ANGSTROM
     18          6  C    CARTESIAN Z     1.258583      0.436241  KCAL/ANGSTROM
     19          7  H    CARTESIAN X    -0.403314     -0.060115  KCAL/ANGSTROM
     20          7  H    CARTESIAN Y    -1.107303     -0.888162  KCAL/ANGSTROM
     21          7  H    CARTESIAN Z    -0.187582     -0.120121  KCAL/ANGSTROM
     22          8  H    CARTESIAN X    -0.390930     -0.446079  KCAL/ANGSTROM
     23          8  H    CARTESIAN Y     0.505845      0.059317  KCAL/ANGSTROM
     24          8  H    CARTESIAN Z    -0.912390     -0.425068  KCAL/ANGSTROM
     25          9  H    CARTESIAN X     1.898518     -0.076980  KCAL/ANGSTROM
     26          9  H    CARTESIAN Y    -0.665625      0.227779  KCAL/ANGSTROM
     27          9  H    CARTESIAN Z    -0.910697     -0.601851  KCAL/ANGSTROM
     28         10  H    CARTESIAN X     1.893855      0.354753  KCAL/ANGSTROM
     29         10  H    CARTESIAN Y    -0.593333     -0.112362  KCAL/ANGSTROM
     30         10  H    CARTESIAN Z     0.856750     -0.177776  KCAL/ANGSTROM
     31         11  H    CARTESIAN X     1.896296     -0.058680  KCAL/ANGSTROM
     32         11  H    CARTESIAN Y     1.739596      0.229877  KCAL/ANGSTROM
     33         11  H    CARTESIAN Z    -1.140716     -0.045639  KCAL/ANGSTROM
     34         12  H    CARTESIAN X     3.138411      0.199578  KCAL/ANGSTROM
     35         12  H    CARTESIAN Y     1.342175     -0.124907  KCAL/ANGSTROM
     36         12  H    CARTESIAN Z     0.050247      0.542058  KCAL/ANGSTROM
     37         13  H    CARTESIAN X     1.099792      0.104489  KCAL/ANGSTROM
     38         13  H    CARTESIAN Y     3.231971      0.534507  KCAL/ANGSTROM
     39         13  H    CARTESIAN Z     0.342410     -0.082460  KCAL/ANGSTROM
     40         14  H    CARTESIAN X     2.151140      0.108819  KCAL/ANGSTROM
     41         14  H    CARTESIAN Y     2.631318     -0.014044  KCAL/ANGSTROM
     42         14  H    CARTESIAN Z     1.621005      0.412598  KCAL/ANGSTROM
     43         15  H    CARTESIAN X    -0.597658      0.289506  KCAL/ANGSTROM
     44         15  H    CARTESIAN Y     2.631134     -0.042426  KCAL/ANGSTROM
     45         15  H    CARTESIAN Z     1.670740     -0.057597  KCAL/ANGSTROM
     46         16  H    CARTESIAN X     0.456818      0.218346  KCAL/ANGSTROM
     47         16  H    CARTESIAN Y     1.715316     -0.063976  KCAL/ANGSTROM
     48         16  H    CARTESIAN Z     2.743742     -0.019263  KCAL/ANGSTROM
     49         17  H    CARTESIAN X    -1.623982      0.174104  KCAL/ANGSTROM
     50         17  H    CARTESIAN Y     0.678936     -0.056808  KCAL/ANGSTROM
     51         17  H    CARTESIAN Z     1.178489     -0.019826  KCAL/ANGSTROM
     52         18  H    CARTESIAN X    -0.409094     -0.253804  KCAL/ANGSTROM
     53         18  H    CARTESIAN Y    -0.237278      0.379903  KCAL/ANGSTROM
     54         18  H    CARTESIAN Z     2.066334      0.169847  KCAL/ANGSTROM




   ATOM                 CHEMICAL                   X               Y               Z
  NUMBER                 SYMBOL               (ANGSTROMS)     (ANGSTROMS)     (ANGSTROMS)
 
     1       C(HETATM    1  C1  HET A   1)   -0.01396185  *  -0.08025644  *  -0.05213953  *
     2       C(HETATM    2  C2  HET A   1)    1.51529580  *  -0.08575225  *  -0.05003668  *
     3       C(HETATM    3  C3  HET A   1)    2.04350209  *   1.34763946  *  -0.11474513  *
     4       C(HETATM    4  C4  HET A   1)    1.38392268  *   2.30870828  *   0.88754764  *
     5       C(HETATM    5  C5  HET A   1)    0.15604003  *   1.81890798  *   1.68105920  *
     6       C(HETATM    6  C6  HET A   1)   -0.53331100  *   0.51068248  *   1.25858288  *
     7       H(HETATM    7 1H1  HET A   1)   -0.40331360  *  -1.10730320  *  -0.18758182  *
     8       H(HETATM    8 2H1  HET A   1)   -0.39093038  *   0.50584470  *  -0.91238964  *
     9       H(HETATM    9 1H2  HET A   1)    1.89851758  *  -0.66562491  *  -0.91069732  *
    10       H(HETATM   10 2H2  HET A   1)    1.89385454  *  -0.59333336  *   0.85675036  *
    11       H(HETATM   11 1H3  HET A   1)    1.89629558  *   1.73959612  *  -1.14071625  *
    12       H(HETATM   12 2H3  HET A   1)    3.13841116  *   1.34217484  *   0.05024672  *
    13       H(HETATM   13 1H4  HET A   1)    1.09979199  *   3.23197126  *   0.34241039  *
    14       H(HETATM   14 2H4  HET A   1)    2.15114038  *   2.63131778  *   1.62100502  *
    15       H(HETATM   15 1H5  HET A   1)   -0.59765823  *   2.63113449  *   1.67074040  *
    16       H(HETATM   16 2H5  HET A   1)    0.45681816  *   1.71531593  *   2.74374219  *
    17       H(HETATM   17 1H6  HET A   1)   -1.62398162  *   0.67893552  *   1.17848901  *
    18       H(HETATM   18 2H6  HET A   1)   -0.40909448  *  -0.23727790  *   2.06633388  *

                             CARTESIAN COORDINATES

   1    C       -0.013961853    -0.080256439    -0.052139532
   2    C        1.515295797    -0.085752245    -0.050036677
   3    C        2.043502085     1.347639464    -0.114745130
   4    C        1.383922679     2.308708283     0.887547643
   5    C        0.156040027     1.818907980     1.681059203
   6    C       -0.533310997     0.510682483     1.258582876
   7    H       -0.403313599    -1.107303198    -0.187581824
   8    H       -0.390930376     0.505844704    -0.912389644
   9    H        1.898517584    -0.665624908    -0.910697319
  10    H        1.893854539    -0.593333355     0.856750356
  11    H        1.896295583     1.739596121    -1.140716248
  12    H        3.138411162     1.342174839     0.050246717
  13    H        1.099791989     3.231971260     0.342410392
  14    H        2.151140378     2.631317783     1.621005021
  15    H       -0.597658228     2.631134489     1.670740401
  16    H        0.456818161     1.715315932     2.743742189
  17    H       -1.623981619     0.678935515     1.178489012
  18    H       -0.409094481    -0.237277895     2.066333879


           Empirical Formula: C6 H12  =    18 atoms



      MOLECULAR POINT GROUP   :   C1  


                  EIGENVALUES  
 -29.73600 -25.86286 -25.81321 -20.97613 -20.76155 -17.88378 -16.25539 -15.99287
 -14.81525 -14.12446 -13.38068 -12.72712 -12.62310 -11.92903 -11.79721 -10.88654
 -10.85296 -10.49104   4.04406   4.11256   4.61435   4.67494   4.79249   5.23925
   5.43363   5.65931   5.96856   5.98102   6.22097   6.33429   6.49749   6.70505
   6.76586   6.82321   6.83883   6.84144


              NET ATOMIC CHARGES AND DIPOLE CONTRIBUTIONS

  ATOM NO.                 TYPE                        CHARGE      No. of ELECS.   s-Pop       p-Pop       
    1          C(HETATM    1  C1  HET A   1)          -0.258277        4.2583     1.05644     3.20184
    2          C(HETATM    2  C2  HET A   1)          -0.258138        4.2581     1.05633     3.20181
    3          C(HETATM    3  C3  HET A   1)          -0.260000        4.2600     1.05746     3.20254
    4          C(HETATM    4  C4  HET A   1)          -0.258942        4.2589     1.05840     3.20055
    5          C(HETATM    5  C5  HET A   1)          -0.258850        4.2588     1.05816     3.20069
    6          C(HETATM    6  C6  HET A   1)          -0.259885        4.2599     1.05717     3.20271
    7          H(HETATM    7 1H1  HET A   1)           0.126841        0.8732     0.87316
    8          H(HETATM    8 2H1  HET A   1)           0.137015        0.8630     0.86299
    9          H(HETATM    9 1H2  HET A   1)           0.126630        0.8734     0.87337
   10          H(HETATM   10 2H2  HET A   1)           0.137123        0.8629     0.86288
   11          H(HETATM   11 1H3  HET A   1)           0.130503        0.8695     0.86950
   12          H(HETATM   12 2H3  HET A   1)           0.127601        0.8724     0.87240
   13          H(HETATM   13 1H4  HET A   1)           0.128163        0.8718     0.87184
   14          H(HETATM   14 2H4  HET A   1)           0.127203        0.8728     0.87280
   15          H(HETATM   15 1H5  HET A   1)           0.127217        0.8728     0.87278
   16          H(HETATM   16 2H5  HET A   1)           0.128065        0.8719     0.87194
   17          H(HETATM   17 1H6  HET A   1)           0.127548        0.8725     0.87245
   18          H(HETATM   18 2H6  HET A   1)           0.130185        0.8698     0.86982
 DIPOLE           X         Y         Z       TOTAL
 POINT-CHG.     0.005     0.056     0.040     0.069
 HYBRID        -0.000     0.045     0.030     0.054
 SUM            0.005     0.101     0.070     0.123


          ATOMIC ORBITAL ELECTRON POPULATIONS

                   Atom                  s        px        py        pz   
   C(HETATM    1  C1  HET A   1)   1.05644   1.01706   1.12484   1.05994
   C(HETATM    2  C2  HET A   1)   1.05633   1.01668   1.03246   1.15267
   C(HETATM    3  C3  HET A   1)   1.05746   1.09821   1.01069   1.09365
   C(HETATM    4  C4  HET A   1)   1.05840   1.05411   1.07036   1.07608
   C(HETATM    5  C5  HET A   1)   1.05816   1.05292   1.05255   1.09522
   C(HETATM    6  C6  HET A   1)   1.05717   1.09645   1.04801   1.05826
   H(HETATM    7 1H1  HET A   1)   0.87316
   H(HETATM    8 2H1  HET A   1)   0.86299
   H(HETATM    9 1H2  HET A   1)   0.87337
   H(HETATM   10 2H2  HET A   1)   0.86288
   H(HETATM   11 1H3  HET A   1)   0.86950
   H(HETATM   12 2H3  HET A   1)   0.87240
   H(HETATM   13 1H4  HET A   1)   0.87184
   H(HETATM   14 2H4  HET A   1)   0.87280
   H(HETATM   15 1H5  HET A   1)   0.87278
   H(HETATM   16 2H5  HET A   1)   0.87194
   H(HETATM   17 1H6  HET A   1)   0.87245
   H(HETATM   18 2H6  HET A   1)   0.86982

 **********************
 *                    *
 * JOB ENDED NORMALLY *
 *                    *
 **********************



 TOTAL JOB TIME:             0.86 SECONDS

 == MOPAC DONE ==
