 *******************************************************************************
 ** Site#: 13048        For non-commercial use only     Version 14.205M 64BITS**
 *******************************************************************************
 ** Cite this work as:                                                        **
 **                                                                           **
 ** (a) MOPAC2012, James J. P. Stewart, Stewart Computational Chemistry,      **
 **  Version 14.205M web: HTTP://OpenMOPAC.net         Days remaining: 363    **
 **                                                                           **
 **                                 AND                                       **
 **                                                                           **
 ** (b) Maia, J.D.C., et al., J. Chem. Theory Comput. 2012, 8, 3072-3081.     **
 **                DOI: 10.1021/ct3004645.                                    **
 *******************************************************************************
 **                                                                           **
 **                                MOPAC2012                                  **
 **                                                                           **
 *******************************************************************************

                            PM7 CALCULATION RESULTS


 *******************************************************************************
 *  CALCULATION DONE:                                Sat Jul 26 11:35:11 2014  *
 *  PDBOUT     - PRINT GEOMETY IN PDB FORMAT
 *  MOZYME     - USE LOCALIZED M.O.s IN SOLVING THE SCF EQUATIONS
 *  GEO_REF    - REFERENCE GEOMETRY IS IN FILE "STEP_1_6_TRANSITION_STATE_30P0_FIRST_30P0_SECOND.MOP"
 *
 *
 *
 *                 CHARGE ON SYSTEM =    -1
 *
 *
 *
 *  EPS= 78.400
 *  LOCATE-TS  - LOCATE A TRANSITION STATE IN A PROTEIN MECHANISM
 *  T=         - A TIME OF      1.0 WEEKS   REQUESTED
 *  DUMP=N     - RESTART FILE WRITTEN EVERY  7200.000 SECONDS
 *  GNORM=     - EXIT WHEN GRADIENT NORM DROPS BELOW  10.00
 *******************************************************************************
 EPS=78.4 LOCATE-TS(4,30,30,30,30;set:1)  GEO_REF="Step_1_6_Transition_state_30p0_first_30p0_second.mop" T=1W CHARGE=-1 MOZYME EPS=78.4 GNORM=10 PDBOUT


   ATOM                 CHEMICAL                   X               Y               Z
  NUMBER                 SYMBOL               (ANGSTROMS)     (ANGSTROMS)     (ANGSTROMS)

     1       N(ATOM      1  N   CYS E   1)   13.73217427  *  18.47643860  *  21.61256337  *
     2       C(ATOM      2  CA  CYS E   1)   14.36196160  *  17.99668651  *  22.85962374  *
     3       C(ATOM      3  C   CYS E   1)   13.51070422  *  18.39033309  *  24.07224629  *
     4       O(ATOM      4  O   CYS E   1)   12.65159777  *  19.25090123  *  24.05363311  *
     5       C(ATOM      5  CB  CYS E   1)   15.79846996  *  18.50235797  *  23.03002672  *
     6       S(ATOM      6  SG  CYS E   1)   15.93386858  *  20.25093946  *  23.53953774  *
     7       H(ATOM      7 1H   CYS E   1)   14.37203295  *  18.33941067  *  20.83067712  *
     8       H(ATOM      8 2H   CYS E   1)   13.49194434  *  19.46634502  *  21.66187726  *
     9       H(ATOM      9 1HB  CYS E   1)   16.36855767  *  17.83055978  *  23.69765226  *
    10       H(ATOM     10 2HB  CYS E   1)   16.35265219  *  18.43633503  *  22.05687258  *
    11       H(ATOM     11  HA  CYS E   1)   14.38394844  *  16.86378281  *  22.79518420  *
    12       N(ATOM     12  N   GLY E   2)   13.78911773  *  17.69185613  *  25.22754961  *
    13       C(ATOM     13  CA  GLY E   2)   13.36325054  *  18.19782697  *  26.51979060  *
    14       C(ATOM     14  C   GLY E   2)   11.95956952  *  17.79058347  *  26.94707856  *
    15       O(ATOM     15  O   GLY E   2)   11.73227926  *  17.58734664  *  28.14261211  *
    16       H(ATOM     16 1HA  GLY E   2)   13.38110389  *  19.32462693  *  26.53234432  *
    17       H(ATOM     17 2HA  GLY E   2)   14.09373096  *  17.86686394  *  27.31014415  *
    18       H(ATOM     18  H   GLY E   2)   14.49607851  *  16.96355118  *  25.24055951  *
    19       N(ATOM     19  N   VAL E   3)   10.95749403  *  17.72905371  *  26.03726931  *
    20       C(ATOM     20  CA  VAL E   3)    9.57180064  *  17.59177163  *  26.47938143  *
    21       C(ATOM     21  C   VAL E   3)    9.11158801  *  16.15969373  *  26.17764956  *
    22       O(ATOM     22  O   VAL E   3)    8.73915748  *  15.81355161  *  25.04951712  *
    23       C(ATOM     23  CB  VAL E   3)    8.62842125  *  18.57440199  *  25.73170580  *
    24       C(ATOM     24  CG1 VAL E   3)    7.21522155  *  18.41324450  *  26.29508634  *
    25       C(ATOM     25  CG2 VAL E   3)    9.11601604  *  20.00917487  *  25.91736217  *
    26       H(ATOM     26 1HG1 VAL E   3)    6.83784366  *  17.38619767  *  26.19661431  *
    27       H(ATOM     27 2HG1 VAL E   3)    7.16404642  *  18.68345221  *  27.35660051  *
    28       H(ATOM     28 3HG1 VAL E   3)    6.50699309  *  19.06813794  *  25.76862532  *
    29       H(ATOM     29 1HG2 VAL E   3)   10.09625155  *  20.18098781  *  25.45795195  *
    30       H(ATOM     30 2HG2 VAL E   3)    8.41852303  *  20.72635576  *  25.46479553  *
    31       H(ATOM     31 3HG2 VAL E   3)    9.20280790  *  20.27856343  *  26.98028691  *
    32       H(ATOM     32  H   VAL E   3)   11.12585219  *  17.92673110  *  25.04512246  *
    33       H(ATOM     33  HA  VAL E   3)    9.50046498  *  17.80744136  *  27.58540455  *
    34       H(ATOM     34  HB  VAL E   3)    8.62397096  *  18.32255697  *  24.64247537  *
    35       N(ATOM     35  N   PRO E   4)    9.12013123  *  15.22208389  *  27.15212830  *
    36       C(ATOM     36  CA  PRO E   4)    8.40375358  *  13.94635547  *  26.97262837  *
    37       C(ATOM     37  C   PRO E   4)    6.98168050  *  14.22753035  *  26.48840383  *
    38       O(ATOM     38  O   PRO E   4)    6.23918302  *  15.00669151  *  27.07299762  *
    39       C(ATOM     39  CB  PRO E   4)    8.34471387  *  13.30696602  *  28.37437352  *
    40       C(ATOM     40  CG  PRO E   4)    9.46642565  *  13.99331163  *  29.16362096  *
    41       C(ATOM     41  CD  PRO E   4)    9.56362764  *  15.39933929  *  28.54744368  *
    42       H(ATOM     42 1HD  PRO E   4)    8.90758279  *  16.12064187  *  29.08442622  *
    43       H(ATOM     43 2HD  PRO E   4)   10.60277164  *  15.79405226  *  28.56458543  *
    44       H(ATOM     44 1HB  PRO E   4)    8.45381075  *  12.20647493  *  28.34015495  *
    45       H(ATOM     45 2HB  PRO E   4)    7.35951341  *  13.47603451  *  28.85693494  *
    46       H(ATOM     46 1HG  PRO E   4)    9.25820827  *  14.03496293  *  30.24523160  *
    47       H(ATOM     47 2HG  PRO E   4)   10.41544673  *  13.43623737  *  29.07115400  *
    48       H(ATOM     48  HA  PRO E   4)    8.96380530  *  13.30237283  *  26.24028816  *
    49       N(ATOM     49  N   ALA E   5)    6.54347593  *  13.53042089  *  25.40193441  *
    50       C(ATOM     50  CA  ALA E   5)    5.12479543  *  13.58835856  *  25.05136667  *
    51       C(ATOM     51  C   ALA E   5)    4.28201109  *  12.81405127  *  26.08870592  *
    52       O(ATOM     52  O   ALA E   5)    3.10596659  *  13.13706611  *  26.28138590  *
    53       C(ATOM     53  CB  ALA E   5)    4.89116401  *  12.98018402  *  23.67428164  *
    54       H(ATOM     54 1HB  ALA E   5)    5.54216405  *  13.45083585  *  22.91757427  *
    55       H(ATOM     55 2HB  ALA E   5)    5.09463417  *  11.90261963  *  23.66289871  *
    56       H(ATOM     56 3HB  ALA E   5)    3.85725994  *  13.14311702  *  23.33326195  *
    57       H(ATOM     57  H   ALA E   5)    7.14842028  *  12.90888539  *  24.85986665  *
    58       H(ATOM     58  HA  ALA E   5)    4.77487193  *  14.66515919  *  25.07978307  *
    59       N(ATOM     59  N   ILE E   6)    4.83751236  *  11.78638967  *  26.77276487  *
    60       C(ATOM     60  CA  ILE E   6)    4.14307330  *  11.14819318  *  27.89885770  *
    61       C(ATOM     61  C   ILE E   6)    4.79852860  *  11.77834024  *  29.14236592  *
    62       O(ATOM     62  O   ILE E   6)    6.00592703  *  11.72128609  *  29.30778910  *
    63       C(ATOM     63  CB  ILE E   6)    4.40157014  *   9.62216846  *  27.87917784  *
    64       C(ATOM     64  CG1 ILE E   6)    3.76375104  *   8.99913369  *  26.62468777  *
    65       C(ATOM     65  CG2 ILE E   6)    3.83179077  *   8.98600889  *  29.14509033  *
    66       C(ATOM     66  CD1 ILE E   6)    4.55233658  *   7.77599786  *  26.16242830  *
    67       H(ATOM     67 1HG1 ILE E   6)    2.70782745  *   8.72010819  *  26.82305292  *
    68       H(ATOM     68 2HG1 ILE E   6)    3.71303704  *   9.73643633  *  25.80107620  *
    69       H(ATOM     69 1HG2 ILE E   6)    4.23387779  *   9.43959057  *  30.05832431  *
    70       H(ATOM     70 2HG2 ILE E   6)    2.73791745  *   9.06806587  *  29.19483848  *
    71       H(ATOM     71 3HG2 ILE E   6)    4.08261732  *   7.91544082  *  29.18299707  *
    72       H(ATOM     72 1HD1 ILE E   6)    4.07512765  *   7.31352081  *  25.29112047  *
    73       H(ATOM     73 2HD1 ILE E   6)    5.57912579  *   8.05382887  *  25.88793553  *
    74       H(ATOM     74 3HD1 ILE E   6)    4.61504548  *   7.02684485  *  26.96443854  *
    75       H(ATOM     75  H   ILE E   6)    5.82517664  *  11.49653498  *  26.63866268  *
    76       H(ATOM     76  HA  ILE E   6)    3.04252835  *  11.35555564  *  27.86318516  *
    77       H(ATOM     77  HB  ILE E   6)    5.51020829  *   9.45346476  *  27.84835290  *
    78       N(ATOM     78  N   GLN E   7)    4.01537223  *  12.52532139  *  29.97964525  *
    79       C(ATOM     79  CA  GLN E   7)    4.68933400  *  13.37286119  *  30.96470832  *
    80       C(ATOM     80  C   GLN E   7)    5.09275842  *  12.51237118  *  32.16745758  *
    81       O(ATOM     81  O   GLN E   7)    4.28682211  *  11.79739033  *  32.75847726  *
    82       C(ATOM     82  CB  GLN E   7)    3.74794623  *  14.48961394  *  31.43940029  *
    83       C(ATOM     83  CG  GLN E   7)    4.44864091  *  15.39600549  *  32.45379844  *
    84       C(ATOM     84  CD  GLN E   7)    3.48934766  *  16.47511762  *  32.87224388  *
    85       O(ATOM     85  OE1 GLN E   7)    3.12043196  *  17.35378823  *  32.08149888  *
    86       N(ATOM     86  NE2 GLN E   7)    2.94785362  *  16.44194449  *  34.11919426  *
    87       H(ATOM     87 1HB  GLN E   7)    2.81960680  *  14.06296404  *  31.87238553  *
    88       H(ATOM     88 2HB  GLN E   7)    3.42672667  *  15.09067592  *  30.55456160  *
    89       H(ATOM     89 1HG  GLN E   7)    5.35480116  *  15.86364989  *  31.99322540  *
    90       H(ATOM     90 2HG  GLN E   7)    4.83485108  *  14.81776717  *  33.32125479  *
    91       H(ATOM     91 1HE2 GLN E   7)    2.34593974  *  17.19435989  *  34.43536683  *
    92       H(ATOM     92 2HE2 GLN E   7)    3.33517083  *  15.86356773  *  34.86229773  *
    93       H(ATOM     93  H   GLN E   7)    3.00553584  *  12.44076786  *  30.06056469  *
    94       H(ATOM     94  HA  GLN E   7)    5.59802339  *  13.83781964  *  30.47161760  *
    95       N(ATOM     95  N   PRO E   8)    6.37082435  *  12.59076175  *  32.63477521  *
    96       C(ATOM     96  CA  PRO E   8)    6.78295522  *  11.72461046  *  33.74396195  *
    97       C(ATOM     97  C   PRO E   8)    6.01077525  *  12.13552207  *  34.99608074  *
    98       O(ATOM     98  O   PRO E   8)    5.92363448  *  13.30542442  *  35.35745912  *
    99       C(ATOM     99  CB  PRO E   8)    8.29145917  *  11.92353304  *  33.92318063  *
   100       C(ATOM    100  CG  PRO E   8)    8.77238685  *  12.77604234  *  32.73637716  *
   101       C(ATOM    101  CD  PRO E   8)    7.52995389  *  13.13876379  *  31.90795601  *
   102       H(ATOM    102 1HD  PRO E   8)    7.41917879  *  14.23969370  *  31.79624903  *
   103       H(ATOM    103 2HD  PRO E   8)    7.59026921  *  12.67090328  *  30.88963162  *
   104       H(ATOM    104 1HB  PRO E   8)    8.53827206  *  12.41045541  *  34.88138247  *
   105       H(ATOM    105 2HB  PRO E   8)    8.80652017  *  10.94220297  *  33.93025013  *
   106       H(ATOM    106 1HG  PRO E   8)    9.30941868  *  13.67306299  *  33.08515615  *
   107       H(ATOM    107 2HG  PRO E   8)    9.50422014  *  12.20676651  *  32.12280945  *
   108       H(ATOM    108  HA  PRO E   8)    6.54450027  *  10.64949847  *  33.48721180  *
   109       N(ATOM    109  N   VAL E   9)    5.41582664  *  11.12422660  *  35.68424343  *
   110       C(ATOM    110  CA  VAL E   9)    4.66935506  *  11.37056021  *  36.91629775  *
   111       C(ATOM    111  C   VAL E   9)    5.66524182  *  11.08383344  *  38.04839061  *
   112       O(ATOM    112  O   VAL E   9)    5.97008732  *   9.94029111  *  38.37926972  *
   113       C(ATOM    113  CB  VAL E   9)    3.44441276  *  10.42398306  *  37.00523468  *
   114       C(ATOM    114  CG1 VAL E   9)    2.77144340  *  10.59698290  *  38.36520614  *
   115       C(ATOM    115  CG2 VAL E   9)    2.46076048  *  10.74465932  *  35.88024598  *
   116       H(ATOM    116 1HG1 VAL E   9)    3.43675496  *  10.36406738  *  39.20450427  *
   117       H(ATOM    117 2HG1 VAL E   9)    2.42237201  *  11.62668329  *  38.52252740  *
   118       H(ATOM    118 3HG1 VAL E   9)    1.88294420  *   9.95509918  *  38.45642399  *
   119       H(ATOM    119 1HG2 VAL E   9)    2.95450839  *  10.79721646  *  34.89927772  *
   120       H(ATOM    120 2HG2 VAL E   9)    1.66644992  *   9.98953442  *  35.82035120  *
   121       H(ATOM    121 3HG2 VAL E   9)    1.96790157  *  11.71280569  *  36.03465745  *
   122       H(ATOM    122  H   VAL E   9)    5.61108341  *  10.13985405  *  35.44113299  *
   123       H(ATOM    123  HA  VAL E   9)    4.31323841  *  12.43689356  *  36.96091678  *
   124       H(ATOM    124  HB  VAL E   9)    3.80160845  *   9.36934836  *  36.88614391  *
   125       N(ATOM    125  N   LEU E  10)    6.28797954  *  12.14489958  *  38.62388979  *
   126       C(ATOM    126  CA  LEU E  10)    7.30590853  *  11.92192129  *  39.65245102  *
   127       C(ATOM    127  C   LEU E  10)    6.62610374  *  11.41316321  *  40.92523995  *
   128       O(ATOM    128  O   LEU E  10)    5.50131345  *  11.62993690  *  41.26879084  *
   129       C(ATOM    129  CB  LEU E  10)    8.04285873  *  13.23165912  *  39.95799175  *
   130       C(ATOM    130  CG  LEU E  10)    9.22994770  *  13.45945121  *  39.00178996  *
   131       C(ATOM    131  CD1 LEU E  10)    8.81119703  *  13.41202244  *  37.52799676  *
   132       C(ATOM    132  CD2 LEU E  10)    9.85390745  *  14.81944168  *  39.32298229  *
   133       H(ATOM    133 1HB  LEU E  10)    8.42209756  *  13.23749234  *  41.00338618  *
   134       H(ATOM    134 2HB  LEU E  10)    7.34796818  *  14.09895676  *  39.91763871  *
   135       H(ATOM    135 1HD1 LEU E  10)    8.58250913  *  12.39066125  *  37.20682153  *
   136       H(ATOM    136 2HD1 LEU E  10)    7.92259705  *  14.03086036  *  37.35052382  *
   137       H(ATOM    137 3HD1 LEU E  10)    9.60504216  *  13.80092865  *  36.87954405  *
   138       H(ATOM    138 1HD2 LEU E  10)   10.03086585  *  14.95303635  *  40.39730897  *
   139       H(ATOM    139 2HD2 LEU E  10)   10.80792523  *  14.97108909  *  38.80375852  *
   140       H(ATOM    140 3HD2 LEU E  10)    9.20125954  *  15.64886065  *  39.01578097  *
   141       H(ATOM    141  H   LEU E  10)    6.05176513  *  13.12327023  *  38.40545181  *
   142       H(ATOM    142  HA  LEU E  10)    8.04711175  *  11.14471782  *  39.29335769  *
   143       H(ATOM    143  HG  LEU E  10)    9.98277933  *  12.65027697  *  39.18215063  *
   144       N(ATOM    144  N   SER E  11)    7.45246941  *  10.54189078  *  41.77971266  *
   145       H(ATOM    145 1H   SER E  11)    7.14362876  *  10.53400248  *  42.76763864  *
   146       H(ATOM    146 2H   SER E  11)    8.48288320  *  10.74140935  *  41.72350980  *
   147       H(ATOM    147 3H   SER E  11)    7.43662666  *   9.43612946  *  41.41024736  *
   148       N(ATOM    148  N   ILE F  16)   18.10508970  *   1.48300086  *  39.72415583  *
   149       C(ATOM    149  CA  ILE F  16)   18.03537846  *   2.53209831  *  40.79854003  *
   150       C(ATOM    150  C   ILE F  16)   17.45877835  *   1.87413962  *  42.05546960  *
   151       O(ATOM    151  O   ILE F  16)   16.44455003  *   1.18914773  *  41.98274694  *
   152       C(ATOM    152  CB  ILE F  16)   17.09974192  *   3.69750995  *  40.38751056  *
   153       C(ATOM    153  CG1 ILE F  16)   17.57943218  *   4.33970080  *  39.07812123  *
   154       C(ATOM    154  CG2 ILE F  16)   17.07549482  *   4.72747837  *  41.51623856  *
   155       C(ATOM    155  CD1 ILE F  16)   16.58892497  *   5.38138766  *  38.57403104  *
   156       H(ATOM    156 1H   ILE F  16)   18.85624630  *   1.76540625  *  38.99170002  *
   157       H(ATOM    157 2H   ILE F  16)   18.32856543  *   0.54495916  *  40.11561056  *
   158       H(ATOM    158 3H   ILE F  16)   17.19490965  *   1.40092714  *  39.21028993  *
   159       H(ATOM    159 1HG1 ILE F  16)   18.57863100  *   4.80696101  *  39.20356800  *
   160       H(ATOM    160 2HG1 ILE F  16)   17.73342240  *   3.58157730  *  38.27984906  *
   161       H(ATOM    161 1HG2 ILE F  16)   16.78052841  *   4.30298043  *  42.48554583  *
   162       H(ATOM    162 2HG2 ILE F  16)   18.05371898  *   5.20267192  *  41.65614122  *
   163       H(ATOM    163 3HG2 ILE F  16)   16.36015063  *   5.52987056  *  41.29486487  *
   164       H(ATOM    164 1HD1 ILE F  16)   16.97005963  *   5.83619101  *  37.64865039  *
   165       H(ATOM    165 2HD1 ILE F  16)   15.60847433  *   4.94918444  *  38.35257101  *
   166       H(ATOM    166 3HD1 ILE F  16)   16.44606463  *   6.20607434  *  39.28084820  *
   167       H(ATOM    167  HA  ILE F  16)   19.07786005  *   2.92207138  *  40.96639240  *
   168       H(ATOM    168  HB  ILE F  16)   16.06559685  *   3.29426508  *  40.23864113  *
   169       N(ATOM    169  N   VAL F  17)   18.15047335  *   2.04727882  *  43.20800012  *
   170       C(ATOM    170  CA  VAL F  17)   17.64587267  *   1.56650376  *  44.48960930  *
   171       C(ATOM    171  C   VAL F  17)   16.62735298  *   2.60825075  *  44.98732743  *
   172       O(ATOM    172  O   VAL F  17)   16.90188072  *   3.80204922  *  44.99964604  *
   173       C(ATOM    173  CB  VAL F  17)   18.78685247  *   1.48624624  *  45.53481950  *
   174       C(ATOM    174  CG1 VAL F  17)   18.21438188  *   0.96070048  *  46.85042495  *
   175       C(ATOM    175  CG2 VAL F  17)   19.90920426  *   0.59052789  *  45.01895323  *
   176       H(ATOM    176 1HG1 VAL F  17)   17.47170510  *   1.64727826  *  47.27644517  *
   177       H(ATOM    177 2HG1 VAL F  17)   17.72804158  *  -0.01718055  *  46.72930399  *
   178       H(ATOM    178 3HG1 VAL F  17)   19.00366055  *   0.84671994  *  47.60506665  *
   179       H(ATOM    179 1HG2 VAL F  17)   20.39488539  *   1.01359700  *  44.13213909  *
   180       H(ATOM    180 2HG2 VAL F  17)   20.68505131  *   0.45378477  *  45.78605292  *
   181       H(ATOM    181 3HG2 VAL F  17)   19.54429059  *  -0.40173880  *  44.71941033  *
   182       H(ATOM    182  H   VAL F  17)   18.94389863  *   2.69539167  *  43.25649124  *
   183       H(ATOM    183  HA  VAL F  17)   17.17911882  *   0.55170822  *  44.34999142  *
   184       H(ATOM    184  HB  VAL F  17)   19.19112611  *   2.51487336  *  45.71154647  *
   185       N(ATOM    185  N   ASN F  18)   15.39367481  *   2.13306239  *  45.31802002  *
   186       C(ATOM    186  CA  ASN F  18)   14.34100635  *   3.02020487  *  45.80901065  *
   187       C(ATOM    187  C   ASN F  18)   13.89494431  *   4.01543680  *  44.72550109  *
   188       O(ATOM    188  O   ASN F  18)   13.18308829  *   4.96608334  *  45.02208429  *
   189       C(ATOM    189  CB  ASN F  18)   14.74986562  *   3.77184114  *  47.07772806  *
   190       C(ATOM    190  CG  ASN F  18)   15.07307250  *   2.79500149  *  48.16787234  *
   191       O(ATOM    191  OD1 ASN F  18)   15.10399444  *   1.57299248  *  47.92554424  *
   192       N(ATOM    192  ND2 ASN F  18)   15.38383574  *   3.23327758  *  49.40549484  *
   193       H(ATOM    193 1HB  ASN F  18)   13.94660835  *   4.48227009  *  47.39422574  *
   194       H(ATOM    194 2HB  ASN F  18)   15.62547273  *   4.43835650  *  46.87552282  *
   195       H(ATOM    195 1HD2 ASN F  18)   15.56094957  *   2.58650019  *  50.16007750  *
   196       H(ATOM    196 2HD2 ASN F  18)   15.38466610  *   4.21702860  *  49.65168150  *
   197       H(ATOM    197  H   ASN F  18)   15.25694526  *   1.12170307  *  45.50834889  *
   198       H(ATOM    198  HA  ASN F  18)   13.43256783  *   2.37501346  *  46.04024696  *
   199       N(ATOM    199  N   GLY F  19)   14.30816995  *   3.79747745  *  43.43301585  *
   200       C(ATOM    200  CA  GLY F  19)   13.55819952  *   4.43478143  *  42.35812454  *
   201       C(ATOM    201  C   GLY F  19)   12.19921124  *   3.74566150  *  42.24550607  *
   202       O(ATOM    202  O   GLY F  19)   11.88545189  *   2.80268519  *  42.96625569  *
   203       H(ATOM    203 1HA  GLY F  19)   14.12629855  *   4.33536862  *  41.40185561  *
   204       H(ATOM    204 2HA  GLY F  19)   13.43046955  *   5.53078072  *  42.54734098  *
   205       H(ATOM    205  H   GLY F  19)   14.70313297  *   2.88916251  *  43.18198900  *
   206       N(ATOM    206  N   GLU F  20)   11.35942417  *   4.25403541  *  41.30328454  *
   207       C(ATOM    207  CA  GLU F  20)    9.97328757  *   3.81393019  *  41.26043438  *
   208       C(ATOM    208  C   GLU F  20)    9.64935561  *   3.46332161  *  39.80668042  *
   209       O(ATOM    209  O   GLU F  20)   10.15621602  *   4.02832600  *  38.84533166  *
   210       C(ATOM    210  CB  GLU F  20)    9.00408133  *   4.90696657  *  41.75571160  *
   211       C(ATOM    211  CG  GLU F  20)    8.95259687  *   6.11312553  *  40.82707833  *
   212       C(ATOM    212  CD  GLU F  20)    7.86490189  *   7.08051101  *  41.23244248  *
   213       O(ATOM    213  OE1 GLU F  20)    6.83968192  *   6.67637643  *  41.81372688  *
   214       O(ATOM    214  OE2 GLU F  20)    8.07181915  *   8.28579079  *  40.93165821  *
   215       H(ATOM    215 1HB  GLU F  20)    7.99000118  *   4.46962264  *  41.88910089  *
   216       H(ATOM    216 2HB  GLU F  20)    9.32219272  *   5.23261358  *  42.77234587  *
   217       H(ATOM    217 1HG  GLU F  20)    8.76400213  *   5.80976934  *  39.77265554  *
   218       H(ATOM    218 2HG  GLU F  20)    9.93249622  *   6.64457973  *  40.83187341  *
   219       H(ATOM    219  H   GLU F  20)   11.58842347  *   5.09918825  *  40.77850509  *
   220       H(ATOM    220  HA  GLU F  20)    9.84266147  *   2.90925128  *  41.92445180  *
   221       N(ATOM    221  N   GLU F  21)    8.68368513  *   2.51623339  *  39.64487982  *
   222       C(ATOM    222  CA  GLU F  21)    8.07292077  *   2.30777229  *  38.33239226  *
   223       C(ATOM    223  C   GLU F  21)    7.87615238  *   3.69405665  *  37.68632614  *
   224       O(ATOM    224  O   GLU F  21)    7.13339395  *   4.53251850  *  38.19978117  *
   225       C(ATOM    225  CB  GLU F  21)    6.68801070  *   1.65922794  *  38.53604974  *
   226       C(ATOM    226  CG  GLU F  21)    5.82554556  *   1.70060827  *  37.28325187  *
   227       C(ATOM    227  CD  GLU F  21)    5.56160249  *   0.33898487  *  36.67698660  *
   228       O(ATOM    228  OE1 GLU F  21)    6.21128226  *  -0.66872863  *  36.99079812  *
   229       O(ATOM    229  OE2 GLU F  21)    4.63175833  *   0.30820526  *  35.81685798  *
   230       H(ATOM    230 1HB  GLU F  21)    6.82099375  *   0.61416467  *  38.89254232  *
   231       H(ATOM    231 2HB  GLU F  21)    6.15641468  *   2.17876966  *  39.36792866  *
   232       H(ATOM    232 1HG  GLU F  21)    4.84507833  *   2.17862296  *  37.51715063  *
   233       H(ATOM    233 2HG  GLU F  21)    6.26087817  *   2.35266893  *  36.49056735  *
   234       H(ATOM    234  H   GLU F  21)    8.27880671  *   1.99957618  *  40.43533374  *
   235       H(ATOM    235  HA  GLU F  21)    8.73424522  *   1.65100534  *  37.70344960  *
   236       N(ATOM    236  N   ALA F  22)    8.48466057  *   3.90855865  *  36.49369340  *
   237       C(ATOM    237  CA  ALA F  22)    8.23458096  *   5.13273275  *  35.73390738  *
   238       C(ATOM    238  C   ALA F  22)    6.96381754  *   4.91353809  *  34.88997870  *
   239       O(ATOM    239  O   ALA F  22)    6.57119228  *   3.79214138  *  34.59099829  *
   240       C(ATOM    240  CB  ALA F  22)    9.39901783  *   5.41257755  *  34.78405225  *
   241       H(ATOM    241 1HB  ALA F  22)   10.29404862  *   5.71695761  *  35.34301517  *
   242       H(ATOM    242 2HB  ALA F  22)    9.67926957  *   4.52493307  *  34.19446058  *
   243       H(ATOM    243 3HB  ALA F  22)    9.14683721  *   6.21229028  *  34.07539194  *
   244       H(ATOM    244  H   ALA F  22)    9.23772406  *   3.30750023  *  36.15618456  *
   245       H(ATOM    245  HA  ALA F  22)    8.07753931  *   6.00128948  *  36.43740957  *
   246       N(ATOM    246  N   VAL F  23)    6.38142889  *   6.03763816  *  34.38344190  *
   247       C(ATOM    247  CA  VAL F  23)    5.24095743  *   5.92184885  *  33.47571691  *
   248       C(ATOM    248  C   VAL F  23)    5.84172933  *   5.52410260  *  32.11710714  *
   249       O(ATOM    249  O   VAL F  23)    6.84267237  *   6.09605147  *  31.67698037  *
   250       C(ATOM    250  CB  VAL F  23)    4.50262243  *   7.27750108  *  33.32502927  *
   251       C(ATOM    251  CG1 VAL F  23)    3.39965603  *   7.16078724  *  32.27479658  *
   252       C(ATOM    252  CG2 VAL F  23)    3.92888162  *   7.70204002  *  34.67496646  *
   253       H(ATOM    253 1HG1 VAL F  23)    3.79991266  *   6.93112845  *  31.27923736  *
   254       H(ATOM    254 2HG1 VAL F  23)    2.66374195  *   6.38683244  *  32.52388348  *
   255       H(ATOM    255 3HG1 VAL F  23)    2.84697027  *   8.10768330  *  32.18249709  *
   256       H(ATOM    256 1HG2 VAL F  23)    4.73187749  *   7.98167813  *  35.37597960  *
   257       H(ATOM    257 2HG2 VAL F  23)    3.27149465  *   8.57369919  *  34.56956818  *
   258       H(ATOM    258 3HG2 VAL F  23)    3.36354783  *   6.90302565  *  35.16701876  *
   259       H(ATOM    259  H   VAL F  23)    6.56537193  *   6.96839067  *  34.77182376  *
   260       H(ATOM    260  HA  VAL F  23)    4.52971111  *   5.13572973  *  33.85202167  *
   261       H(ATOM    261  HB  VAL F  23)    5.23977005  *   8.05438315  *  32.99436477  *
   262       N(ATOM    262  N   PRO F  24)    5.28799352  *   4.52185523  *  31.39424908  *
   263       C(ATOM    263  CA  PRO F  24)    5.97547585  *   3.96941743  *  30.22017957  *
   264       C(ATOM    264  C   PRO F  24)    6.19010464  *   5.07708183  *  29.20043912  *
   265       O(ATOM    265  O   PRO F  24)    5.32264998  *   5.88850492  *  28.89026416  *
   266       C(ATOM    266  CB  PRO F  24)    5.03468719  *   2.88738592  *  29.64765767  *
   267       C(ATOM    267  CG  PRO F  24)    4.12638989  *   2.51061405  *  30.82760863  *
   268       C(ATOM    268  CD  PRO F  24)    4.03694938  *   3.79328504  *  31.67380425  *
   269       H(ATOM    269 1HD  PRO F  24)    3.16521874  *   4.41941070  *  31.36596103  *
   270       H(ATOM    270 2HD  PRO F  24)    3.94517481  *   3.56996621  *  32.75736899  *
   271       H(ATOM    271 1HB  PRO F  24)    4.43564174  *   3.27242127  *  28.79892554  *
   272       H(ATOM    272 2HB  PRO F  24)    5.59050567  *   2.01854656  *  29.26126955  *
   273       H(ATOM    273 1HG  PRO F  24)    4.56798897  *   1.68092060  *  31.41536311  *
   274       H(ATOM    274 2HG  PRO F  24)    3.12912578  *   2.16866681  *  30.49935045  *
   275       H(ATOM    275  HA  PRO F  24)    6.96055032  *   3.53301360  *  30.55417374  *
   276       N(ATOM    276  N   GLY F  25)    7.40828549  *   5.12974299  *  28.59394390  *
   277       C(ATOM    277  CA  GLY F  25)    7.62015784  *   6.14104630  *  27.57283688  *
   278       C(ATOM    278  C   GLY F  25)    7.71114225  *   7.58111537  *  28.06982380  *
   279       O(ATOM    279  O   GLY F  25)    7.89800334  *   8.45505361  *  27.22884839  *
   280       H(ATOM    280 1HA  GLY F  25)    6.77490122  *   6.11275798  *  26.83025198  *
   281       H(ATOM    281 2HA  GLY F  25)    8.56125639  *   5.91628364  *  27.00874340  *
   282       H(ATOM    282  H   GLY F  25)    8.21241199  *   4.53921475  *  28.85824594  *
   283       N(ATOM    283  N   SER F  26)    7.63169498  *   7.85372967  *  29.39896854  *
   284       C(ATOM    284  CA  SER F  26)    7.66181434  *   9.23111402  *  29.88038421  *
   285       C(ATOM    285  C   SER F  26)    9.08939271  *   9.76403022  *  30.04681719  *
   286       O(ATOM    286  O   SER F  26)    9.29685972  *  10.95596090  *  30.19940745  *
   287       C(ATOM    287  CB  SER F  26)    6.93213252  *   9.36309925  *  31.22960554  *
   288       O(ATOM    288  OG  SER F  26)    7.57325903  *   8.61306990  *  32.23031154  *
   289       H(ATOM    289 1HB  SER F  26)    7.00945139  *  10.41592516  *  31.57250802  *
   290       H(ATOM    290 2HB  SER F  26)    5.87054029  *   9.06010444  *  31.14948132  *
   291       H(ATOM    291  H   SER F  26)    7.37073277  *   7.13265921  *  30.07701548  *
   292       H(ATOM    292  HA  SER F  26)    7.15747836  *   9.92078223  *  29.12534928  *
   293       H(ATOM    293  HG  SER F  26)    7.37099258  *   7.63545401  *  32.13510722  *
   294       N(ATOM    294  N   TRP F  27)   10.11965480  *   8.87094944  *  29.92906291  *
   295       C(ATOM    295  CA  TRP F  27)   11.49698117  *   9.34558399  *  29.86503178  *
   296       C(ATOM    296  C   TRP F  27)   11.94773420  *   8.95803282  *  28.45118743  *
   297       O(ATOM    297  O   TRP F  27)   12.60170724  *   7.93146046  *  28.25762258  *
   298       C(ATOM    298  CB  TRP F  27)   12.39387796  *   8.63868231  *  30.89913476  *
   299       C(ATOM    299  CG  TRP F  27)   11.82757918  *   8.85716729  *  32.24090993  *
   300       C(ATOM    300  CD1 TRP F  27)   11.20161741  *   7.90892034  *  33.03743761  *
   301       C(ATOM    301  CD2 TRP F  27)   11.76623734  *  10.11140515  *  32.93873281  *
   302       N(ATOM    302  NE1 TRP F  27)   10.79967854  *   8.49483835  *  34.23607684  *
   303       C(ATOM    303  CE2 TRP F  27)   11.11912929  *   9.84824885  *  34.18798943  *
   304       C(ATOM    304  CE3 TRP F  27)   12.15496258  *  11.42041523  *  32.63629495  *
   305       C(ATOM    305  CZ2 TRP F  27)   10.92022831  *  10.85228319  *  35.14524110  *
   306       C(ATOM    306  CZ3 TRP F  27)   11.96491969  *  12.40691082  *  33.58260905  *
   307       C(ATOM    307  CH2 TRP F  27)   11.36429051  *  12.12011984  *  34.82731972  *
   308       H(ATOM    308 1HB  TRP F  27)   13.43180397  *   9.03230426  *  30.82603383  *
   309       H(ATOM    309 2HB  TRP F  27)   12.47796056  *   7.55316293  *  30.66589101  *
   310       H(ATOM    310  H   TRP F  27)    9.97371567  *   7.87498263  *  29.76883978  *
   311       H(ATOM    311  HA  TRP F  27)   11.54020929  *  10.45870464  *  30.03175022  *
   312       H(ATOM    312  HD1 TRP F  27)   11.03021097  *   6.86330665  *  32.84364824  *
   313       H(ATOM    313  HE1 TRP F  27)   10.17594974  *   8.08069328  *  34.92158455  *
   314       H(ATOM    314  HE3 TRP F  27)   12.58315933  *  11.64734499  *  31.66213853  *
   315       H(ATOM    315  HZ2 TRP F  27)   10.42181292  *  10.63463885  *  36.08561678  *
   316       H(ATOM    316  HZ3 TRP F  27)   12.26777722  *  13.43611258  *  33.37992804  *
   317       H(ATOM    317  HH2 TRP F  27)   11.24211669  *  12.93580608  *  35.54062775  *
   318       N(ATOM    318  N   PRO F  28)   11.57157814  *   9.70830143  *  27.38585689  *
   319       C(ATOM    319  CA  PRO F  28)   11.49609496  *   9.10855230  *  26.03722428  *
   320       C(ATOM    320  C   PRO F  28)   12.87173357  *   9.06870362  *  25.37954652  *
   321       O(ATOM    321  O   PRO F  28)   13.15349726  *   8.32422080  *  24.44818833  *
   322       C(ATOM    322  CB  PRO F  28)   10.55981845  *  10.03870771  *  25.24643606  *
   323       C(ATOM    323  CG  PRO F  28)   10.67531399  *  11.39124752  *  25.96518658  *
   324       C(ATOM    324  CD  PRO F  28)   10.90046994  *  11.02406523  *  27.44004715  *
   325       H(ATOM    325 1HD  PRO F  28)   11.54276503  *  11.75710175  *  27.97196203  *
   326       H(ATOM    326 2HD  PRO F  28)    9.92990206  *  10.95321010  *  27.98563523  *
   327       H(ATOM    327 1HB  PRO F  28)    9.51864742  *   9.65632011  *  25.28001219  *
   328       H(ATOM    328 2HB  PRO F  28)   10.82527769  *  10.11024174  *  24.17762106  *
   329       H(ATOM    329 1HG  PRO F  28)   11.52647728  *  11.98041528  *  25.57650115  *
   330       H(ATOM    330 2HG  PRO F  28)    9.76011428  *  11.99847397  *  25.82228936  *
   331       H(ATOM    331  HA  PRO F  28)   11.10631684  *   8.05475130  *  26.10752325  *
   332       N(ATOM    332  N   TRP F  29)   13.82013872  *   9.91238772  *  25.87755789  *
   333       C(ATOM    333  CA  TRP F  29)   15.22518443  *   9.74487986  *  25.52918478  *
   334       C(ATOM    334  C   TRP F  29)   15.82366718  *   8.49950844  *  26.19866270  *
   335       O(ATOM    335  O   TRP F  29)   16.90731936  *   8.05182380  *  25.83305023  *
   336       C(ATOM    336  CB  TRP F  29)   16.03449724  *  10.96982135  *  26.00846430  *
   337       C(ATOM    337  CG  TRP F  29)   15.71726793  *  11.30936416  *  27.40856388  *
   338       C(ATOM    338  CD1 TRP F  29)   16.21647454  *  10.71282349  *  28.56092675  *
   339       C(ATOM    339  CD2 TRP F  29)   14.74045293  *  12.27922201  *  27.82443765  *
   340       N(ATOM    340  NE1 TRP F  29)   15.59960715  *  11.26254060  *  29.68219585  *
   341       C(ATOM    341  CE2 TRP F  29)   14.68444251  *  12.21602134  *  29.25382697  *
   342       C(ATOM    342  CE3 TRP F  29)   13.91061615  *  13.17953499  *  27.14586243  *
   343       C(ATOM    343  CZ2 TRP F  29)   13.81860662  *  13.03590742  *  29.99167436  *
   344       C(ATOM    344  CZ3 TRP F  29)   13.04996623  *  13.97268071  *  27.87831875  *
   345       C(ATOM    345  CH2 TRP F  29)   12.99709786  *  13.88918707  *  29.28791850  *
   346       H(ATOM    346 1HB  TRP F  29)   15.80376314  *  11.81908897  *  25.31980080  *
   347       H(ATOM    347 2HB  TRP F  29)   17.12090833  *  10.79577972  *  25.85321045  *
   348       H(ATOM    348  H   TRP F  29)   13.61118707  *  10.54183812  *  26.64966768  *
   349       H(ATOM    349  HA  TRP F  29)   15.32418424  *   9.62249740  *  24.40591349  *
   350       H(ATOM    350  HD1 TRP F  29)   16.96913694  *   9.94731996  *  28.65949403  *
   351       H(ATOM    351  HE1 TRP F  29)   15.67167149  *  10.90689855  *  30.62915265  *
   352       H(ATOM    352  HE3 TRP F  29)   13.96348229  *  13.23893208  *  26.05943627  *
   353       H(ATOM    353  HZ2 TRP F  29)   13.81407927  *  13.00402482  *  31.07988583  *
   354       H(ATOM    354  HZ3 TRP F  29)   12.40750999  *  14.70146472  *  27.38730131  *
   355       H(ATOM    355  HH2 TRP F  29)   12.29292771  *  14.52707797  *  29.82955653  *
   356       N(ATOM    356  N   GLN F  30)   15.20316841  *   7.90913880  *  27.26230083  *
   357       C(ATOM    357  CA  GLN F  30)   15.86992921  *   6.78428831  *  27.91124826  *
   358       C(ATOM    358  C   GLN F  30)   15.94451488  *   5.60182674  *  26.93540424  *
   359       O(ATOM    359  O   GLN F  30)   14.94062847  *   5.02936982  *  26.48779808  *
   360       C(ATOM    360  CB  GLN F  30)   15.10216539  *   6.32774379  *  29.16022820  *
   361       C(ATOM    361  CG  GLN F  30)   15.65998699  *   5.02126751  *  29.71468540  *
   362       C(ATOM    362  CD  GLN F  30)   16.91340376  *   5.23057632  *  30.52216911  *
   363       O(ATOM    363  OE1 GLN F  30)   16.94013689  *   5.91906167  *  31.53283071  *
   364       N(ATOM    364  NE2 GLN F  30)   18.04750175  *   4.54256587  *  30.17926188  *
   365       H(ATOM    365 1HB  GLN F  30)   15.12793344  *   7.12471588  *  29.93430530  *
   366       H(ATOM    366 2HB  GLN F  30)   14.01803548  *   6.19733913  *  28.91720436  *
   367       H(ATOM    367 1HG  GLN F  30)   15.78505126  *   4.24858561  *  28.93100276  *
   368       H(ATOM    368 2HG  GLN F  30)   14.89184538  *   4.56908965  *  30.39677313  *
   369       H(ATOM    369 1HE2 GLN F  30)   18.87246928  *   4.65286325  *  30.74954777  *
   370       H(ATOM    370 2HE2 GLN F  30)   18.16620018  *   4.13748284  *  29.26982079  *
   371       H(ATOM    371  H   GLN F  30)   14.21796171  *   8.06086463  *  27.48813743  *
   372       H(ATOM    372  HA  GLN F  30)   16.91864275  *   7.10973440  *  28.19696002  *
   373       N(ATOM    373  N   VAL F  31)   17.17787682  *   5.18505718  *  26.58793509  *
   374       C(ATOM    374  CA  VAL F  31)   17.35529090  *   3.99923759  *  25.76099052  *
   375       C(ATOM    375  C   VAL F  31)   18.06542556  *   2.97235897  *  26.63952132  *
   376       O(ATOM    376  O   VAL F  31)   18.80239698  *   3.29528629  *  27.56954620  *
   377       C(ATOM    377  CB  VAL F  31)   18.18725220  *   4.29688658  *  24.48494573  *
   378       C(ATOM    378  CG1 VAL F  31)   17.45979725  *   5.35102798  *  23.64914139  *
   379       C(ATOM    379  CG2 VAL F  31)   19.60009452  *   4.76865537  *  24.81622254  *
   380       H(ATOM    380 1HG1 VAL F  31)   16.42488681  *   5.06274543  *  23.42875499  *
   381       H(ATOM    381 2HG1 VAL F  31)   17.40864124  *   6.31582925  *  24.17818809  *
   382       H(ATOM    382 3HG1 VAL F  31)   17.97186543  *   5.52790612  *  22.69714042  *
   383       H(ATOM    383 1HG2 VAL F  31)   20.10176362  *   4.09241284  *  25.52030131  *
   384       H(ATOM    384 2HG2 VAL F  31)   20.22310863  *   4.81977764  *  23.91466947  *
   385       H(ATOM    385 3HG2 VAL F  31)   19.59258494  *   5.77260439  *  25.25793315  *
   386       H(ATOM    386  H   VAL F  31)   18.03783046  *   5.61128086  *  26.96011015  *
   387       H(ATOM    387  HA  VAL F  31)   16.35407442  *   3.60167347  *  25.42135248  *
   388       H(ATOM    388  HB  VAL F  31)   18.24410545  *   3.33438150  *  23.90752397  *
   389       N(ATOM    389  N   SER F  32)   17.85814158  *   1.65636951  *  26.37013082  *
   390       C(ATOM    390  CA  SER F  32)   18.78554270  *   0.70724498  *  26.97630621  *
   391       C(ATOM    391  C   SER F  32)   19.96862486  *   0.60422125  *  26.00563454  *
   392       O(ATOM    392  O   SER F  32)   19.89202275  *   0.83868357  *  24.80988576  *
   393       C(ATOM    393  CB  SER F  32)   18.14684673  *  -0.66967864  *  27.23353931  *
   394       O(ATOM    394  OG  SER F  32)   17.77069109  *  -1.27724828  *  26.02593913  *
   395       H(ATOM    395 1HB  SER F  32)   18.87321832  *  -1.37645854  *  27.68179302  *
   396       H(ATOM    396 2HB  SER F  32)   17.26531604  *  -0.57065327  *  27.89918280  *
   397       H(ATOM    397  H   SER F  32)   17.28204650  *   1.33772864  *  25.58885810  *
   398       H(ATOM    398  HA  SER F  32)   19.14250980  *   1.11178639  *  27.97461472  *
   399       H(ATOM    399  HG  SER F  32)   17.01082240  *  -0.78056985  *  25.63028624  *
   400       N(ATOM    400  N   LEU F  33)   21.15822668  *   0.30989698  *  26.58614563  *
   401       C(ATOM    401  CA  LEU F  33)   22.35082852  *   0.03973179  *  25.78040166  *
   402       C(ATOM    402  C   LEU F  33)   22.49589473  *  -1.47413711  *  25.99081831  *
   403       O(ATOM    403  O   LEU F  33)   22.69405802  *  -1.95403067  *  27.10444878  *
   404       C(ATOM    404  CB  LEU F  33)   23.55379720  *   0.80417436  *  26.32876369  *
   405       C(ATOM    405  CG  LEU F  33)   23.85560016  *   2.09661659  *  25.55268676  *
   406       C(ATOM    406  CD1 LEU F  33)   22.60613719  *   2.96651442  *  25.38644776  *
   407       C(ATOM    407  CD2 LEU F  33)   24.91862081  *   2.87422400  *  26.33420857  *
   408       H(ATOM    408 1HB  LEU F  33)   23.38183510  *   1.05557970  *  27.39535676  *
   409       H(ATOM    409 2HB  LEU F  33)   24.45443089  *   0.15940002  *  26.32946686  *
   410       H(ATOM    410 1HD1 LEU F  33)   21.85132484  *   2.47507659  *  24.75767458  *
   411       H(ATOM    411 2HD1 LEU F  33)   22.13784639  *   3.16136665  *  26.35898968  *
   412       H(ATOM    412 3HD1 LEU F  33)   22.85317747  *   3.92904325  *  24.93055297  *
   413       H(ATOM    413 1HD2 LEU F  33)   25.80033785  *   2.26251613  *  26.54834394  *
   414       H(ATOM    414 2HD2 LEU F  33)   25.25413296  *   3.76815822  *  25.79853643  *
   415       H(ATOM    415 3HD2 LEU F  33)   24.52519318  *   3.22510269  *  27.29918525  *
   416       H(ATOM    416  H   LEU F  33)   21.25738693  *   0.08361088  *  27.57769795  *
   417       H(ATOM    417  HA  LEU F  33)   22.17403909  *   0.29454864  *  24.69370503  *
   418       H(ATOM    418  HG  LEU F  33)   24.24960998  *   1.82709826  *  24.54303731  *
   419       N(ATOM    419  N   GLN F  34)   22.19213666  *  -2.26341101  *  24.92786210  *
   420       C(ATOM    420  CA  GLN F  34)   22.15882945  *  -3.70753546  *  25.11554628  *
   421       C(ATOM    421  C   GLN F  34)   23.36949329  *  -4.30731121  *  24.40818097  *
   422       O(ATOM    422  O   GLN F  34)   23.95104726  *  -3.73347098  *  23.49641670  *
   423       C(ATOM    423  CB  GLN F  34)   20.85589859  *  -4.30979860  *  24.56558076  *
   424       C(ATOM    424  CG  GLN F  34)   19.66325332  *  -3.73183725  *  25.32621778  *
   425       C(ATOM    425  CD  GLN F  34)   18.39893075  *  -4.47332456  *  24.99628974  *
   426       O(ATOM    426  OE1 GLN F  34)   18.28127365  *  -5.25007089  *  24.05953852  *
   427       N(ATOM    427  NE2 GLN F  34)   17.33303506  *  -4.26396927  *  25.84346375  *
   428       H(ATOM    428 1HB  GLN F  34)   20.88937723  *  -5.41554045  *  24.67704041  *
   429       H(ATOM    429 2HB  GLN F  34)   20.74958144  *  -4.12268766  *  23.47963440  *
   430       H(ATOM    430 1HG  GLN F  34)   19.53204794  *  -2.64729412  *  25.09011653  *
   431       H(ATOM    431 2HG  GLN F  34)   19.85241502  *  -3.75867519  *  26.42266956  *
   432       H(ATOM    432 1HE2 GLN F  34)   16.44574998  *  -4.70409084  *  25.66701227  *
   433       H(ATOM    433 2HE2 GLN F  34)   17.37817087  *  -3.54817540  *  26.56340147  *
   434       H(ATOM    434  H   GLN F  34)   22.15815522  *  -1.90162992  *  23.97006225  *
   435       H(ATOM    435  HA  GLN F  34)   22.22327576  *  -3.93573437  *  26.22850512  *
   436       N(ATOM    436  N   ASP F  35)   23.85824320  *  -5.48643812  *  24.90056873  *
   437       C(ATOM    437  CA  ASP F  35)   24.85230588  *  -6.19053066  *  24.09356884  *
   438       C(ATOM    438  C   ASP F  35)   24.06538523  *  -7.08364675  *  23.11528721  *
   439       O(ATOM    439  O   ASP F  35)   22.83972187  *  -7.14605312  *  23.21972748  *
   440       C(ATOM    440  CB  ASP F  35)   25.81420695  *  -6.95549790  *  24.99602719  *
   441       C(ATOM    441  CG  ASP F  35)   25.22194088  *  -8.02434421  *  25.84969949  *
   442       O(ATOM    442  OD1 ASP F  35)   24.04481475  *  -8.45734496  *  25.39236656  *
   443       O(ATOM    443  OD2 ASP F  35)   25.72676175  *  -8.48523603  *  26.85187753  *
   444       H(ATOM    444 1HB  ASP F  35)   26.35794189  *  -6.21832650  *  25.64733097  *
   445       H(ATOM    445 2HB  ASP F  35)   26.62990255  *  -7.42674395  *  24.37889119  *
   446       H(ATOM    446  H   ASP F  35)   23.29089714  *  -6.06755360  *  25.52531403  *
   447       H(ATOM    447  HA  ASP F  35)   25.46248569  *  -5.44266072  *  23.49076987  *
   448       H(ATOM    448  HD1 ASP F  35)   23.63951562  *  -9.30774262  *  25.81445286  *
   449       N(ATOM    449  N   LYS F  36)   24.75855292  *  -7.76543943  *  22.17345374  *
   450       C(ATOM    450  CA  LYS F  36)   24.08454069  *  -8.56564309  *  21.14295658  *
   451       C(ATOM    451  C   LYS F  36)   23.15894008  *  -9.66478536  *  21.69591188  *
   452       O(ATOM    452  O   LYS F  36)   22.42784555  * -10.27507375  *  20.93034643  *
   453       C(ATOM    453  CB  LYS F  36)   25.13254093  *  -9.24313287  *  20.24261003  *
   454       C(ATOM    454  CG  LYS F  36)   25.55461007  *  -8.34260290  *  19.07766006  *
   455       C(ATOM    455  CD  LYS F  36)   24.46683367  *  -8.26360351  *  18.00088844  *
   456       C(ATOM    456  CE  LYS F  36)   24.90768060  *  -7.42288925  *  16.78980055  *
   457       N(ATOM    457  NZ  LYS F  36)   24.58076349  *  -5.99073641  *  17.01422664  *
   458       H(ATOM    458 1HB  LYS F  36)   26.02377323  *  -9.53870921  *  20.83702444  *
   459       H(ATOM    459 2HB  LYS F  36)   24.73603634  * -10.20269542  *  19.84551608  *
   460       H(ATOM    460 1HG  LYS F  36)   25.80974836  *  -7.33030370  *  19.44700990  *
   461       H(ATOM    461 2HG  LYS F  36)   26.49379188  *  -8.73390912  *  18.63651627  *
   462       H(ATOM    462 1HD  LYS F  36)   23.53196861  *  -7.84334366  *  18.42289177  *
   463       H(ATOM    463 2HD  LYS F  36)   24.20689537  *  -9.28428711  *  17.65797402  *
   464       H(ATOM    464 1HE  LYS F  36)   25.98517829  *  -7.58487268  *  16.57677908  *
   465       H(ATOM    465 2HE  LYS F  36)   24.35836904  *  -7.75716509  *  15.88103474  *
   466       H(ATOM    466 1HZ  LYS F  36)   25.14830000  *  -5.60274253  *  17.75344941  *
   467       H(ATOM    467 2HZ  LYS F  36)   24.75528187  *  -5.44856697  *  16.17489392  *
   468       H(ATOM    468  H   LYS F  36)   25.77354783  *  -7.60658819  *  22.05993164  *
   469       H(ATOM    469  HA  LYS F  36)   23.42766244  *  -7.88005154  *  20.51954671  *
   470       N(ATOM    470  N   THR F  37)   23.15674981  *  -9.95272683  *  23.03373946  *
   471       C(ATOM    471  CA  THR F  37)   22.23368095  * -10.93138796  *  23.59023338  *
   472       C(ATOM    472  C   THR F  37)   20.87039102  * -10.32560370  *  23.96087243  *
   473       O(ATOM    473  O   THR F  37)   20.00538216  * -11.04496004  *  24.44954128  *
   474       C(ATOM    474  CB  THR F  37)   22.78370229  * -11.54686136  *  24.91606171  *
   475       O(ATOM    475  OG1 THR F  37)   22.57561366  * -10.53946149  *  25.90087559  *
   476       C(ATOM    476  CG2 THR F  37)   24.25872315  * -11.88312740  *  24.87090319  *
   477       H(ATOM    477 1HG2 THR F  37)   24.50631282  * -12.51951957  *  24.00881011  *
   478       H(ATOM    478 2HG2 THR F  37)   24.90249155  * -10.99662174  *  24.80919940  *
   479       H(ATOM    479 3HG2 THR F  37)   24.57061961  * -12.42978905  *  25.77379921  *
   480       H(ATOM    480  H   THR F  37)   23.70731293  *  -9.42208049  *  23.69665887  *
   481       H(ATOM    481  HA  THR F  37)   22.05996916  * -11.76422948  *  22.84392562  *
   482       H(ATOM    482  HB  THR F  37)   22.15924773  * -12.43318190  *  25.19152432  *
   483       H(ATOM    483  HG1 THR F  37)   22.25916057  * -10.93184791  *  26.76665979  *
   484       N(ATOM    484  N   GLY F  38)   20.62268934  *  -8.99980972  *  23.72429402  *
   485       C(ATOM    485  CA  GLY F  38)   19.42817828  *  -8.38532101  *  24.28951375  *
   486       C(ATOM    486  C   GLY F  38)   19.57097318  *  -8.05870737  *  25.77523814  *
   487       O(ATOM    487  O   GLY F  38)   18.58914445  *  -7.73176058  *  26.42549068  *
   488       H(ATOM    488 1HA  GLY F  38)   18.53306075  *  -9.05415657  *  24.15112182  *
   489       H(ATOM    489 2HA  GLY F  38)   19.17735119  *  -7.44158190  *  23.73363107  *
   490       H(ATOM    490  H   GLY F  38)   21.35740013  *  -8.37089013  *  23.40606180  *
   491       N(ATOM    491  N   PHE F  39)   20.81333088  *  -8.17814957  *  26.34260120  *
   492       C(ATOM    492  CA  PHE F  39)   21.04727205  *  -7.81530085  *  27.73426507  *
   493       C(ATOM    493  C   PHE F  39)   21.36050432  *  -6.30976963  *  27.78902436  *
   494       O(ATOM    494  O   PHE F  39)   22.04493594  *  -5.75462193  *  26.94801772  *
   495       C(ATOM    495  CB  PHE F  39)   22.26498379  *  -8.56130460  *  28.31165544  *
   496       C(ATOM    496  CG  PHE F  39)   22.71711764  *  -7.96946732  *  29.61274857  *
   497       C(ATOM    497  CD1 PHE F  39)   21.84417450  *  -7.87699205  *  30.69989004  *
   498       C(ATOM    498  CD2 PHE F  39)   24.02452600  *  -7.49582111  *  29.73168969  *
   499       C(ATOM    499  CE1 PHE F  39)   22.27178006  *  -7.29199863  *  31.88893475  *
   500       C(ATOM    500  CE2 PHE F  39)   24.45021838  *  -6.91262736  *  30.92364155  *
   501       C(ATOM    501  CZ  PHE F  39)   23.57262186  *  -6.80258776  *  31.99994629  *
   502       H(ATOM    502 1HB  PHE F  39)   23.10203513  *  -8.55222194  *  27.57809201  *
   503       H(ATOM    503 2HB  PHE F  39)   22.03351391  *  -9.64171581  *  28.43863094  *
   504       H(ATOM    504  H   PHE F  39)   21.64460631  *  -8.30659754  *  25.77492835  *
   505       H(ATOM    505  HA  PHE F  39)   20.12354864  *  -8.05180860  *  28.33495390  *
   506       H(ATOM    506  HD1 PHE F  39)   20.81703339  *  -8.23032885  *  30.61878199  *
   507       H(ATOM    507  HD2 PHE F  39)   24.71603433  *  -7.57525625  *  28.89274100  *
   508       H(ATOM    508  HE1 PHE F  39)   21.58418657  *  -7.19646812  *  32.73242016  *
   509       H(ATOM    509  HE2 PHE F  39)   25.47125739  *  -6.53668709  *  31.01372079  *
   510       H(ATOM    510  HZ  PHE F  39)   23.89681745  *  -6.32084278  *  32.92265324  *
   511       N(ATOM    511  N   HIS F  40)   20.78109080  *  -5.65843608  *  28.83245532  *
   512       C(ATOM    512  CA  HIS F  40)   21.00410188  *  -4.24873931  *  29.11535698  *
   513       C(ATOM    513  C   HIS F  40)   22.31885662  *  -4.10474290  *  29.90106276  *
   514       O(ATOM    514  O   HIS F  40)   22.42199581  *  -4.25183078  *  31.10433425  *
   515       C(ATOM    515  CB  HIS F  40)   19.80393800  *  -3.75897501  *  29.94058164  *
   516       C(ATOM    516  CG  HIS F  40)   20.10531182  *  -2.65831615  *  30.86351940  *
   517       N(ATOM    517  ND1 HIS F  40)   20.66350848  *  -1.44980215  *  30.44093061  *
   518       C(ATOM    518  CD2 HIS F  40)   19.83098177  *  -2.50835731  *  32.22472849  *
   519       N(ATOM    519  NE2 HIS F  40)   20.22073329  *  -1.23940777  *  32.63314614  *
   520       C(ATOM    520  CE1 HIS F  40)   20.72079433  *  -0.61663384  *  31.55448699  *
   521       H(ATOM    521 1HB  HIS F  40)   19.36095587  *  -4.60435920  *  30.52664449  *
   522       H(ATOM    522 2HB  HIS F  40)   19.00263071  *  -3.45517554  *  29.21584442  *
   523       H(ATOM    523  H   HIS F  40)   20.27011833  *  -6.18512531  *  29.56025589  *
   524       H(ATOM    524  HA  HIS F  40)   21.07528246  *  -3.66645699  *  28.15097660  *
   525       H(ATOM    525  HD1 HIS F  40)   21.14120930  *  -1.30017677  *  29.57325285  *
   526       H(ATOM    526  HD2 HIS F  40)   19.38458284  *  -3.19118090  *  32.92603314  *
   527       H(ATOM    527  HE1 HIS F  40)   21.08035853  *   0.40142119  *  31.49413440  *
   528       N(ATOM    528  N   PHE F  41)   23.40475306  *  -3.79882918  *  29.11899783  *
   529       C(ATOM    529  CA  PHE F  41)   24.68779820  *  -3.53583151  *  29.74849941  *
   530       C(ATOM    530  C   PHE F  41)   24.80860985  *  -2.05601592  *  30.16543210  *
   531       O(ATOM    531  O   PHE F  41)   25.53825354  *  -1.79194696  *  31.11422193  *
   532       C(ATOM    532  CB  PHE F  41)   25.86636679  *  -3.95257609  *  28.85047710  *
   533       C(ATOM    533  CG  PHE F  41)   26.20817400  *  -2.90193094  *  27.84664815  *
   534       C(ATOM    534  CD1 PHE F  41)   27.27192780  *  -2.02387663  *  28.05924688  *
   535       C(ATOM    535  CD2 PHE F  41)   25.43922086  *  -2.79029228  *  26.68904484  *
   536       C(ATOM    536  CE1 PHE F  41)   27.54093785  *  -1.01334896  *  27.13936129  *
   537       C(ATOM    537  CE2 PHE F  41)   25.69500800  *  -1.76842387  *  25.78314612  *
   538       C(ATOM    538  CZ  PHE F  41)   26.74033869  *  -0.87520936  *  26.00901808  *
   539       H(ATOM    539 1HB  PHE F  41)   25.62969200  *  -4.91935410  *  28.35266108  *
   540       H(ATOM    540 2HB  PHE F  41)   26.75245535  *  -4.19271674  *  29.48862716  *
   541       H(ATOM    541  H   PHE F  41)   23.31026601  *  -3.58064093  *  28.12887149  *
   542       H(ATOM    542  HA  PHE F  41)   24.74009238  *  -4.14408234  *  30.70953357  *
   543       H(ATOM    543  HD1 PHE F  41)   27.90889195  *  -2.12780757  *  28.93967686  *
   544       H(ATOM    544  HD2 PHE F  41)   24.63804851  *  -3.50173195  *  26.49684944  *
   545       H(ATOM    545  HE1 PHE F  41)   28.39014048  *  -0.34948949  *  27.30520284  *
   546       H(ATOM    546  HE2 PHE F  41)   25.06783054  *  -1.66971690  *  24.89564050  *
   547       H(ATOM    547  HZ  PHE F  41)   26.94021781  *  -0.08152749  *  25.28887339  *
   548       N(ATOM    548  N   CYS F  42)   24.05643047  *  -1.08218715  *  29.57515845  *
   549       C(ATOM    549  CA  CYS F  42)   24.14772813  *   0.29585633  *  30.07420096  *
   550       C(ATOM    550  C   CYS F  42)   22.80574628  *   0.99804845  *  29.80902963  *
   551       O(ATOM    551  O   CYS F  42)   21.91212074  *   0.49290491  *  29.13253111  *
   552       C(ATOM    552  CB  CYS F  42)   25.28177296  *   1.05963091  *  29.36845432  *
   553       S(ATOM    553  SG  CYS F  42)   26.77503987  *   1.01259814  *  30.43012260  *
   554       H(ATOM    554 1HB  CYS F  42)   25.52363146  *   0.59395131  *  28.39096320  *
   555       H(ATOM    555 2HB  CYS F  42)   24.98732527  *   2.10434968  *  29.14525679  *
   556       H(ATOM    556  H   CYS F  42)   23.53600958  *  -1.23612501  *  28.70656328  *
   557       H(ATOM    557  HA  CYS F  42)   24.30206412  *   0.27020235  *  31.20084492  *
   558       N(ATOM    558  N   GLY F  43)   22.59431085  *   2.23890259  *  30.31261033  *
   559       C(ATOM    559  CA  GLY F  43)   21.46225351  *   3.02886404  *  29.84389481  *
   560       C(ATOM    560  C   GLY F  43)   22.00590212  *   4.10076602  *  28.90222970  *
   561       O(ATOM    561  O   GLY F  43)   23.20305330  *   4.31925014  *  28.79310024  *
   562       H(ATOM    562 1HA  GLY F  43)   20.96541593  *   3.51715958  *  30.72626176  *
   563       H(ATOM    563 2HA  GLY F  43)   20.68318046  *   2.39593847  *  29.34778787  *
   564       H(ATOM    564  H   GLY F  43)   23.30056509  *   2.75893359  *  30.84428105  *
   565       N(ATOM    565  N   GLY F  44)   21.08575264  *   4.88389834  *  28.26271559  *
   566       C(ATOM    566  CA  GLY F  44)   21.55713468  *   5.97760333  *  27.41725304  *
   567       C(ATOM    567  C   GLY F  44)   20.46211330  *   7.02762551  *  27.34054900  *
   568       O(ATOM    568  O   GLY F  44)   19.30282493  *   6.80366805  *  27.66315066  *
   569       H(ATOM    569 1HA  GLY F  44)   21.82092788  *   5.61949308  *  26.39308400  *
   570       H(ATOM    570 2HA  GLY F  44)   22.50838584  *   6.41641903  *  27.83683581  *
   571       H(ATOM    571  H   GLY F  44)   20.11046182  *   4.61588915  *  28.14490085  *
   572       N(ATOM    572  N   SER F  45)   20.82353919  *   8.23499971  *  26.81327158  *
   573       C(ATOM    573  CA  SER F  45)   19.80692227  *   9.25724189  *  26.60802350  *
   574       C(ATOM    574  C   SER F  45)   19.83529142  *   9.62443240  *  25.11955343  *
   575       O(ATOM    575  O   SER F  45)   20.77029416  *  10.24401809  *  24.62092551  *
   576       C(ATOM    576  CB  SER F  45)   20.11205596  *  10.55181821  *  27.40566573  *
   577       O(ATOM    577  OG  SER F  45)   20.25483912  *  10.23325187  *  28.75812316  *
   578       H(ATOM    578 1HB  SER F  45)   21.01529129  *  11.06293876  *  27.02532453  *
   579       H(ATOM    579 2HB  SER F  45)   19.24588097  *  11.24112013  *  27.36692199  *
   580       H(ATOM    580  H   SER F  45)   21.79389741  *   8.51795379  *  26.67517335  *
   581       H(ATOM    581  HA  SER F  45)   18.79525307  *   8.86150982  *  26.92468660  *
   582       H(ATOM    582  HG  SER F  45)   21.20982814  *   9.98995882  *  28.95554023  *
   583       N(ATOM    583  N   LEU F  46)   18.76171138  *   9.29312418  *  24.35430560  *
   584       C(ATOM    584  CA  LEU F  46)   18.65839811  *   9.86534541  *  23.01093198  *
   585       C(ATOM    585  C   LEU F  46)   18.70333390  *  11.39674338  *  23.17227233  *
   586       O(ATOM    586  O   LEU F  46)   17.85199582  *  12.02657971  *  23.77912021  *
   587       C(ATOM    587  CB  LEU F  46)   17.34181283  *   9.48734160  *  22.32281646  *
   588       C(ATOM    588  CG  LEU F  46)   17.51494208  *   8.26058244  *  21.41033553  *
   589       C(ATOM    589  CD1 LEU F  46)   16.13344987  *   7.67643103  *  21.09421343  *
   590       C(ATOM    590  CD2 LEU F  46)   18.25271386  *   8.63655884  *  20.12424665  *
   591       H(ATOM    591 1HB  LEU F  46)   16.94967798  *  10.34396854  *  21.73547480  *
   592       H(ATOM    592 2HB  LEU F  46)   16.54334326  *   9.30713162  *  23.07559272  *
   593       H(ATOM    593 1HD1 LEU F  46)   15.66415158  *   7.27048973  *  22.00000237  *
   594       H(ATOM    594 2HD1 LEU F  46)   15.46020981  *   8.44831685  *  20.69982573  *
   595       H(ATOM    595 3HD1 LEU F  46)   16.20175340  *   6.87227655  *  20.35541541  *
   596       H(ATOM    596 1HD2 LEU F  46)   19.24646160  *   9.06233052  *  20.31968186  *
   597       H(ATOM    597 2HD2 LEU F  46)   18.39501781  *   7.77366071  *  19.46600657  *
   598       H(ATOM    598 3HD2 LEU F  46)   17.72164401  *   9.40246548  *  19.54543593  *
   599       H(ATOM    599  H   LEU F  46)   17.95597983  *   8.76879794  *  24.72464207  *
   600       H(ATOM    600  HA  LEU F  46)   19.53698816  *   9.51895366  *  22.39171686  *
   601       H(ATOM    601  HG  LEU F  46)   18.11147827  *   7.48869788  *  21.95574339  *
   602       N(ATOM    602  N   ILE F  47)   19.74422523  *  12.01890228  *  22.55196014  *
   603       C(ATOM    603  CA  ILE F  47)   19.78136826  *  13.46793729  *  22.43333273  *
   604       C(ATOM    604  C   ILE F  47)   19.14997251  *  13.87279975  *  21.09227377  *
   605       O(ATOM    605  O   ILE F  47)   18.61404331  *  14.97501704  *  20.98169921  *
   606       C(ATOM    606  CB  ILE F  47)   21.21150607  *  14.03489967  *  22.59867019  *
   607       C(ATOM    607  CG1 ILE F  47)   22.24429486  *  13.28662100  *  21.74166280  *
   608       C(ATOM    608  CG2 ILE F  47)   21.56956068  *  13.96295967  *  24.08455969  *
   609       C(ATOM    609  CD1 ILE F  47)   23.47495928  *  14.15074579  *  21.48600565  *
   610       H(ATOM    610 1HG1 ILE F  47)   22.54023649  *  12.33813705  *  22.23151544  *
   611       H(ATOM    611 2HG1 ILE F  47)   21.79265375  *  13.00210051  *  20.76819569  *
   612       H(ATOM    612 1HG2 ILE F  47)   20.91446489  *  14.60316027  *  24.68746256  *
   613       H(ATOM    613 2HG2 ILE F  47)   21.49265897  *  12.93668845  *  24.47018113  *
   614       H(ATOM    614 3HG2 ILE F  47)   22.59345413  *  14.30833021  *  24.26064776  *
   615       H(ATOM    615 1HD1 ILE F  47)   24.20894099  *  13.63346282  *  20.85830762  *
   616       H(ATOM    616 2HD1 ILE F  47)   23.19595380  *  15.08247283  *  20.96632062  *
   617       H(ATOM    617 3HD1 ILE F  47)   23.97655007  *  14.43964770  *  22.41450788  *
   618       H(ATOM    618  H   ILE F  47)   20.51166590  *  11.49590833  *  22.12616824  *
   619       H(ATOM    619  HA  ILE F  47)   19.12947056  *  13.93587655  *  23.23836893  *
   620       H(ATOM    620  HB  ILE F  47)   21.19781963  *  15.11266571  *  22.28216378  *
   621       N(ATOM    621  N   ASN F  48)   19.05802266  *  12.96804587  *  20.07710661  *
   622       C(ATOM    622  CA  ASN F  48)   18.38839574  *  13.36988716  *  18.83328411  *
   623       C(ATOM    623  C   ASN F  48)   18.31198409  *  12.12463864  *  17.93388118  *
   624       O(ATOM    624  O   ASN F  48)   18.92550308  *  11.09865807  *  18.18716274  *
   625       C(ATOM    625  CB  ASN F  48)   19.10560796  *  14.53007026  *  18.13647885  *
   626       C(ATOM    626  CG  ASN F  48)   20.47637793  *  14.13566469  *  17.66074849  *
   627       O(ATOM    627  OD1 ASN F  48)   20.62134309  *  13.19838931  *  16.87214118  *
   628       N(ATOM    628  ND2 ASN F  48)   21.56449574  *  14.79493509  *  18.13663829  *
   629       H(ATOM    629 1HB  ASN F  48)   19.13643837  *  15.42074518  *  18.80816772  *
   630       H(ATOM    630 2HB  ASN F  48)   18.51719273  *  14.89216102  *  17.25511936  *
   631       H(ATOM    631 1HD2 ASN F  48)   21.49131913  *  15.61292612  *  18.73322159  *
   632       H(ATOM    632 2HD2 ASN F  48)   22.45416672  *  14.65854098  *  17.68646096  *
   633       H(ATOM    633  H   ASN F  48)   19.62378842  *  12.10877419  *  20.04237128  *
   634       H(ATOM    634  HA  ASN F  48)   17.33983480  *  13.71044721  *  19.08934712  *
   635       N(ATOM    635  N   GLU F  49)   17.53039049  *  12.20538292  *  16.81927577  *
   636       C(ATOM    636  CA  GLU F  49)   17.33998734  *  11.01734208  *  15.97409259  *
   637       C(ATOM    637  C   GLU F  49)   18.60166061  *  10.15888090  *  15.79567201  *
   638       O(ATOM    638  O   GLU F  49)   18.49558017  *   8.94404934  *  15.67575170  *
   639       C(ATOM    639  CB  GLU F  49)   16.88556179  *  11.45953490  *  14.56888830  *
   640       C(ATOM    640  CG  GLU F  49)   15.39386713  *  11.76283920  *  14.54967886  *
   641       H(ATOM    641 1HB  GLU F  49)   17.47092587  *  12.34195073  *  14.23231354  *
   642       H(ATOM    642 2HB  GLU F  49)   17.11531116  *  10.66182631  *  13.82802258  *
   643       H(ATOM    643 1HG  GLU F  49)   15.04367369  *  11.92097794  *  13.51935023  *
   644       H(ATOM    644 2HG  GLU F  49)   14.81298257  *  10.93920663  *  14.99106730  *
   645       H(ATOM    645 3HG  GLU F  49)   15.15798981  *  12.67361738  *  15.11507969  *
   646       H(ATOM    646  H   GLU F  49)   16.85908559  *  12.97024134  *  16.68343206  *
   647       H(ATOM    647  HA  GLU F  49)   16.55342993  *  10.35506854  *  16.44890267  *
   648       N(ATOM    648  N   ASN F  50)   19.81831471  *  10.75822672  *  15.60042325  *
   649       C(ATOM    649  CA  ASN F  50)   20.98109537  *   9.92672667  *  15.31604322  *
   650       C(ATOM    650  C   ASN F  50)   21.89262216  *   9.68605250  *  16.53653089  *
   651       O(ATOM    651  O   ASN F  50)   22.86686282  *   8.95932394  *  16.37779468  *
   652       C(ATOM    652  CB  ASN F  50)   21.90315406  *  10.59915025  *  14.28059265  *
   653       C(ATOM    653  CG  ASN F  50)   21.15295864  *  10.97755268  *  13.02594503  *
   654       O(ATOM    654  OD1 ASN F  50)   20.57780747  *  10.15187936  *  12.33015853  *
   655       N(ATOM    655  ND2 ASN F  50)   21.21788118  *  12.28648527  *  12.63896029  *
   656       H(ATOM    656 1HB  ASN F  50)   22.71854016  *   9.88436079  *  14.00567139  *
   657       H(ATOM    657 2HB  ASN F  50)   22.42235895  *  11.47167220  *  14.72673269  *
   658       H(ATOM    658 1HD2 ASN F  50)   20.71486421  *  12.61191107  *  11.82864353  *
   659       H(ATOM    659 2HD2 ASN F  50)   21.58370534  *  13.00797017  *  13.23826887  *
   660       H(ATOM    660  H   ASN F  50)   19.99507158  *  11.71755583  *  15.88414661  *
   661       H(ATOM    661  HA  ASN F  50)   20.63964063  *   8.91811528  *  14.92616108  *
   662       N(ATOM    662  N   TRP F  51)   21.67935579  *  10.31332229  *  17.72538662  *
   663       C(ATOM    663  CA  TRP F  51)   22.74002552  *  10.30225134  *  18.72575577  *
   664       C(ATOM    664  C   TRP F  51)   22.15419404  *  10.01948691  *  20.12126701  *
   665       O(ATOM    665  O   TRP F  51)   21.21605037  *  10.66221765  *  20.57313342  *
   666       C(ATOM    666  CB  TRP F  51)   23.38484450  *  11.70324297  *  18.84513112  *
   667       C(ATOM    667  CG  TRP F  51)   24.15309745  *  12.07245376  *  17.64483781  *
   668       C(ATOM    668  CD1 TRP F  51)   23.67569864  *  12.67582329  *  16.49048406  *
   669       C(ATOM    669  CD2 TRP F  51)   25.57975932  *  11.98178489  *  17.51849220  *
   670       N(ATOM    670  NE1 TRP F  51)   24.74619302  *  13.03425082  *  15.66817832  *
   671       C(ATOM    671  CE2 TRP F  51)   25.92329000  *  12.61180928  *  16.28187634  *
   672       C(ATOM    672  CE3 TRP F  51)   26.59452789  *  11.45527948  *  18.32100788  *
   673       C(ATOM    673  CZ2 TRP F  51)   27.25627403  *  12.78951217  *  15.89141450  *
   674       C(ATOM    674  CZ3 TRP F  51)   27.90691515  *  11.64117632  *  17.93551209  *
   675       C(ATOM    675  CH2 TRP F  51)   28.23513728  *  12.31320098  *  16.73936264  *
   676       H(ATOM    676 1HB  TRP F  51)   24.03976901  *  11.73130239  *  19.74439305  *
   677       H(ATOM    677 2HB  TRP F  51)   22.58925507  *  12.46087483  *  19.04051745  *
   678       H(ATOM    678  H   TRP F  51)   20.89474654  *  10.93944791  *  17.90827604  *
   679       H(ATOM    679  HA  TRP F  51)   23.52461474  *   9.53285109  *  18.44689211  *
   680       H(ATOM    680  HD1 TRP F  51)   22.65614238  *  12.89993794  *  16.20913157  *
   681       H(ATOM    681  HE1 TRP F  51)   24.67807574  *  13.37962195  *  14.72260966  *
   682       H(ATOM    682  HE3 TRP F  51)   26.33410934  *  10.90842886  *  19.22539803  *
   683       H(ATOM    683  HZ2 TRP F  51)   27.49092077  *  13.29728617  *  14.95825773  *
   684       H(ATOM    684  HZ3 TRP F  51)   28.72059015  *  11.26595298  *  18.55565886  *
   685       H(ATOM    685  HH2 TRP F  51)   29.29249146  *  12.45001548  *  16.49702480  *
   686       N(ATOM    686  N   VAL F  52)   22.80091490  *   9.06662044  *  20.85063452  *
   687       C(ATOM    687  CA  VAL F  52)   22.51723884  *   8.82289929  *  22.26071676  *
   688       C(ATOM    688  C   VAL F  52)   23.74282711  *   9.28980036  *  23.06270186  *
   689       O(ATOM    689  O   VAL F  52)   24.88827614  *   9.06055218  *  22.69734728  *
   690       C(ATOM    690  CB  VAL F  52)   22.29938536  *   7.29791737  *  22.48373190  *
   691       C(ATOM    691  CG1 VAL F  52)   22.61391791  *   6.88411606  *  23.92042504  *
   692       C(ATOM    692  CG2 VAL F  52)   20.85141446  *   6.95667230  *  22.13666328  *
   693       H(ATOM    693 1HG1 VAL F  52)   23.68283448  *   6.97894224  *  24.15179478  *
   694       H(ATOM    694 2HG1 VAL F  52)   22.06564531  *   7.49531301  *  24.64759647  *
   695       H(ATOM    695 3HG1 VAL F  52)   22.34059996  *   5.83599670  *  24.09353564  *
   696       H(ATOM    696 1HG2 VAL F  52)   20.57472228  *   7.34641483  *  21.14680112  *
   697       H(ATOM    697 2HG2 VAL F  52)   20.69371076  *   5.87102576  *  22.11569368  *
   698       H(ATOM    698 3HG2 VAL F  52)   20.15070052  *   7.37208564  *  22.87201532  *
   699       H(ATOM    699  H   VAL F  52)   23.58750964  *   8.53224766  *  20.45429316  *
   700       H(ATOM    700  HA  VAL F  52)   21.60387824  *   9.39663085  *  22.58633671  *
   701       H(ATOM    701  HB  VAL F  52)   22.98532289  *   6.73892721  *  21.79388301  *
   702       N(ATOM    702  N   VAL F  53)   23.52656764  *   9.99818867  *  24.20968253  *
   703       C(ATOM    703  CA  VAL F  53)   24.65648330  *  10.29510034  *  25.08725471  *
   704       C(ATOM    704  C   VAL F  53)   24.65820366  *   9.22827160  *  26.19797448  *
   705       O(ATOM    705  O   VAL F  53)   23.61307498  *   8.83677966  *  26.71179676  *
   706       C(ATOM    706  CB  VAL F  53)   24.50967592  *  11.69132275  *  25.74013254  *
   707       C(ATOM    707  CG1 VAL F  53)   25.48247971  *  11.81602923  *  26.90970913  *
   708       C(ATOM    708  CG2 VAL F  53)   24.81490859  *  12.77923794  *  24.71280665  *
   709       H(ATOM    709 1HG1 VAL F  53)   25.20395523  *  11.17083860  *  27.75599057  *
   710       H(ATOM    710 2HG1 VAL F  53)   26.50826363  *  11.55306580  *  26.61889616  *
   711       H(ATOM    711 3HG1 VAL F  53)   25.50903377  *  12.84304432  *  27.29476926  *
   712       H(ATOM    712 1HG2 VAL F  53)   24.18439001  *  12.67010546  *  23.81923622  *
   713       H(ATOM    713 2HG2 VAL F  53)   24.63828860  *  13.77649499  *  25.13087847  *
   714       H(ATOM    714 3HG2 VAL F  53)   25.86395186  *  12.74673030  *  24.39103202  *
   715       H(ATOM    715  H   VAL F  53)   22.59055318  *  10.12176946  *  24.60711551  *
   716       H(ATOM    716  HA  VAL F  53)   25.62189962  *  10.25512282  *  24.49914935  *
   717       H(ATOM    717  HB  VAL F  53)   23.46111400  *  11.81205985  *  26.11069511  *
   718       N(ATOM    718  N   THR F  54)   25.85626775  *   8.67963913  *  26.50598758  *
   719       C(ATOM    719  CA  THR F  54)   26.01031218  *   7.63978509  *  27.51480503  *
   720       C(ATOM    720  C   THR F  54)   27.29341599  *   7.91928710  *  28.30284644  *
   721       O(ATOM    721  O   THR F  54)   27.87185139  *   8.99528061  *  28.23738611  *
   722       C(ATOM    722  CB  THR F  54)   26.02336799  *   6.24707149  *  26.80401105  *
   723       O(ATOM    723  OG1 THR F  54)   25.97195689  *   5.26765260  *  27.81767384  *
   724       C(ATOM    724  CG2 THR F  54)   27.30648689  *   5.98119833  *  26.03339609  *
   725       H(ATOM    725 1HG2 THR F  54)   27.60513785  *   6.84678218  *  25.42857680  *
   726       H(ATOM    726 2HG2 THR F  54)   28.14210500  *   5.73129075  *  26.70894485  *
   727       H(ATOM    727 3HG2 THR F  54)   27.19484834  *   5.12587346  *  25.35530813  *
   728       H(ATOM    728  H   THR F  54)   26.72720234  *   9.01215599  *  26.07852667  *
   729       H(ATOM    729  HA  THR F  54)   25.13701563  *   7.66500688  *  28.24203607  *
   730       H(ATOM    730  HB  THR F  54)   25.12145225  *   6.16229561  *  26.15637406  *
   731       H(ATOM    731  HG1 THR F  54)   25.04963144  *   5.10360702  *  28.12974644  *
   732       N(ATOM    732  N   ALA F  55)   27.69783841  *   6.96554728  *  29.19854592  *
   733       C(ATOM    733  CA  ALA F  55)   28.87711939  *   7.21247363  *  30.02840103  *
   734       C(ATOM    734  C   ALA F  55)   30.09700825  *   6.61437889  *  29.30959884  *
   735       O(ATOM    735  O   ALA F  55)   30.00324333  *   5.59449342  *  28.63389314  *
   736       C(ATOM    736  CB  ALA F  55)   28.72865188  *   6.54272226  *  31.39107257  *
   737       H(ATOM    737 1HB  ALA F  55)   27.84222024  *   6.91888435  *  31.92984460  *
   738       H(ATOM    738 2HB  ALA F  55)   28.64058877  *   5.45390423  *  31.32710474  *
   739       H(ATOM    739 3HB  ALA F  55)   29.59201762  *   6.77170695  *  32.03665116  *
   740       H(ATOM    740  H   ALA F  55)   27.38248166  *   5.99581741  *  29.10114299  *
   741       H(ATOM    741  HA  ALA F  55)   29.00709487  *   8.33084092  *  30.16995753  *
   742       N(ATOM    742  N   ALA F  56)   31.26349094  *   7.31571660  *  29.37655194  *
   743       C(ATOM    743  CA  ALA F  56)   32.48038017  *   6.80759615  *  28.73910224  *
   744       C(ATOM    744  C   ALA F  56)   32.95571220  *   5.47766040  *  29.34309816  *
   745       O(ATOM    745  O   ALA F  56)   33.38669986  *   4.60322564  *  28.58316087  *
   746       C(ATOM    746  CB  ALA F  56)   33.61012001  *   7.81577883  *  28.88870786  *
   747       H(ATOM    747 1HB  ALA F  56)   33.35751207  *   8.79401583  *  28.45647916  *
   748       H(ATOM    748 2HB  ALA F  56)   33.85103085  *   7.99658322  *  29.95279487  *
   749       H(ATOM    749 3HB  ALA F  56)   34.53819036  *   7.47171665  *  28.41080762  *
   750       H(ATOM    750  H   ALA F  56)   31.41513282  *   8.03279125  *  30.09622047  *
   751       H(ATOM    751  HA  ALA F  56)   32.24249238  *   6.59868660  *  27.65395232  *
   752       N(ATOM    752  N   HIS F  57)   32.85386485  *   5.30452347  *  30.67882574  *
   753       C(ATOM    753  CA  HIS F  57)   33.29605436  *   4.06511720  *  31.31423846  *
   754       C(ATOM    754  C   HIS F  57)   32.41079002  *   2.88152160  *  30.89951972  *
   755       O(ATOM    755  O   HIS F  57)   32.80520575  *   1.74235119  *  31.10413594  *
   756       C(ATOM    756  CB  HIS F  57)   33.26594587  *   4.21169546  *  32.84761758  *
   757       C(ATOM    757  CG  HIS F  57)   31.96025419  *   3.86535569  *  33.43066307  *
   758       N(ATOM    758  ND1 HIS F  57)   30.97648659  *   4.80892341  *  33.71891885  *
   759       C(ATOM    759  CD2 HIS F  57)   31.42549629  *   2.61915775  *  33.77865000  *
   760       N(ATOM    760  NE2 HIS F  57)   30.14401230  *   2.80556572  *  34.25692753  *
   761       C(ATOM    761  CE1 HIS F  57)   29.89251468  *   4.13332268  *  34.23567330  *
   762       H(ATOM    762 1HB  HIS F  57)   33.56689313  *   5.25484264  *  33.12867332  *
   763       H(ATOM    763 2HB  HIS F  57)   34.06883498  *   3.56991590  *  33.28862321  *
   764       H(ATOM    764  H   HIS F  57)   32.58590522  *   6.10399378  *  31.30915730  *
   765       H(ATOM    765  HA  HIS F  57)   34.35916406  *   3.82302873  *  30.98455279  *
   766       H(ATOM    766  HD1 HIS F  57)   31.08927952  *   5.83738058  *  33.61554527  *
   767       H(ATOM    767  HD2 HIS F  57)   31.88303420  *   1.64824162  *  33.71509927  *
   768       H(ATOM    768  HE1 HIS F  57)   28.98826911  *   4.60231663  *  34.58700818  *
   769       N(ATOM    769  N   CYS F  58)   31.23538075  *   3.11459618  *  30.23455215  *
   770       C(ATOM    770  CA  CYS F  58)   30.41708299  *   1.99728350  *  29.75540343  *
   771       C(ATOM    771  C   CYS F  58)   31.16793695  *   1.16775147  *  28.69127573  *
   772       O(ATOM    772  O   CYS F  58)   30.77251892  *   0.03814224  *  28.41941296  *
   773       C(ATOM    773  CB  CYS F  58)   29.13648555  *   2.50031042  *  29.08127385  *
   774       S(ATOM    774  SG  CYS F  58)   27.77886543  *   2.71761576  *  30.27121084  *
   775       H(ATOM    775 1HB  CYS F  58)   29.29426969  *   3.48519317  *  28.58014598  *
   776       H(ATOM    776 2HB  CYS F  58)   28.83944472  *   1.82477158  *  28.25027729  *
   777       H(ATOM    777  H   CYS F  58)   30.87509123  *   4.05344608  *  30.10199924  *
   778       H(ATOM    778  HA  CYS F  58)   30.20136853  *   1.29980701  *  30.61976204  *
   779       N(ATOM    779  N   GLY F  59)   32.20980954  *   1.72771329  *  28.02359890  *
   780       C(ATOM    780  CA  GLY F  59)   32.87034580  *   0.95677343  *  26.97415052  *
   781       C(ATOM    781  C   GLY F  59)   31.84992056  *   0.38349818  *  25.99332761  *
   782       O(ATOM    782  O   GLY F  59)   31.92994735  *  -0.77840223  *  25.60312050  *
   783       H(ATOM    783 1HA  GLY F  59)   33.45409589  *   0.11046036  *  27.42544282  *
   784       H(ATOM    784 2HA  GLY F  59)   33.61455731  *   1.59083177  *  26.43019311  *
   785       H(ATOM    785  H   GLY F  59)   32.48144243  *   2.69943920  *  28.14741170  *
   786       N(ATOM    786  N   VAL F  60)   30.87951232  *   1.22639049  *  25.53980387  *
   787       C(ATOM    787  CA  VAL F  60)   29.91924689  *   0.75981700  *  24.54463354  *
   788       C(ATOM    788  C   VAL F  60)   30.69022776  *   0.37300747  *  23.26753242  *
   789       O(ATOM    789  O   VAL F  60)   31.61029585  *   1.03180896  *  22.82320753  *
   790       C(ATOM    790  CB  VAL F  60)   28.90273482  *   1.86353822  *  24.15036759  *
   791       C(ATOM    791  CG1 VAL F  60)   27.85280782  *   1.26092419  *  23.21384212  *
   792       C(ATOM    792  CG2 VAL F  60)   28.24083122  *   2.45220454  *  25.39490252  *
   793       H(ATOM    793 1HG1 VAL F  60)   28.27788651  *   0.98865226  *  22.23668078  *
   794       H(ATOM    794 2HG1 VAL F  60)   27.40203886  *   0.34968042  *  23.62940969  *
   795       H(ATOM    795 3HG1 VAL F  60)   27.03717496  *   1.96739575  *  23.01957910  *
   796       H(ATOM    796 1HG2 VAL F  60)   28.91188219  *   3.14682564  *  25.92401897  *
   797       H(ATOM    797 2HG2 VAL F  60)   27.34576291  *   3.02858032  *  25.13383687  *
   798       H(ATOM    798 3HG2 VAL F  60)   27.94201668  *   1.67751784  *  26.10920465  *
   799       H(ATOM    799  H   VAL F  60)   30.83283133  *   2.20409557  *  25.83779818  *
   800       H(ATOM    800  HA  VAL F  60)   29.37198084  *  -0.13332799  *  24.96493016  *
   801       H(ATOM    801  HB  VAL F  60)   29.45361248  *   2.67729680  *  23.61138710  *
   802       N(ATOM    802  N   THR F  61)   30.25127660  *  -0.76738166  *  22.64401053  *
   803       C(ATOM    803  CA  THR F  61)   30.77750853  *  -1.16864804  *  21.35330372  *
   804       C(ATOM    804  C   THR F  61)   29.66852396  *  -0.95733549  *  20.31054575  *
   805       O(ATOM    805  O   THR F  61)   28.48660637  *  -0.85033870  *  20.59491749  *
   806       C(ATOM    806  CB  THR F  61)   31.16499350  *  -2.67868643  *  21.33020055  *
   807       O(ATOM    807  OG1 THR F  61)   29.93673186  *  -3.36796802  *  21.14585353  *
   808       C(ATOM    808  CG2 THR F  61)   31.89422523  *  -3.13819952  *  22.57134416  *
   809       H(ATOM    809 1HG2 THR F  61)   32.88315023  *  -2.65749857  *  22.65459091  *
   810       H(ATOM    810 2HG2 THR F  61)   31.36084543  *  -2.90724894  *  23.50090136  *
   811       H(ATOM    811 3HG2 THR F  61)   32.08003046  *  -4.22369057  *  22.54892893  *
   812       H(ATOM    812  H   THR F  61)   29.45622210  *  -1.29688266  *  22.98518178  *
   813       H(ATOM    813  HA  THR F  61)   31.69351867  *  -0.55798113  *  21.09604286  *
   814       H(ATOM    814  HB  THR F  61)   31.74732583  *  -2.91321827  *  20.40294839  *
   815       H(ATOM    815  HG1 THR F  61)   29.74526606  *  -4.01580872  *  21.85563760  *
   816       N(ATOM    816  N   THR F  62)   30.08035995  *  -0.88161177  *  19.00351498  *
   817       C(ATOM    817  CA  THR F  62)   29.10006844  *  -0.86319371  *  17.93021755  *
   818       C(ATOM    818  C   THR F  62)   28.45904697  *  -2.23573952  *  17.69771134  *
   819       O(ATOM    819  O   THR F  62)   27.64649759  *  -2.40252938  *  16.77454023  *
   820       C(ATOM    820  CB  THR F  62)   29.79065655  *  -0.39653784  *  16.60512367  *
   821       O(ATOM    821  OG1 THR F  62)   31.04418017  *  -1.03370171  *  16.49598799  *
   822       C(ATOM    822  CG2 THR F  62)   30.09492568  *   1.09029695  *  16.63784738  *
   823       H(ATOM    823 1HG2 THR F  62)   29.17624668  *   1.68044490  *  16.51942309  *
   824       H(ATOM    824 2HG2 THR F  62)   30.60420725  *   1.38642228  *  17.56512861  *
   825       H(ATOM    825 3HG2 THR F  62)   30.77390896  *   1.35138422  *  15.80762883  *
   826       H(ATOM    826  H   THR F  62)   31.05674635  *  -1.09577680  *  18.72275811  *
   827       H(ATOM    827  HA  THR F  62)   28.25379944  *  -0.15516349  *  18.19476439  *
   828       H(ATOM    828  HB  THR F  62)   29.16633944  *  -0.66914031  *  15.72114889  *
   829       H(ATOM    829  HG1 THR F  62)   30.95645253  *  -2.00591566  *  16.40745062  *
   830       N(ATOM    830  N   SER F  63)   28.79134870  *  -3.30427594  *  18.46645917  *
   831       C(ATOM    831  CA  SER F  63)   27.95253828  *  -4.50335096  *  18.46746112  *
   832       C(ATOM    832  C   SER F  63)   26.95235768  *  -4.47808835  *  19.63301337  *
[...]
 3925  H   0.63071
 3926  O   1.81478   1.82991   1.59034   1.56405
 3927  H   0.59782
 3928  H   0.61658
 3929  O   1.81026   1.79169   1.48261   1.68260
 3930  H   0.61661
 3931  H   0.63428
 3932  O   1.81353   1.83029   1.53004   1.62582
 3933  H   0.62562
 3934  H   0.62435
 3935  O   1.81728   1.76243   1.61611   1.58541
 3936  H   0.61387
 3937  H   0.63350
 3938  O   1.80792   1.94509   1.44274   1.58459
 3939  H   0.61152
 3940  H   0.60764
 3941  O   1.80544   1.71415   1.70015   1.54314
 3942  H   0.61195
 3943  H   0.61055
 3944  O   1.81406   1.76663   1.74016   1.45734
 3945  H   0.61499
 3946  H   0.63060
 3947  O   1.82584   1.50091   1.81841   1.60586
 3948  H   0.61389
 3949  H   0.61503
 3950  O   1.81093   1.66826   1.66685   1.62742
 3951  H   0.61529
 3952  H   0.60981
 3953  O   1.81449   1.71326   1.73029   1.49237
 3954  H   0.60797
 3955  H   0.61803
 3956  O   1.81766   1.58893   1.91618   1.46116
 3957  H   0.62055
 3958  H   0.61934
 3959  O   1.81183   1.65542   1.68536   1.64419
 3960  H   0.62036
 3961  H   0.61258
 3962  O   1.80993   1.62203   1.59243   1.75018
 3963  H   0.61691
 3964  H   0.62668
 3965  O   1.81083   1.47286   1.49128   1.98081
 3966  H   0.62201
 3967  H   0.64602
 3968  O   1.80169   1.56093   1.53279   1.85249
 3969  H   0.59558
 3970  H   0.60148
 3971  O   1.80672   1.59050   1.57605   1.84899
 3972  H   0.58396
 3973  H   0.58716
 3974  O   1.80982   1.80551   1.51326   1.63165
 3975  H   0.62009
 3976  H   0.62318
 3977  O   1.81440   1.49881   1.54653   1.90325
 3978  H   0.62139
 3979  H   0.61413
 3980  O   1.81780   1.95187   1.47993   1.53688
 3981  H   0.62002
 3982  H   0.60842
 3983  O   1.82436   1.48866   1.69200   1.78503
 3984  H   0.63064
 3985  H   0.62297
 3986  O   1.80502   1.71138   1.62629   1.65311
 3987  H   0.61292
 3988  H   0.60399
 3989  O   1.81115   1.60150   1.86351   1.44840
 3990  H   0.64115
 3991  H   0.64313
 3992  O   1.80749   1.56160   1.52482   1.89237
 3993  H   0.62295
 3994  H   0.61066
 3995  O   1.81163   1.93766   1.55826   1.43893
 3996  H   0.61273
 3997  H   0.64434
 3998  O   1.80748   1.64007   1.57554   1.71391
 3999  H   0.63239
 4000  H   0.62988
 4001  O   1.79902   1.85235   1.66807   1.45553
 4002  H   0.61824
 4003  H   0.60015
 4004  O   1.81647   1.55897   1.95633   1.43098
 4005  H   0.61972
 4006  H   0.61334
 4007  O   1.80701   1.53066   1.93191   1.51040
 4008  H   0.62600
 4009  H   0.63053
 4010  O   1.80619   1.63484   1.66157   1.69175
 4011  H   0.60772
 4012  H   0.62175
 4013  O   1.81210   1.77152   1.43832   1.76546
 4014  H   0.62628
 4015  H   0.61124
 4016  O   1.81517   1.50313   1.53924   1.92433
 4017  H   0.61449
 4018  H   0.61792
 4019  O   1.81556   1.72054   1.55680   1.65518
 4020  H   0.62080
 4021  H   0.63837
 4022  O   1.79513   1.67360   1.43278   1.89237
 4023  H   0.59074
 4024  H   0.60339
 4025  O   1.82389   1.58147   1.62541   1.77310
 4026  H   0.60713
 4027  H   0.60428
 4028  O   1.82223   1.51713   1.78091   1.65361
 4029  H   0.62003
 4030  H   0.62309
 4031  O   1.78385   1.56832   1.54155   1.90233
 4032  H   0.61293
 4033  H   0.59753
 4034  O   1.81877   1.61488   1.79042   1.55974
 4035  H   0.62877
 4036  H   0.62456
 4037  O   1.81286   1.77232   1.60189   1.57220
 4038  H   0.62585
 4039  H   0.61675
 4040  O   1.81846   1.49478   1.56585   1.86757
 4041  H   0.63005
 4042  H   0.61518
 4043  O   1.81645   1.65604   1.60711   1.68160
 4044  H   0.63031
 4045  H   0.60868
 4046  O   1.81293   1.46654   1.55063   1.95065
 4047  H   0.63296
 4048  H   0.61634
 4049  O   1.81313   1.80286   1.60078   1.53478
 4050  H   0.61258
 4051  H   0.61844
 4052  O   1.81028   1.50106   1.81365   1.64511
 4053  H   0.60435
 4054  H   0.59322
 4055  O   1.81705   1.63285   1.58136   1.77748
 4056  H   0.59169
 4057  H   0.60703
 4058  O   1.80994   1.89590   1.44058   1.55809
 4059  H   0.61169
 4060  H   0.60100
 4061  O   1.80355   1.94063   1.58265   1.47375
 4062  H   0.59951
 4063  H   0.59920
 4064  O   1.80661   1.55135   1.90610   1.50561
 4065  H   0.60053
 4066  H   0.62100
 4067  O   1.81062   1.68038   1.71420   1.56917
 4068  H   0.62000
 4069  H   0.62216
 4070  O   1.80057   1.89007   1.54763   1.54421
 4071  H   0.59980
 4072  H   0.60100
 4073  O   1.80758   1.49347   1.96365   1.49283
 4074  H   0.62734
 4075  H   0.61400
 4076  O   1.82841   1.59087   1.71947   1.69192
 4077  H   0.59163
 4078  H   0.61665
 4079  O   1.81533   1.42483   1.67203   1.87721
 4080  H   0.62019
 4081  H   0.63286
 4082  O   1.80514   1.62672   1.74589   1.60788
 4083  H   0.59723
 4084  H   0.60525
 4085  O   1.80720   1.73859   1.68055   1.53437
 4086  H   0.60870
 4087  H   0.60867
 4088  O   1.81078   1.86100   1.57169   1.56503
 4089  H   0.60307
 4090  H   0.58799
 4091  O   1.81373   1.63985   1.67464   1.67134
 4092  H   0.62362
 4093  H   0.62097
 4094  O   1.81530   1.76898   1.59389   1.57561
 4095  H   0.60716
 4096  H   0.61756
 4097  O   1.80781   1.43226   1.52746   1.98499
 4098  H   0.62054
 4099  H   0.61187
 4100  O   1.80997   1.99665   1.39643   1.55603
 4101  H   0.64438
 4102  H   0.62847
 4103  O   1.81617   1.45448   1.53709   1.99431
 4104  H   0.62906
 4105  H   0.61861
 4106  O   1.81783   1.59589   1.89166   1.48377
 4107  H   0.62638
 4108  H   0.58173
 4109  O   1.80434   1.62969   1.53015   1.83697
 4110  H   0.61161
 4111  H   0.61087
 4112  O   1.80464   1.57686   1.82214   1.57726
 4113  H   0.59756
 4114  H   0.59517
 4115  O   1.81692   1.91340   1.55556   1.50350
 4116  H   0.61935
 4117  H   0.60760
 4118  O   1.81195   1.50117   1.85703   1.58715
 4119  H   0.63265
 4120  H   0.64103
 4121  O   1.80885   1.50860   1.59476   1.88500
 4122  H   0.62588
 4123  H   0.59510
 4124  O   1.81993   1.57504   1.53180   1.83949
 4125  H   0.61245
 4126  H   0.62196
 4127  O   1.82087   1.44647   1.93811   1.54152
 4128  H   0.64416
 4129  H   0.60900
 4130  O   1.79860   1.93295   1.44618   1.60136
 4131  H   0.61894
 4132  H   0.61817
 4133  O   1.81265   1.84141   1.50419   1.64117
 4134  H   0.61432
 4135  H   0.61613
 4136  O   1.80165   1.96368   1.48478   1.52501
 4137  H   0.60248
 4138  H   0.63194
 4139  O   1.81579   1.65516   1.48812   1.78820
 4140  H   0.62642
 4141  H   0.62630
 4142  O   1.81862   1.79014   1.58476   1.56599
 4143  H   0.60781
 4144  H   0.62198
 4145  O   1.81301   1.55946   1.69871   1.73226
 4146  H   0.61216
 4147  H   0.61650
 4148  O   1.81296   1.54085   1.96924   1.42251
 4149  H   0.64237
 4150  H   0.63286
 4151  O   1.82154   1.95208   1.47464   1.52329
 4152  H   0.63519
 4153  H   0.60551
 4154  O   1.80530   1.53477   1.90963   1.54412
 4155  H   0.61557
 4156  H   0.60761
 4157  O   1.80834   1.42797   1.55998   1.94923
 4158  H   0.61469
 4159  H   0.62605
 4160  O   1.81310   1.58625   1.75023   1.60416
 4161  H   0.61023
 4162  H   0.60845
 4163  O   1.81344   1.52046   1.59000   1.83063
 4164  H   0.62136
 4165  H   0.64470
 4166  O   1.81040   1.59886   1.70329   1.64153
 4167  H   0.61955
 4168  H   0.62595
 4169  O   1.81502   1.89726   1.58806   1.45374
 4170  H   0.61602
 4171  H   0.62411
 4172  O   1.81158   1.83593   1.62672   1.53636
 4173  H   0.61791
 4174  H   0.61944
 4175  O   1.80897   1.75726   1.47853   1.69230
 4176  H   0.62510
 4177  H   0.61992
 4178  O   1.80412   1.43784   1.61461   1.95469
 4179  H   0.61294
 4180  H   0.60583
 4181  O   1.80501   1.53347   1.52960   1.91189
 4182  H   0.60448
 4183  H   0.60431
 4184  O   1.81553   1.51804   1.69752   1.73986
 4185  H   0.61949
 4186  H   0.64698
 4187  O   1.81764   1.88270   1.55366   1.51419
 4188  H   0.61208
 4189  H   0.61307
 4190  O   1.80893   1.87313   1.53592   1.55288
 4191  H   0.62780
 4192  H   0.63161
 4193  O   1.81330   1.55961   1.64947   1.73117
 4194  H   0.61672
 4195  H   0.62694
 4196  O   1.80804   1.43101   1.71714   1.83885
 4197  H   0.61323
 4198  H   0.61471
 4199  O   1.80721   1.51255   1.86247   1.56377
 4200  H   0.61606
 4201  H   0.62377
 4202  O   1.81712   1.56119   1.78621   1.59726
 4203  H   0.61146
 4204  H   0.62643
 4205  O   1.82176   1.54516   1.96722   1.47917
 4206  H   0.62660
 4207  H   0.61342
 4208  O   1.80898   1.70350   1.72012   1.54322
 4209  H   0.61450
 4210  H   0.62873
 4211  O   1.81212   1.68405   1.73477   1.55111
 4212  H   0.59444
 4213  H   0.60115
 4214  O   1.80922   1.57287   1.66271   1.72214
 4215  H   0.63238
 4216  H   0.60943
 4217  O   1.80938   1.43866   1.96611   1.56432
 4218  H   0.60848
 4219  H   0.62537
 4220  O   1.81573   1.53750   1.77933   1.66429
 4221  H   0.62141
 4222  H   0.62673
 4223  O   1.81892   1.44616   1.65759   1.86204
 4224  H   0.60095
 4225  H   0.61612
 4226  O   1.81860   1.51312   1.56830   1.89207
 4227  H   0.61929
 4228  H   0.59604
 4229  O   1.79992   1.42318   1.90162   1.65038
 4230  H   0.63200
 4231  H   0.60686
 4232  O   1.81114   1.58756   1.96126   1.43598
 4233  H   0.62226
 4234  H   0.60930
 4235  O   1.81599   1.98237   1.43832   1.56108
 4236  H   0.62646
 4237  H   0.62320
 4238  O   1.80100   1.73527   1.58955   1.65754
 4239  H   0.60735
 4240  H   0.61006
 4241  O   1.80736   1.46714   1.83914   1.70096
 4242  H   0.61302
 4243  H   0.59470
 4244  O   1.81540   1.43449   1.96683   1.53016
 4245  H   0.62882
 4246  H   0.61466
 4247  O   1.80809   1.78299   1.50494   1.68974
 4248  H   0.61398
 4249  H   0.61721
 4250  O   1.80869   1.77076   1.55206   1.60477
 4251  H   0.63173
 4252  H   0.64680
 4253  O   1.81306   1.43435   1.93881   1.58610
 4254  H   0.61276
 4255  H   0.61848
 4256  O   1.81882   1.64546   1.55784   1.73661
 4257  H   0.62116
 4258  H   0.61312
 4259  O   1.81939   1.74490   1.74889   1.46743
 4260  H   0.61067
 4261  H   0.60299
 4262  O   1.82789   1.71181   1.53328   1.71243
 4263  H   0.61585
 4264  H   0.61914
 4265  O   1.79136   1.85772   1.43312   1.72638
 4266  H   0.60481
 4267  H   0.61271
 4268  O   1.81632   1.89397   1.57401   1.45517
 4269  H   0.63138
 4270  H   0.62488
 4271  O   1.80960   1.93046   1.45426   1.59365
 4272  H   0.61603
 4273  H   0.62286
 4274  O   1.82744   1.79049   1.57687   1.61872
 4275  H   0.59894
 4276  H   0.61317
 4277  O   1.80991   1.73233   1.63661   1.55966
 4278  H   0.61948
 4279  H   0.63094
 4280  O   1.80618   1.77730   1.67405   1.53405
 4281  H   0.61788
 4282  H   0.62242
 4283  O   1.80028   1.61632   1.85849   1.49293
 4284  H   0.61179
 4285  H   0.62726
 4286  O   1.80911   1.58046   1.46207   1.93386
 4287  H   0.61930
 4288  H   0.62599
 4289  O   1.81185   1.85973   1.56243   1.52644
 4290  H   0.62418
 4291  H   0.63383
 4292  O   1.82557   1.83450   1.62733   1.48655
 4293  H   0.63363
 4294  H   0.62360
 4295  O   1.81631   1.62438   1.83026   1.49454
 4296  H   0.64691
 4297  H   0.62133
 4298  O   1.82382   1.76967   1.62438   1.56849
 4299  H   0.60057
 4300  H   0.61192
 4301  O   1.80824   1.47301   1.86616   1.63967
 4302  H   0.61626
 4303  H   0.61183
 4304  O   1.82453   1.69989   1.53977   1.75602
 4305  H   0.62058
 4306  H   0.60123
 4307  O   1.79542   1.76580   1.51195   1.71633
 4308  H   0.61866
 4309  H   0.60638
 4310  O   1.81252   1.55446   1.78588   1.61960
 4311  H   0.61719
 4312  H   0.59633
 4313  O   1.82101   1.58837   1.83475   1.50109
 4314  H   0.64696
 4315  H   0.62236
 4316  O   1.82141   1.44497   1.95963   1.54298
 4317  H   0.64268
 4318  H   0.59958
 4319  O   1.81332   1.56611   1.60161   1.76314
 4320  H   0.58002
 4321  H   0.61239
 4322  O   1.80118   1.73389   1.78245   1.45307
 4323  H   0.61571
 4324  H   0.61367
 4325  O   1.81035   1.68994   1.48964   1.81275
 4326  H   0.60009
 4327  H   0.62375
 4328  O   1.81501   1.51848   1.70951   1.71351
 4329  H   0.61372
 4330  H   0.62390
 4331  O   1.81052   1.89800   1.55407   1.53181
 4332  H   0.62852
 4333  H   0.59964
 4334  O   1.82092   1.57556   1.57921   1.76796
 4335  H   0.60282
 4336  H   0.61679
 4337  O   1.81009   1.57764   1.84674   1.54145
 4338  H   0.60519
 4339  H   0.60783
 4340  O   1.81018   1.69990   1.63903   1.58527
 4341  H   0.59637
 4342  H   0.63011
 4343  O   1.79950   1.45784   1.93032   1.58608
 4344  H   0.61108
 4345  H   0.61253
 4346  O   1.81667   1.69364   1.62928   1.65288
 4347  H   0.62466
 4348  H   0.60266
 4349  O   1.81467   1.54311   1.77308   1.64271
 4350  H   0.65002
 4351  H   0.60303
 4352  O   1.81957   1.64201   1.69587   1.61168
 4353  H   0.62299
 4354  H   0.62104
 4355  O   1.80377   1.78123   1.59564   1.58042
 4356  H   0.62042
 4357  H   0.61542
 4358  O   1.80275   1.65979   1.83584   1.47305
 4359  H   0.60604
 4360  H   0.62217
 4361  O   1.80323   1.53084   1.65052   1.78568
 4362  H   0.60070
 4363  H   0.59513
 4364  O   1.81090   1.79869   1.57581   1.59909
 4365  H   0.62144
 4366  H   0.59875
 4367  O   1.79745   1.66030   1.71117   1.64272
 4368  H   0.60312
 4369  H   0.61075
 4370  O   1.80808   1.50982   1.68828   1.78428
 4371  H   0.62205
 4372  H   0.61361
 4373  O   1.81894   1.43654   1.58089   1.94037
 4374  H   0.62798
 4375  H   0.62524
 4376  O   1.80398   1.61097   1.89426   1.46735
 4377  H   0.60486
 4378  H   0.60344
 4379  O   1.81054   1.89126   1.56574   1.51282
 4380  H   0.60552
 4381  H   0.61777
 4382  O   1.80992   1.79648   1.54303   1.61548
 4383  H   0.60111
 4384  H   0.60487
 4385  O   1.80991   1.89505   1.62042   1.44562
 4386  H   0.61651
 4387  H   0.60487
 4388  O   1.82249   1.71111   1.63920   1.63905
 4389  H   0.59325
 4390  H   0.62864
 4391  O   1.81866   1.54412   1.59530   1.77396
 4392  H   0.61883
 4393  H   0.60840
 4394  O   1.81707   1.47281   1.47467   1.98442
 4395  H   0.64923
 4396  H   0.62733
 4397  O   1.81347   1.91291   1.43632   1.60842
 4398  H   0.61284
 4399  H   0.61380
 4400  O   1.80522   1.62215   1.91524   1.46012
 4401  H   0.60454
 4402  H   0.61755
 4403  O   1.80734   1.97545   1.46663   1.54965
 4404  H   0.59746
 4405  H   0.61439
 4406  O   1.81607   1.50538   1.49651   1.95023
 4407  H   0.62927
 4408  H   0.60628
 4409  O   1.80979   1.47121   1.64118   1.87271
 4410  H   0.62692
 4411  H   0.61942
 4412  O   1.80154   1.92688   1.63432   1.42233
 4413  H   0.60334
 4414  H   0.62705
 4415  O   1.81851   1.92549   1.58672   1.45550
 4416  H   0.60812
 4417  H   0.62120
 4418  O   1.81736   1.43575   1.94976   1.56822
 4419  H   0.62585
 4420  H   0.61834
 4421  O   1.81753   1.67943   1.61590   1.66262
 4422  H   0.61390
 4423  H   0.61782
 4424  O   1.81087   1.68054   1.58929   1.67916
 4425  H   0.59568
 4426  H   0.59345
 4427  O   1.80536   1.61628   1.58221   1.76218
 4428  H   0.61859
 4429  H   0.61021
 4430  O   1.81713   1.56136   1.88186   1.48975
 4431  H   0.61862
 4432  H   0.66063
 4433  O   1.80870   1.63026   1.50764   1.79846
 4434  H   0.62670
 4435  H   0.62496
 4436  O   1.81483   1.54068   1.95354   1.45151
 4437  H   0.61352
 4438  H   0.61512
 4439  O   1.81105   1.84954   1.45777   1.64768
 4440  H   0.60928
 4441  H   0.63086
 4442  O   1.78869   1.52550   1.61639   1.86552
 4443  H   0.60950
 4444  H   0.60614
 4445  O   1.80468   1.75626   1.63687   1.58073
 4446  H   0.61649
 4447  H   0.63031
 4448  O   1.80847   1.58827   1.44050   1.94770
 4449  H   0.60669
 4450  H   0.59862
 4451  O   1.80087   1.50058   1.90040   1.57411
 4452  H   0.60447
 4453  H   0.59106
 4454  O   1.81699   1.70590   1.41934   1.79080
 4455  H   0.61846
 4456  H   0.65266
 4457  O   1.80203   1.55205   1.79026   1.61704
 4458  H   0.61465
 4459  H   0.63286
 4460  O   1.80946   1.71891   1.50373   1.70510
 4461  H   0.61021
 4462  H   0.63867
 4463  O   1.81203   1.71633   1.53060   1.71528
 4464  H   0.63786
 4465  H   0.60627
 4466  O   1.81158   1.55974   1.83315   1.53914
 4467  H   0.62373
 4468  H   0.62433
 4469  O   1.79087   1.62921   1.65555   1.72438
 4470  H   0.60360
 4471  H   0.59538
 4472  O   1.81404   1.57548   1.87717   1.50404
 4473  H   0.63091
 4474  H   0.62952
 4475  O   1.82541   1.54133   1.64313   1.78767
 4476  H   0.59597
 4477  H   0.62697
 4478  O   1.81235   1.75464   1.51692   1.73542
 4479  H   0.60845
 4480  H   0.62025
 4481  O   1.81296   1.67045   1.46874   1.82040
 4482  H   0.60503
 4483  H   0.63151
 4484  O   1.81272   1.46464   1.68710   1.80031
 4485  H   0.60434
 4486  H   0.60253
 4487  O   1.81669   1.83284   1.51976   1.62361
 4488  H   0.62744
 4489  H   0.62804
 4490  O   1.81862   1.84388   1.46861   1.62107
 4491  H   0.62800
 4492  H   0.63269
 4493  O   1.81367   1.58671   1.55264   1.85591
 4494  H   0.60509
 4495  H   0.60118
 4496  O   1.80691   1.50793   1.90959   1.57780
 4497  H   0.61012
 4498  H   0.61236
 4499  O   1.81378   1.53438   1.95185   1.46651
 4500  H   0.62259
 4501  H   0.62101
 4502  O   1.79610   1.70199   1.55478   1.71580
 4503  H   0.62397
 4504  H   0.62585
 4505  O   1.81670   1.55692   1.73239   1.66415
 4506  H   0.61219
 4507  H   0.62533
 4508  O   1.81191   1.62126   1.71357   1.58715
 4509  H   0.61153
 4510  H   0.58725
 4511  O   1.81459   1.68634   1.81089   1.49263
 4512  H   0.60076
 4513  H   0.61448
 4514  O   1.81165   1.43620   1.94088   1.60306
 4515  H   0.61659
 4516  H   0.60848
 4517  O   1.80843   1.72145   1.50692   1.71592
 4518  H   0.62390
 4519  H   0.60045
 4520  O   1.82076   1.55831   1.84589   1.55507
 4521  H   0.61717
 4522  H   0.62295
 4523  O   1.82195   1.53785   1.48193   1.95403
 4524  H   0.61923
 4525  H   0.61245
 4526  O   1.81932   1.79797   1.65526   1.51337
 4527  H   0.59959
 4528  H   0.62747
 4529  O   1.79829   1.94580   1.48114   1.57746
 4530  H   0.60190
 4531  H   0.61659
 4532  O   1.80403   1.51265   1.60495   1.84856
 4533  H   0.61439
 4534  H   0.61907
 4535  O   1.80675   1.54734   1.92782   1.51641
 4536  H   0.61812
 4537  H   0.62053
 4538  O   1.81172   1.87646   1.57974   1.49210
 4539  H   0.63965
 4540  H   0.62758
 4541  O   1.81079   1.86626   1.55059   1.55107
 4542  H   0.61872
 4543  H   0.61223
 4544  O   1.81268   1.84413   1.59663   1.50936
 4545  H   0.61934
 4546  H   0.61304
 4547  O   1.81507   1.47679   1.64254   1.84765
 4548  H   0.61103
 4549  H   0.61405
 4550  O   1.82517   1.55678   1.53659   1.86010
 4551  H   0.61189
 4552  H   0.61669
 4553  O   1.82031   1.63655   1.59937   1.58235
 4554  H   0.60937
 4555  H   0.62010
 4556  O   1.81704   1.89032   1.45915   1.60603
 4557  H   0.63390
 4558  H   0.62244
 4559  O   1.80696   1.52616   1.71042   1.70254
 4560  H   0.63821
 4561  H   0.60527
 4562  O   1.79322   1.77051   1.59055   1.63956
 4563  H   0.61406
 4564  H   0.61241
 4565  O   1.80632   1.77676   1.57108   1.61422
 4566  H   0.63965
 4567  H   0.61851
 4568  O   1.80632   1.46387   1.88785   1.60118
 4569  H   0.62879
 4570  H   0.62870
 4571  O   1.81360   1.88730   1.63887   1.44040
 4572  H   0.61894
 4573  H   0.61836
 4574  O   1.81272   1.65002   1.56253   1.72580
 4575  H   0.61068
 4576  H   0.64511
 4577  O   1.80592   1.58449   1.56284   1.79163
 4578  H   0.61748
 4579  H   0.63791
 4580  O   1.81945   1.76487   1.71047   1.49691
 4581  H   0.61778
 4582  H   0.62827
 4583  O   1.80541   1.76434   1.57601   1.61750
 4584  H   0.61346
 4585  H   0.60787
 4586  O   1.88031   1.65776   1.56179   1.67151
 4587  H   0.70885
 4588  H   0.61729



 TOTAL JOB TIME:        180503.79 SECONDS

 == MOPAC DONE ==
