 *******************************************************************************
 ** Site#: 23746        For non-commercial use only     Version 16.175W 64BITS**
 *******************************************************************************
 ** Cite this program as: MOPAC2016, Version: 16.175W, James J. P. Stewart,   **
 ** Stewart Computational Chemistry, web: HTTP://OpenMOPAC.net. Days left: 334**
 *******************************************************************************
 **                                                                           **
 **                                MOPAC2016                                  **
 **                                                                           **
 *******************************************************************************

                              PM7 CALCULATION RESULTS


 *******************************************************************************
 *  CALCULATION DONE:                                Mon Jul 25 11:40:59 2016  *
 *  START_RES- STARTING RESIDUE NUMBERS DEFINED
 *  Keyword:   START_RES=(1A) 
 *  CHAIN      - PDB CHAIN LETTERS EXPLICITLY DEFINED
 *  Keyword:   CHAINS=(A) 
 *  FORCE      - FORCE CALCULATION SPECIFIED
 *  T=         - A TIME OF 172800.0 SECONDS REQUESTED
 *  DUMP=N     - RESTART FILE WRITTEN EVERY  7200.000 SECONDS
 *  ISOTOPE    - FORCE MATRIX WRITTEN TO DISK (CHAN. 9 )
 *******************************************************************************
START_RES=(1A)  CHAINS=(A) isotope FORCE


  ATOM               CHEMICAL                 BOND LENGTH      BOND ANGLE     TWIST ANGLE 
 NUMBER               SYMBOL                  (ANGSTROMS)      (DEGREES)       (DEGREES) 
   (I)                                           NA:I           NB:NA:I       NC:NB:NA:I       NA    NB    NC 
     1       C(HETATM    1  C   HET A   1)    0.00000000       0.0000000       0.0000000   
     2       H(HETATM   28  H   HET A   1)    1.41737034  *    0.0000000       0.0000000        1     0     0
     3       N(HETATM    2  N   HET A   1)    1.24754032  *  161.4848651  *    0.0000000        2     1     0
     4       C(HETATM    3  C   HET A   1)    1.41275323  *  112.0273476  * -102.8486760  *     3     2     1
     5       C(HETATM    4  C   HET A   1)    2.41631859  *  149.6139497  *  -12.9122396  *     4     3     2
     6       C(HETATM    5  C   HET A   1)    1.40448785  *  110.1095024  *   32.6143155  *     3     2     1
     7       C(HETATM    6  C   HET A   1)    1.39214714  *  123.5526022  * -111.3420522  *     6     3     2
     8       C(HETATM    7  C   HET A   1)    1.40689287  *  120.5027185  *  179.4826518  *     7     6     3
     9       C(HETATM    8  C   HET A   1)    1.37644657  *  120.5636690  *   -1.3629022  *     8     7     6
    10       C(HETATM    9  C   HET A   1)    1.42163008  *  120.4101379  *    0.8614827  *     9     8     7
    11       C(HETATM   10  C   HET A   1)    1.42038581  *  120.7841270  * -179.8148431  *    10     9     8
    12       C(HETATM   11  C   HET A   1)    1.37477057  *  120.5112270  * -179.3387441  *    11    10     9
    13       C(HETATM   12  C   HET A   1)    1.41331510  *  120.2173536  *    0.5557822  *    12    11    10
    14       C(HETATM   13  C   HET A   1)    1.37570790  *  120.2973125  *   -0.6360270  *    13    12    11
    15       C(HETATM   14  C   HET A   1)    1.41498999  *  119.9669683  *    0.3023494  *    10     9     8
    16       C(HETATM   15  C   HET A   1)    1.40625818  *  119.8806656  * -179.7580991  *     4     3     2
    17       C(HETATM   16  C   HET A   1)    1.38921019  *  119.6704584  *  173.4216705  *    16     4     3
    18       H(HETATM   17  H   HET A   1)    1.08908528  *  149.9304458  *   11.0389235  *     5     4     3
    19       C(HETATM   18  C   HET A   1)    1.39321661  *   90.1843007  * -168.8200057  *     5     4     3
    20       H(HETATM   19  H   HET A   1)    1.08940283  *  120.3941764  *    0.0232876  *     7     6     3
    21       H(HETATM   20  H   HET A   1)    1.08969731  *  118.8633993  *  179.2287300  *     8     7     6
    22       H(HETATM   21  H   HET A   1)    1.08760797  *  120.7330551  * -179.2531322  *     9     8     7
    23       H(HETATM   22  H   HET A   1)    1.08803774  *  118.7503350  *    0.5161017  *    11    10     9
    24       H(HETATM   23  H   HET A   1)    1.08825721  *  120.6724201  * -179.8963264  *    12    11    10
    25       H(HETATM   24  H   HET A   1)    1.08805401  *  119.1154097  *  178.9586794  *    13    12    11
    26       H(HETATM   25  H   HET A   1)    1.09201110  *  120.4214023  *  178.5325119  *    14    13    12
    27       H(HETATM   26  H   HET A   1)    1.08873002  *  119.8680446  *   -5.4280616  *    16     4     3
    28       H(HETATM   27  H   HET A   1)    1.07093165  *  100.6378667  *  -70.4580830  *     1     2     3
    29       H(HETATM   29  H   HET A   1)    2.15161666  *   56.2598303  *   11.3039805  *     5     4     3
    30       C(HETATM   30  C   HET A   1)    1.08700180  *   34.0596698  *    0.0323790  *    29     5     4
    31       H(HETATM   31  H   HET A   1)    1.08653905  *  120.1064129  * -179.8990060  *    19     5     4
    32       H(HETATM   32  H   HET A   1)    1.08936651  *  119.6656240  * -179.7908091  *    17    16     4
    33       H(HETATM   33  H   HET A   1)    1.06866079  *  103.7453861  *   49.4766068  *     1     2     3
    34       H(HETATM   34  H   HET A   1)    1.06918600  *  100.2848423  *  170.2602690  *     1     2     3
 

 General Reference for PM7:
 "Optimization of Parameters for Semiempirical Methods VI: More Modifications to the 
 NDDO Approximations and Re-optimization of Parameters", J. J. P. Stewart, J. Mol. Mod., 1:32, 19 (2013)
 http://www.springerlink.com/openurl.asp?genre=article&id=doi:10.1007/s00894-012-1667-x

           Empirical Formula: C17 H16 N  =    34 atoms



      MOLECULAR POINT GROUP   :   C1  


          UHF CALCULATION, NO. OF ALPHA ELECTRONS =   45
                           NO. OF BETA  ELECTRONS =   44


          HEAT OF FORMATION =     113.191618 KCALS/MOLE


          CARTESIAN COORDINATE DERIVATIVES

   NUMBER  ATOM         X            Y            Z

     1       C      0.253942     0.200279     0.267698
     2       H     -0.656480    -0.367691    -0.651084
     3       N      0.102194     0.332480     0.185469
     4       C      0.097188    -0.217717     0.217534
     5       C     -0.168417     0.160353    -0.132114
     6       C      0.223225    -0.003451     0.050415
     7       C     -0.084229     0.043165    -0.156926
     8       C     -0.032400     0.088143     0.122769
     9       C     -0.311221     0.012862    -0.024582
    10       C      0.249931    -0.161305     0.035553
    11       C     -0.098204     0.023862     0.051771
    12       C     -0.128826    -0.075511    -0.089754
    13       C     -0.038180    -0.019547    -0.046255
    14       C     -0.079851     0.085217     0.001502
    15       C     -0.026064     0.055073     0.011208
    16       C      0.170231     0.020391     0.104143
    17       C      0.018179    -0.124507    -0.070291
    18       H      0.036504    -0.074551     0.111805
    19       C      0.092132     0.155369    -0.006250
    20       H      0.056574    -0.040532     0.032014
    21       H      0.042526    -0.072143    -0.027524
    22       H      0.076222    -0.002515    -0.025820
    23       H      0.083796    -0.007532    -0.030992
    24       H      0.079084     0.025297    -0.024081
    25       H      0.061806     0.029003     0.024140
    26       H      0.047865    -0.002656     0.067295
    27       H     -0.051115     0.049875    -0.022643
    28       H      0.017898    -0.061100    -0.069621
    29       H      0.049934     0.011013     0.031359
    30       C     -0.085453    -0.125934    -0.039188
    31       H     -0.036996    -0.052710     0.015165
    32       H     -0.051735     0.068986     0.019848
    33       H      0.044018    -0.046282     0.075555
    34       H      0.045917     0.094318    -0.008115
 


          GRADIENT NORM =   1.44776


          TIME FOR SCF CALCULATION =    0.17

          TIME FOR DERIVATIVES     =    0.05

          MOLECULAR WEIGHT =  234.32



          ROTATIONAL CONSTANTS IN CM(-1)

          A =    0.02926399   B =    0.00831772   C =    0.00736414



           PRINCIPAL MOMENTS OF INERTIA IN UNITS OF 10**(-40)*GRAM-CM**2

          A =      956.5604   B =     3365.4402   C =     3801.2293


          ORIENTATION OF MOLECULE IN FORCE CALCULATION

    NO.       ATOM         X         Y         Z

     1          C      -2.7852   -1.2094   -0.5399
     2          H      -1.3678   -1.2094   -0.5399
     3          N      -0.1849   -0.8132   -0.5399
     4          C       0.4100   -0.9211   -1.8168
     5          C       0.3567   -1.7778   -4.0755
     6          C      -0.0797    0.3935    0.1709
     7          C       0.2077    1.6169   -0.4281
     8          C       0.2873    2.7895    0.3452
     9          C       0.0550    2.7506    1.7013
    10          C      -0.2514    1.5201    2.3440
    11          C      -0.4964    1.4715    3.7422
    12          C      -0.7788    0.2764    4.3603
    13          C      -0.8168   -0.9208    3.6101
    14          C      -0.5844   -0.8979    2.2543
    15          C      -0.3125    0.3247    1.5894
    16          C       1.7462   -0.5241   -2.0030
    17          C       2.3696   -0.7581   -3.2222
    18          H      -0.1816   -2.2694   -4.8846
    19          C       1.6789   -1.3803   -4.2623
    20          H       0.3654    1.6801   -1.5042
    21          H       0.5265    3.7305   -0.1494
    22          H       0.1039    3.6575    2.2998
    23          H      -0.4538    2.3966    4.3135
    24          H      -0.9686    0.2364    5.4311
    25          H      -1.0253   -1.8589    4.1203
    26          H      -0.5896   -1.8246    1.6767
    27          H       2.2906   -0.0530   -1.1863
    28          H      -2.9829   -0.8573    0.4519
    29          H      -1.3163   -1.8632   -2.7252
    30          C      -0.2838   -1.5514   -2.8613
    31          H       2.1720   -1.5574   -5.2142
    32          H       3.4057   -0.4535   -3.3652
    33          H      -3.0391   -0.5349   -1.3290
    34          H      -2.9761   -2.2463   -0.7179


    FIRST DERIVATIVES WILL BE USED IN THE CALCULATION OF SECOND DERIVATIVES

          ESTIMATED TIME TO COMPLETE CALCULATION =       44.62 SECONDS

    FOR POINT-GROUP C1   THERE ARE   1 UNIQUE SYMMETRY FUNCTIONS.

 STEP:   1 TIME =     0.11 SECS, INTEGRAL =      0.11 TIME LEFT: 172799.67
 STEP:   2 TIME =     0.06 SECS, INTEGRAL =      0.17 TIME LEFT: 172799.61
 STEP:   3 TIME =     0.05 SECS, INTEGRAL =      0.22 TIME LEFT: 172799.56
 STEP:   4 TIME =     0.08 SECS, INTEGRAL =      0.30 TIME LEFT: 172799.48
 STEP:   5 TIME =     0.06 SECS, INTEGRAL =      0.36 TIME LEFT: 172799.42
 STEP:   6 TIME =     0.04 SECS, INTEGRAL =      0.40 TIME LEFT: 172799.38
 STEP:   7 TIME =     0.08 SECS, INTEGRAL =      0.48 TIME LEFT: 172799.30
 STEP:   8 TIME =     0.07 SECS, INTEGRAL =      0.55 TIME LEFT: 172799.23
 STEP:   9 TIME =     0.06 SECS, INTEGRAL =      0.61 TIME LEFT: 172799.18
 STEP:  10 TIME =     0.05 SECS, INTEGRAL =      0.65 TIME LEFT: 172799.13
 STEP:  11 TIME =     0.06 SECS, INTEGRAL =      0.71 TIME LEFT: 172799.07
 STEP:  12 TIME =     0.06 SECS, INTEGRAL =      0.78 TIME LEFT: 172799.00
 STEP:  13 TIME =     0.05 SECS, INTEGRAL =      0.82 TIME LEFT: 172798.96
 STEP:  14 TIME =     0.05 SECS, INTEGRAL =      0.87 TIME LEFT: 172798.91
 STEP:  15 TIME =     0.05 SECS, INTEGRAL =      0.92 TIME LEFT: 172798.86
 STEP:  16 TIME =     0.06 SECS, INTEGRAL =      0.98 TIME LEFT: 172798.80
 STEP:  17 TIME =     0.08 SECS, INTEGRAL =      1.06 TIME LEFT: 172798.72
 STEP:  18 TIME =     0.05 SECS, INTEGRAL =      1.11 TIME LEFT: 172798.68
 STEP:  19 TIME =     0.08 SECS, INTEGRAL =      1.18 TIME LEFT: 172798.60
 STEP:  20 TIME =     0.08 SECS, INTEGRAL =      1.26 TIME LEFT: 172798.52
 STEP:  21 TIME =     0.08 SECS, INTEGRAL =      1.34 TIME LEFT: 172798.44
 STEP:  22 TIME =     0.06 SECS, INTEGRAL =      1.40 TIME LEFT: 172798.38
 STEP:  23 TIME =     0.05 SECS, INTEGRAL =      1.45 TIME LEFT: 172798.33
 STEP:  24 TIME =     0.06 SECS, INTEGRAL =      1.51 TIME LEFT: 172798.27
 STEP:  25 TIME =     0.06 SECS, INTEGRAL =      1.57 TIME LEFT: 172798.21
 STEP:  26 TIME =     0.06 SECS, INTEGRAL =      1.64 TIME LEFT: 172798.14
 STEP:  27 TIME =     0.06 SECS, INTEGRAL =      1.70 TIME LEFT: 172798.08
 STEP:  28 TIME =     0.05 SECS, INTEGRAL =      1.75 TIME LEFT: 172798.04
 STEP:  29 TIME =     0.08 SECS, INTEGRAL =      1.82 TIME LEFT: 172797.96
 STEP:  30 TIME =     0.05 SECS, INTEGRAL =      1.87 TIME LEFT: 172797.91
 STEP:  31 TIME =     0.08 SECS, INTEGRAL =      1.95 TIME LEFT: 172797.83
 STEP:  32 TIME =     0.06 SECS, INTEGRAL =      2.01 TIME LEFT: 172797.77
 STEP:  33 TIME =     0.05 SECS, INTEGRAL =      2.06 TIME LEFT: 172797.72
 STEP:  34 TIME =     0.08 SECS, INTEGRAL =      2.14 TIME LEFT: 172797.64
 STEP:  35 TIME =     0.08 SECS, INTEGRAL =      2.21 TIME LEFT: 172797.57
 STEP:  36 TIME =     0.05 SECS, INTEGRAL =      2.26 TIME LEFT: 172797.52
 STEP:  37 TIME =     0.06 SECS, INTEGRAL =      2.32 TIME LEFT: 172797.46
 STEP:  38 TIME =     0.05 SECS, INTEGRAL =      2.37 TIME LEFT: 172797.41
 STEP:  39 TIME =     0.06 SECS, INTEGRAL =      2.43 TIME LEFT: 172797.35
 STEP:  40 TIME =     0.06 SECS, INTEGRAL =      2.50 TIME LEFT: 172797.29
 STEP:  41 TIME =     0.05 SECS, INTEGRAL =      2.54 TIME LEFT: 172797.24
 STEP:  42 TIME =     0.08 SECS, INTEGRAL =      2.62 TIME LEFT: 172797.16
 STEP:  43 TIME =     0.05 SECS, INTEGRAL =      2.67 TIME LEFT: 172797.11
 STEP:  44 TIME =     0.06 SECS, INTEGRAL =      2.73 TIME LEFT: 172797.05
 STEP:  45 TIME =     0.06 SECS, INTEGRAL =      2.79 TIME LEFT: 172796.99
 STEP:  46 TIME =     0.06 SECS, INTEGRAL =      2.86 TIME LEFT: 172796.93
 STEP:  47 TIME =     0.06 SECS, INTEGRAL =      2.92 TIME LEFT: 172796.86
 STEP:  48 TIME =     0.04 SECS, INTEGRAL =      2.96 TIME LEFT: 172796.82
 STEP:  49 TIME =     0.05 SECS, INTEGRAL =      3.01 TIME LEFT: 172796.77
 STEP:  50 TIME =     0.05 SECS, INTEGRAL =      3.05 TIME LEFT: 172796.73
 STEP:  51 TIME =     0.08 SECS, INTEGRAL =      3.13 TIME LEFT: 172796.65
 STEP:  52 TIME =     0.05 SECS, INTEGRAL =      3.18 TIME LEFT: 172796.60
 STEP:  53 TIME =     0.06 SECS, INTEGRAL =      3.24 TIME LEFT: 172796.54
 STEP:  54 TIME =     0.06 SECS, INTEGRAL =      3.30 TIME LEFT: 172796.48
 STEP:  55 TIME =     0.06 SECS, INTEGRAL =      3.37 TIME LEFT: 172796.41
 STEP:  56 TIME =     0.05 SECS, INTEGRAL =      3.41 TIME LEFT: 172796.37
 STEP:  57 TIME =     0.05 SECS, INTEGRAL =      3.46 TIME LEFT: 172796.32
 STEP:  58 TIME =     0.05 SECS, INTEGRAL =      3.51 TIME LEFT: 172796.27
 STEP:  59 TIME =     0.05 SECS, INTEGRAL =      3.55 TIME LEFT: 172796.23
 STEP:  60 TIME =     0.05 SECS, INTEGRAL =      3.60 TIME LEFT: 172796.18
 STEP:  61 TIME =     0.05 SECS, INTEGRAL =      3.65 TIME LEFT: 172796.13
 STEP:  62 TIME =     0.05 SECS, INTEGRAL =      3.70 TIME LEFT: 172796.09
 STEP:  63 TIME =     0.05 SECS, INTEGRAL =      3.74 TIME LEFT: 172796.04
 STEP:  64 TIME =     0.05 SECS, INTEGRAL =      3.79 TIME LEFT: 172795.99
 STEP:  65 TIME =     0.05 SECS, INTEGRAL =      3.84 TIME LEFT: 172795.95
 STEP:  66 TIME =     0.03 SECS, INTEGRAL =      3.87 TIME LEFT: 172795.91
 STEP:  67 TIME =     0.05 SECS, INTEGRAL =      3.91 TIME LEFT: 172795.87
 STEP:  68 TIME =     0.05 SECS, INTEGRAL =      3.96 TIME LEFT: 172795.82
 STEP:  69 TIME =     0.05 SECS, INTEGRAL =      4.01 TIME LEFT: 172795.77
 STEP:  70 TIME =     0.05 SECS, INTEGRAL =      4.05 TIME LEFT: 172795.73
 STEP:  71 TIME =     0.05 SECS, INTEGRAL =      4.10 TIME LEFT: 172795.68
 STEP:  72 TIME =     0.05 SECS, INTEGRAL =      4.15 TIME LEFT: 172795.63
 STEP:  73 TIME =     0.06 SECS, INTEGRAL =      4.21 TIME LEFT: 172795.57
 STEP:  74 TIME =     0.06 SECS, INTEGRAL =      4.27 TIME LEFT: 172795.51
 STEP:  75 TIME =     0.06 SECS, INTEGRAL =      4.34 TIME LEFT: 172795.45
 STEP:  76 TIME =     0.05 SECS, INTEGRAL =      4.38 TIME LEFT: 172795.40
 STEP:  77 TIME =     0.03 SECS, INTEGRAL =      4.41 TIME LEFT: 172795.37
 STEP:  78 TIME =     0.05 SECS, INTEGRAL =      4.46 TIME LEFT: 172795.32
 STEP:  79 TIME =     0.05 SECS, INTEGRAL =      4.51 TIME LEFT: 172795.27
 STEP:  80 TIME =     0.05 SECS, INTEGRAL =      4.55 TIME LEFT: 172795.23
 STEP:  81 TIME =     0.05 SECS, INTEGRAL =      4.60 TIME LEFT: 172795.18
 STEP:  82 TIME =     0.05 SECS, INTEGRAL =      4.65 TIME LEFT: 172795.13
 STEP:  83 TIME =     0.05 SECS, INTEGRAL =      4.70 TIME LEFT: 172795.09
 STEP:  84 TIME =     0.05 SECS, INTEGRAL =      4.74 TIME LEFT: 172795.04
 STEP:  85 TIME =     0.06 SECS, INTEGRAL =      4.80 TIME LEFT: 172794.98
 STEP:  86 TIME =     0.05 SECS, INTEGRAL =      4.85 TIME LEFT: 172794.93
 STEP:  87 TIME =     0.06 SECS, INTEGRAL =      4.91 TIME LEFT: 172794.87
 STEP:  88 TIME =     0.05 SECS, INTEGRAL =      4.96 TIME LEFT: 172794.82
 STEP:  89 TIME =     0.05 SECS, INTEGRAL =      5.01 TIME LEFT: 172794.77
 STEP:  90 TIME =     0.06 SECS, INTEGRAL =      5.07 TIME LEFT: 172794.71
 STEP:  91 TIME =     0.05 SECS, INTEGRAL =      5.12 TIME LEFT: 172794.66
 STEP:  92 TIME =     0.03 SECS, INTEGRAL =      5.14 TIME LEFT: 172794.64
 STEP:  93 TIME =     0.05 SECS, INTEGRAL =      5.19 TIME LEFT: 172794.59
 STEP:  94 TIME =     0.07 SECS, INTEGRAL =      5.26 TIME LEFT: 172794.52
 STEP:  95 TIME =     0.06 SECS, INTEGRAL =      5.32 TIME LEFT: 172794.46
 STEP:  96 TIME =     0.05 SECS, INTEGRAL =      5.36 TIME LEFT: 172794.42
 STEP:  97 TIME =     0.05 SECS, INTEGRAL =      5.41 TIME LEFT: 172794.37
 STEP:  98 TIME =     0.05 SECS, INTEGRAL =      5.46 TIME LEFT: 172794.32
 STEP:  99 TIME =     0.04 SECS, INTEGRAL =      5.50 TIME LEFT: 172794.28
 STEP: 100 TIME =     0.05 SECS, INTEGRAL =      5.55 TIME LEFT: 172794.23
 STEP: 101 TIME =     0.05 SECS, INTEGRAL =      5.60 TIME LEFT: 172794.18
 STEP: 102 TIME =     0.05 SECS, INTEGRAL =      5.64 TIME LEFT: 172794.14

(To convert to Hartree/Bohr^2, multiply by (10^(-21) x N x a0^2)/(4.184 x 627.51) =  0.0642)


           FORCE MATRIX IN MILLIDYNES/ANGSTROM


                  C  1       H  2       N  3       C  4       C  5       C  6
 ------------------------------------------------------------------------------
     C    1   8.943069
     H    2   4.141499   5.009603
     N    3   3.037983   3.038225  11.327791
     C    4   0.148025   0.533317   4.879836  16.277482
     C    5   0.025758   0.041094   0.133551   2.345235  15.284102
     C    6   0.843747   1.882482   4.187773   1.092309   0.034922  15.030094
     C    7   0.512457   0.889216   1.920348   0.126940   0.010752   5.304443
     C    8   0.281166   0.479839   0.546856   0.044903   0.003807   2.184054
     C    9   0.153532   0.262049   0.291718   0.029254   0.002161   1.214142
     C   10   0.119602   0.195863   0.196416   0.020874   0.000920   1.251980
     C   11   0.138146   0.229180   0.222867   0.017614   0.000695   0.378057
     C   12   0.124585   0.209143   0.225064   0.020369   0.000545   0.399559
     C   13   0.147027   0.244967   0.266708   0.029034   0.000736   0.493672
     C   14   0.150393   0.263284   0.301091   0.027546   0.000670   1.206315
     C   15   0.168386   0.298955   1.205727   0.089038   0.004920   4.251694
     C   16   0.030016   0.056698   1.166455   5.371851   1.667032   0.103465
     C   17   0.051301   0.076036   0.147714   2.329697   2.417211   0.034197
     H   18   0.005114   0.008682   0.012939   0.100224   3.471557   0.006441
     C   19   0.044086   0.061541   0.074994   1.687692   6.053585   0.031784
     H   20   0.028305   0.043247   0.049985   0.058985   0.003681   0.756126
     H   21   0.006190   0.011783   0.016357   0.007010   0.000866   0.075437
     H   22   0.017035   0.029336   0.018711   0.007278   0.000525   0.007750
     H   23   0.003491   0.006193   0.005842   0.003584   0.000381   0.008446
     H   24   0.003259   0.005871   0.005139   0.003171   0.000472   0.012245
     H   25   0.010162   0.016222   0.011258   0.005569   0.000544   0.008081
     H   26   0.041720   0.062911   0.065959   0.013390   0.000861   0.046989
     H   27   0.013048   0.019433   0.058858   0.742468   0.015616   0.034985
     H   28   3.649373   0.543272   0.221453   0.021587   0.003325   0.078247
     H   29   0.065956   0.087209   0.075379   0.742732   0.767342   0.030151
     C   30   0.091009   0.085108   1.182335   5.510722   6.152174   0.094773
     H   31   0.011182   0.018682   0.027426   0.017014   0.756275   0.011776
     H   32   0.002150   0.004153   0.012667   0.101349   0.091365   0.005563
     H   33   3.669031   0.492855   0.182071   0.023311   0.004487   0.074352
     H   34   3.661062   0.585605   0.253362   0.021204   0.003774   0.104235


                  C  7       C  8       C  9       C 10       C 11       C 12
 ------------------------------------------------------------------------------
     C    7  14.358263
     C    8   5.318520  14.813947
     C    9   2.282038   6.471279  14.797916
     C   10   0.930838   1.883765   4.801759  16.055617
     C   11   0.245914   0.397188   1.401344   4.874584  15.072229
     C   12   0.192055   0.259475   0.444125   1.988774   6.802164  15.105777
     C   13   0.175331   0.217276   0.321454   1.172029   2.231461   5.228776
     C   14   0.249733   0.219102   0.271534   1.580289   1.399853   2.232423
     C   15   1.416985   0.849206   1.367457   5.355200   1.545436   1.184333
     C   16   0.081309   0.012100   0.009813   0.003868   0.002851   0.003580
     C   17   0.019110   0.008613   0.004922   0.002312   0.002486   0.002766
     H   18   0.003047   0.000919   0.001433   0.000459   0.000666   0.000854
     C   19   0.018610   0.007529   0.005467   0.001715   0.002441   0.002709
     H   20   3.443866   0.748657   0.072508   0.006790   0.009080   0.003115
     H   21   0.747825   3.463396   0.761584   0.104239   0.008207   0.005292
     H   22   0.100391   0.766099   3.473489   0.731859   0.034258   0.005068
     H   23   0.002500   0.005069   0.035257   0.736063   3.469988   0.769242
     H   24   0.002690   0.004981   0.008469   0.109528   0.767307   3.474244
     H   25   0.005424   0.002514   0.010177   0.005830   0.072913   0.738746
     H   26   0.009239   0.003161   0.008836   0.071378   0.011436   0.106503
     H   27   0.016688   0.001744   0.003001   0.001493   0.001346   0.001058
     H   28   0.047652   0.025287   0.011112   0.015317   0.015170   0.012689
     H   29   0.015929   0.007274   0.003930   0.003113   0.002882   0.002771
     C   30   0.029189   0.009582   0.006792   0.002405   0.004315   0.003945
     H   31   0.005281   0.001764   0.002015   0.000441   0.001031   0.001088
     H   32   0.002989   0.000822   0.001287   0.000434   0.000794   0.000496
     H   33   0.046007   0.024069   0.012265   0.010536   0.010476   0.008898
     H   34   0.060730   0.032448   0.016144   0.014623   0.014949   0.012306


                  C 13       C 14       C 15       C 16       C 17       H 18
 ------------------------------------------------------------------------------
     C   13  15.041794
     C   14   6.710162  15.012190
     C   15   2.019126   4.930454  15.816805
     C   16   0.006195   0.004475   0.012105  15.049113
     C   17   0.004258   0.003714   0.006836   6.247913  15.282211
     H   18   0.001267   0.000625   0.001778   0.013177   0.093665   4.380934
     C   19   0.003959   0.002749   0.005914   2.359876   5.975284   0.747995
     H   20   0.005644   0.007781   0.086582   0.026329   0.002775   0.001562
     H   21   0.001676   0.008931   0.005850   0.003647   0.000695   0.000591
     H   22   0.002711   0.008580   0.063807   0.002783   0.000827   0.000850
     H   23   0.107294   0.008763   0.069916   0.001841   0.000601   0.000590
     H   24   0.734491   0.073618   0.008302   0.002085   0.000664   0.000685
     H   25   3.474270   0.765348   0.107633   0.002519   0.000655   0.000706
     H   26   0.760007   3.436864   0.727399   0.004778   0.001159   0.000541
     H   27   0.001353   0.002366   0.003218   3.458894   0.756821   0.011761
     H   28   0.016806   0.020132   0.019216   0.005723   0.005502   0.000770
     H   29   0.003640   0.003784   0.005557   0.082587   0.018883   0.034261
     C   30   0.005868   0.004511   0.019227   2.145119   1.664114   0.756147
     H   31   0.001367   0.000775   0.002479   0.088379   0.755600   0.032792
     H   32   0.000933   0.000568   0.001759   0.755444   3.469715   0.009154
     H   33   0.010308   0.011647   0.016087   0.007868   0.007474   0.001771
     H   34   0.015013   0.016225   0.020883   0.008322   0.007066   0.002069


                  C 19       H 20       H 21       H 22       H 23       H 24
 ------------------------------------------------------------------------------
     C   19  15.147759
     H   20   0.005015   4.358370
     H   21   0.001454   0.027767   4.375864
     H   22   0.001442   0.008115   0.038219   4.383922
     H   23   0.001173   0.000963   0.002885   0.020586   4.384286
     H   24   0.001228   0.001420   0.000954   0.002799   0.039965   4.383500
     H   25   0.001229   0.000623   0.001630   0.000970   0.008203   0.025453
     H   26   0.001329   0.002570   0.001005   0.002695   0.012354   0.008727
     H   27   0.095252   0.018911   0.002123   0.001269   0.000584   0.000660
     H   28   0.004933   0.003489   0.000639   0.002710   0.001059   0.001206
     H   29   0.095086   0.002810   0.000624   0.000669   0.000305   0.000393
     C   30   2.357233   0.009654   0.002698   0.002812   0.001534   0.001653
     H   31   3.483028   0.001604   0.000899   0.001068   0.000773   0.000843
     H   32   0.744304   0.002432   0.001139   0.000894   0.000699   0.000595
     H   33   0.007788   0.006091   0.001872   0.002328   0.000845   0.000674
     H   34   0.007440   0.004442   0.000924   0.002551   0.000767   0.000977


                  H 25       H 26       H 27       H 28       H 29       C 30
 ------------------------------------------------------------------------------
     H   25   4.385968
     H   26   0.039964   4.343433
     H   27   0.000887   0.002647   4.373407
     H   28   0.002426   0.011758   0.002214   4.180048
     H   29   0.000663   0.001857   0.008050   0.006997   4.383335
     C   30   0.002293   0.004292   0.082109   0.008121   3.455050  15.082063
     H   31   0.000727   0.000876   0.007397   0.001603   0.006976   0.090505
     H   32   0.000561   0.000908   0.034773   0.000838   0.011568   0.012020
     H   33   0.001065   0.004314   0.001893   0.455150   0.020972   0.014458
     H   34   0.002490   0.008567   0.002257   0.451461   0.020766   0.012954


                  H 31       H 32       H 33       H 34
 ------------------------------------------------------
     H   31   4.400089
     H   32   0.031941   4.378014
     H   33   0.001713   0.000727   4.202106
     H   34   0.001960   0.000706   0.452348   4.192962


          HEAT OF FORMATION =     113.191618 KCALS/MOLE

          ZERO POINT ENERGY     163.234 KCAL/MOL

         NOTE: SYSTEM IS NOT A GROUND STATE, THEREFORE ZERO POINT
         ENERGY IS NOT MEANINGFULL. ZERO POINT ENERGY PRINTED
         DOES NOT INCLUDE THE  1 IMAGINARY FREQUENCIES


           NORMAL COORDINATE ANALYSIS (Total motion = 1 Angstrom)


   Root No.       1         2         3         4         5         6         7         8

                 1 A       2 A       3 A       4 A       5 A       6 A       7 A       8 A   

               -3056.9      24.2      43.2      50.8      61.2      69.3      91.5     119.7
  
           1   -0.0433   -0.0246   -0.0080    0.0132    0.0007    0.0064   -0.0071   -0.0344
           2    0.0000    0.0470   -0.0123    0.0517    0.0202    0.0167    0.0320   -0.0098
           3    0.0006   -0.0385   -0.0052    0.0081    0.0079   -0.0289    0.0820    0.0054
           4    0.6710   -0.0244   -0.0080    0.0146    0.0008    0.0077   -0.0075   -0.0354
           5    0.1002    0.0190   -0.0063   -0.0021   -0.0019   -0.0299   -0.0081    0.0279
           6    0.0045   -0.0178   -0.0036    0.0092    0.0004    0.0110   -0.0088   -0.0136
           7   -0.0233   -0.0201   -0.0081    0.0155    0.0025    0.0061   -0.0064   -0.0254
           8   -0.0127    0.0049   -0.0078   -0.0041   -0.0061   -0.0268   -0.0081    0.0008
           9   -0.0061   -0.0055    0.0014    0.0041    0.0018    0.0125   -0.0068   -0.0050
          10    0.0015   -0.0075   -0.0032    0.0077    0.0022    0.0043    0.0007   -0.0153
          11   -0.0020   -0.0002   -0.0033   -0.0042   -0.0042   -0.0186   -0.0046   -0.0041
          12   -0.0009    0.0013    0.0025    0.0004    0.0011    0.0097   -0.0036    0.0009
          13    0.0004    0.0192   -0.0024   -0.0107   -0.0047   -0.0006    0.0202    0.0094
          14   -0.0000   -0.0236    0.0380   -0.0029    0.0187    0.0119    0.0009   -0.0006
          15   -0.0000    0.0094   -0.0125    0.0001   -0.0071   -0.0017   -0.0051    0.0000
          16   -0.0002   -0.0151   -0.0088    0.0155    0.0029    0.0003   -0.0093   -0.0002
          17    0.0148    0.0040   -0.0058   -0.0035   -0.0051   -0.0216   -0.0067   -0.0017
          18    0.0055   -0.0032   -0.0013    0.0035    0.0005    0.0063   -0.0084   -0.0032
          19   -0.0014   -0.0247   -0.0123    0.0110    0.0002   -0.0030   -0.0144    0.0151
          20   -0.0079    0.0059   -0.0077   -0.0026   -0.0056   -0.0258   -0.0072   -0.0049
          21    0.0016   -0.0031   -0.0070    0.0036   -0.0018   -0.0045   -0.0117   -0.0024
          22   -0.0003   -0.0221   -0.0137   -0.0100   -0.0095    0.0029   -0.0064    0.0338
          23    0.0006    0.0045   -0.0043    0.0002   -0.0030   -0.0197   -0.0073   -0.0070
          24    0.0045   -0.0009   -0.0122    0.0017   -0.0048   -0.0149   -0.0127   -0.0011
          25    0.0003   -0.0077   -0.0087   -0.0273   -0.0149    0.0099    0.0073    0.0171
          26   -0.0001   -0.0001    0.0003    0.0018   -0.0004   -0.0089   -0.0077   -0.0026
          27   -0.0024    0.0013   -0.0112   -0.0013   -0.0056   -0.0135   -0.0104   -0.0039
          28    0.0005    0.0040   -0.0012   -0.0167   -0.0075    0.0064    0.0059   -0.0027
          29    0.0002   -0.0029    0.0016   -0.0004   -0.0007   -0.0028   -0.0063    0.0014
          30   -0.0017    0.0015   -0.0050   -0.0005   -0.0027   -0.0035   -0.0085   -0.0057
          31   -0.0004    0.0218    0.0089   -0.0320   -0.0093    0.0075    0.0138   -0.0313
          32   -0.0015   -0.0084    0.0057    0.0001    0.0011    0.0113   -0.0056    0.0061
          33    0.0014    0.0044   -0.0031   -0.0032   -0.0030   -0.0029   -0.0071   -0.0107
          34    0.0002    0.0330    0.0180   -0.0161    0.0010   -0.0019    0.0022   -0.0178
          35    0.0019   -0.0113    0.0068   -0.0031    0.0002    0.0190   -0.0029    0.0041
          36   -0.0004    0.0038    0.0031   -0.0020   -0.0000    0.0076   -0.0073   -0.0084
          37    0.0001    0.0252    0.0159    0.0163    0.0124   -0.0119   -0.0161    0.0283
          38   -0.0007   -0.0088    0.0041   -0.0067   -0.0023    0.0130   -0.0017   -0.0030
          39   -0.0022   -0.0001    0.0074    0.0023    0.0033    0.0176   -0.0084    0.0003
          40   -0.0009    0.0076    0.0054    0.0284    0.0124   -0.0105   -0.0182    0.0376
          41   -0.0007   -0.0035    0.0002   -0.0069   -0.0038   -0.0009   -0.0034   -0.0051
          42    0.0021   -0.0029    0.0056    0.0043    0.0033    0.0175   -0.0087    0.0020
          43    0.0010   -0.0016   -0.0023    0.0100    0.0026   -0.0006   -0.0067    0.0110
          44    0.0021   -0.0007   -0.0013   -0.0037   -0.0032   -0.0091   -0.0056   -0.0015
          45   -0.0015   -0.0015   -0.0003    0.0027    0.0004    0.0065   -0.0083   -0.0021
          46    0.0000   -0.0097    0.0073    0.0074    0.0068   -0.0022   -0.0009   -0.0160
          47   -0.0004    0.0104   -0.0296   -0.0080   -0.0170    0.0012    0.0058    0.0051
          48    0.0001    0.0081    0.0218   -0.0085    0.0068    0.0051    0.0053    0.0122
          49   -0.0006    0.0026    0.0137   -0.0017    0.0058   -0.0100    0.0077   -0.0061
          50    0.0003    0.0039   -0.0239   -0.0097   -0.0123    0.0329    0.0153    0.0175
          51    0.0004    0.0157    0.0241   -0.0129    0.0054   -0.0049    0.0082    0.0156
          52    0.0005    0.0306   -0.0065   -0.0178   -0.0093    0.0006    0.0291    0.0205
          53    0.0003   -0.0369    0.0652   -0.0006    0.0330    0.0141   -0.0016   -0.0052
          54    0.0004    0.0099   -0.0263    0.0035   -0.0128   -0.0038   -0.0095   -0.0046
          55   -0.0003    0.0171    0.0088   -0.0105   -0.0003   -0.0104    0.0178    0.0057
          56   -0.0002   -0.0131    0.0097   -0.0073    0.0063    0.0407    0.0129    0.0158
          57   -0.0004    0.0163    0.0071   -0.0084   -0.0017   -0.0094    0.0028    0.0087
          58    0.0018   -0.0342   -0.0131    0.0208    0.0043   -0.0092   -0.0229    0.0116
          59   -0.0009    0.0085   -0.0125   -0.0034   -0.0081   -0.0333   -0.0077   -0.0046
          60    0.0038   -0.0043   -0.0074    0.0050   -0.0013   -0.0060   -0.0130   -0.0030
          61   -0.0003   -0.0311   -0.0184   -0.0143   -0.0132    0.0023   -0.0097    0.0567
          62   -0.0018    0.0067   -0.0055    0.0014   -0.0030   -0.0242   -0.0075   -0.0116
          63    0.0001   -0.0010   -0.0168    0.0019   -0.0066   -0.0236   -0.0147    0.0013
          64    0.0003   -0.0047   -0.0098   -0.0481   -0.0241    0.0169    0.0177    0.0208
          65   -0.0023   -0.0015    0.0028    0.0047    0.0019   -0.0048   -0.0084   -0.0025
          66   -0.0008    0.0032   -0.0150   -0.0039   -0.0084   -0.0203   -0.0100   -0.0043
          67    0.0004    0.0268    0.0097   -0.0563   -0.0185    0.0151    0.0282   -0.0624
          68   -0.0001   -0.0103    0.0078    0.0030    0.0031    0.0160   -0.0069    0.0108
          69   -0.0006    0.0072   -0.0066   -0.0061   -0.0056   -0.0110   -0.0060   -0.0161
          70    0.0004    0.0475    0.0265   -0.0278    0.0003   -0.0020    0.0068   -0.0400
          71   -0.0003   -0.0157    0.0097   -0.0027    0.0014    0.0297   -0.0018    0.0076
          72   -0.0005    0.0062    0.0047   -0.0040   -0.0001    0.0080   -0.0064   -0.0122
          73    0.0011    0.0331    0.0227    0.0312    0.0208   -0.0206   -0.0274    0.0529
          74    0.0011   -0.0109    0.0052   -0.0092   -0.0028    0.0193    0.0006   -0.0057
          75    0.0000   -0.0007    0.0123    0.0038    0.0058    0.0255   -0.0088    0.0052
          76    0.0042    0.0004    0.0033    0.0528    0.0194   -0.0180   -0.0290    0.0651
          77    0.0009   -0.0010   -0.0015   -0.0089   -0.0050   -0.0058   -0.0031   -0.0075
          78    0.0041   -0.0069    0.0083    0.0073    0.0051    0.0256   -0.0091    0.0053
          79   -0.0021   -0.0204    0.0088    0.0141    0.0101   -0.0013   -0.0090   -0.0242
          80   -0.0001    0.0235   -0.0535   -0.0096   -0.0299   -0.0052    0.0071    0.0038
          81    0.0010    0.0077    0.0346   -0.0121    0.0120    0.0084    0.0101    0.0186
          82    0.0555   -0.0318   -0.0076    0.0296    0.0048   -0.0093    0.0624   -0.0298
          83    0.0056    0.0551   -0.0883   -0.0172    0.1970    0.0190    0.0202   -0.0180
          84    0.0132   -0.0429    0.0219    0.0359   -0.0540   -0.0329    0.1004    0.0092
          85    0.0059    0.0089   -0.0174   -0.0019   -0.0061    0.0144    0.0124    0.0005
          86   -0.0017   -0.0256    0.0542    0.0028    0.0203   -0.0405   -0.0148   -0.0214
          87   -0.0036   -0.0035   -0.0296    0.0112   -0.0085    0.0132   -0.0130   -0.0105
          88   -0.0005    0.0070   -0.0086   -0.0015   -0.0033    0.0072    0.0109   -0.0019
          89    0.0002   -0.0173    0.0316   -0.0013    0.0126   -0.0186   -0.0076   -0.0105
          90   -0.0003    0.0017   -0.0143    0.0046   -0.0051    0.0081   -0.0082   -0.0038
          91   -0.0007    0.0265    0.0138   -0.0174   -0.0013   -0.0177    0.0240    0.0125
          92   -0.0001   -0.0181    0.0141   -0.0087    0.0108    0.0679    0.0202    0.0265
          93    0.0012    0.0221    0.0088   -0.0117   -0.0031   -0.0183    0.0047    0.0103
          94   -0.0004    0.0010    0.0220   -0.0017    0.0095   -0.0163    0.0059   -0.0081
          95   -0.0002    0.0122   -0.0454   -0.0128   -0.0228    0.0521    0.0244    0.0280
          96    0.0002    0.0212    0.0389   -0.0198    0.0097   -0.0095    0.0145    0.0234
          97    0.0480    0.0005   -0.0102    0.0382    0.0056    0.0483   -0.0351   -0.0597
          98    0.0107    0.0487    0.0473    0.1233   -0.1167    0.0283    0.0534   -0.0142
          99   -0.0130   -0.0452    0.0464    0.0612   -0.1104   -0.0325    0.1092    0.0099
         100    0.0622   -0.0427   -0.0061   -0.0288   -0.0083   -0.0225   -0.0477   -0.0106
         101   -0.0131    0.0500    0.0009    0.0733   -0.0097    0.0237    0.0408   -0.0142
         102   -0.0026   -0.0368   -0.0839   -0.0721    0.1911   -0.0387    0.0749    0.0052


   Root No.       9        10        11        12        13        14        15        16

                 9 A      10 A      11 A      12 A      13 A      14 A      15 A      16 A   

                 157.0     180.5     212.9     240.3     289.2     354.7     361.9     396.4
  
           1   -0.0100    0.0093    0.0367    0.0211    0.0451   -0.0026   -0.0038   -0.0208
           2   -0.0018    0.0028    0.0028   -0.0011   -0.0011   -0.0005    0.0018   -0.0020
           3    0.0052    0.0014   -0.0002   -0.0014    0.0034    0.0007    0.0019    0.0018
           4   -0.0098    0.0086    0.0337    0.0199    0.0294   -0.0007   -0.0017   -0.0107
           5    0.0148   -0.0290   -0.0608   -0.0332   -0.0601   -0.0005    0.0303   -0.0097
           6   -0.0086   -0.0066    0.0304    0.0426    0.0513    0.0014    0.0151    0.0112
           7   -0.0042   -0.0005    0.0086    0.0058   -0.0068   -0.0005    0.0107    0.0102
           8    0.0027   -0.0061   -0.0017   -0.0101    0.0039    0.0005   -0.0065   -0.0322
           9   -0.0009   -0.0122    0.0100    0.0153   -0.0068   -0.0005    0.0057    0.0233
          10    0.0039   -0.0091    0.0033   -0.0156   -0.0360    0.0003   -0.0111    0.0027
          11   -0.0097    0.0227   -0.0012    0.0109   -0.0165    0.0036   -0.0100   -0.0263
          12    0.0042   -0.0214    0.0086    0.0073   -0.0186    0.0010   -0.0037    0.0107
          13    0.0013    0.0109   -0.0080   -0.0083    0.0132   -0.0187    0.0014    0.0058
          14   -0.0022   -0.0055    0.0037    0.0040   -0.0071    0.0518    0.0044    0.0126
          15    0.0011   -0.0138    0.0097    0.0188   -0.0244   -0.0163   -0.0080   -0.0156
          16    0.0003   -0.0113   -0.0291    0.0134   -0.0038   -0.0004    0.0397   -0.0019
          17    0.0030   -0.0165    0.0096   -0.0048    0.0052   -0.0006   -0.0057   -0.0109
          18   -0.0029    0.0070   -0.0080    0.0003   -0.0058    0.0004    0.0056    0.0056
          19    0.0524    0.0013   -0.0312    0.0263    0.0081    0.0010    0.0086   -0.0118
          20   -0.0040   -0.0181    0.0084   -0.0124    0.0106   -0.0014    0.0009   -0.0136
          21    0.0075    0.0081   -0.0107   -0.0095    0.0094   -0.0005    0.0032    0.0025
          22    0.0254    0.0156    0.0210    0.0049    0.0015    0.0078   -0.0302    0.0067
          23   -0.0009   -0.0173   -0.0013   -0.0065    0.0087   -0.0020    0.0078   -0.0127
          24    0.0058    0.0035   -0.0007   -0.0182    0.0159   -0.0010   -0.0027    0.0042
          25   -0.0358    0.0017    0.0349   -0.0167   -0.0097   -0.0061    0.0235    0.0007
          26    0.0077   -0.0106   -0.0041    0.0001    0.0093   -0.0008    0.0004    0.0217
          27   -0.0045    0.0007    0.0020   -0.0209    0.0136   -0.0036    0.0066    0.0056
          28   -0.0371   -0.0154   -0.0156    0.0031    0.0016   -0.0035    0.0208   -0.0108
          29    0.0070   -0.0058    0.0042    0.0000    0.0035   -0.0012    0.0000    0.0312
          30   -0.0066    0.0010   -0.0053   -0.0109    0.0069   -0.0030    0.0042    0.0200
          31   -0.0022   -0.0126   -0.0250    0.0121    0.0092    0.0037   -0.0395   -0.0003
          32   -0.0002    0.0118   -0.0019   -0.0080    0.0014   -0.0005    0.0061    0.0005
          33   -0.0007    0.0022   -0.0073   -0.0101    0.0085   -0.0019   -0.0060    0.0233
          34    0.0454    0.0093    0.0073    0.0031   -0.0047    0.0014    0.0161    0.0019
          35   -0.0081    0.0168   -0.0101   -0.0098    0.0031    0.0007   -0.0035   -0.0148
          36    0.0058    0.0208   -0.0077   -0.0166    0.0050   -0.0009    0.0009   -0.0009
          37    0.0183    0.0128    0.0264   -0.0101   -0.0049   -0.0041    0.0156   -0.0044
          38   -0.0029    0.0097   -0.0104   -0.0089    0.0070    0.0000   -0.0022   -0.0015
          39   -0.0009    0.0319   -0.0080   -0.0175   -0.0005    0.0002   -0.0009   -0.0206
          40   -0.0353   -0.0113   -0.0105    0.0039    0.0102    0.0032   -0.0388    0.0123
          41    0.0070   -0.0030    0.0015   -0.0069    0.0078   -0.0031    0.0076    0.0245
          42   -0.0099    0.0265   -0.0136   -0.0140    0.0016    0.0014   -0.0098   -0.0145
          43   -0.0358   -0.0177   -0.0298    0.0097    0.0039    0.0007    0.0239   -0.0008
          44    0.0079   -0.0116    0.0082   -0.0028    0.0071   -0.0030    0.0002    0.0351
          45   -0.0080    0.0079   -0.0089   -0.0041   -0.0011   -0.0000    0.0030    0.0079
          46    0.0041   -0.0115    0.0029   -0.0203   -0.0318   -0.0181   -0.0145   -0.0080
          47   -0.0104    0.0312   -0.0017    0.0298   -0.0203    0.0564    0.0024   -0.0002
          48    0.0039   -0.0237    0.0086    0.0142    0.0051   -0.0192   -0.0006   -0.0126
          49   -0.0017    0.0035   -0.0015   -0.0116   -0.0077    0.0176   -0.0030   -0.0040
          50    0.0062    0.0029   -0.0029    0.0178   -0.0045   -0.0492    0.0010    0.0087
          51   -0.0023   -0.0109    0.0068    0.0233    0.0170    0.0191    0.0073   -0.0141
          52    0.0017    0.0163   -0.0115   -0.0010    0.0318   -0.0493    0.0052   -0.0056
          53   -0.0035   -0.0151    0.0079   -0.0008   -0.0070    0.1377    0.0141    0.0386
          54    0.0016   -0.0116    0.0096    0.0169   -0.0370   -0.0482   -0.0166   -0.0242
          55   -0.0049    0.0199   -0.0077   -0.0012    0.0101    0.0003    0.0052    0.0165
          56    0.0154   -0.0301    0.0015   -0.0131    0.0122   -0.0013   -0.0021   -0.0205
          57   -0.0056   -0.0020    0.0080    0.0345   -0.0047    0.0025    0.0038   -0.0095
          58    0.1063    0.0016   -0.0530    0.0403    0.0202   -0.0066    0.0008   -0.0231
          59   -0.0090   -0.0191    0.0107   -0.0197    0.0181    0.0006    0.0029   -0.0112
          60    0.0151    0.0077   -0.0134   -0.0078    0.0116   -0.0016    0.0020    0.0011
          61    0.0519    0.0355    0.0542    0.0010    0.0038    0.0187   -0.0925    0.0290
          62   -0.0046   -0.0229   -0.0065   -0.0073    0.0099   -0.0040    0.0181   -0.0235
          63    0.0116    0.0026    0.0056   -0.0214    0.0189    0.0006   -0.0134   -0.0077
          64   -0.0695    0.0075    0.0856   -0.0455   -0.0245   -0.0151    0.0430    0.0116
          65    0.0124   -0.0096   -0.0125    0.0071    0.0092    0.0004   -0.0029    0.0320
          66   -0.0089   -0.0012    0.0104   -0.0293    0.0146   -0.0046    0.0099   -0.0122
          67   -0.0009   -0.0216   -0.0484    0.0234    0.0219    0.0106   -0.1161    0.0085
          68   -0.0012    0.0208   -0.0015   -0.0126   -0.0008   -0.0008    0.0163   -0.0143
          69    0.0008   -0.0115   -0.0063   -0.0035    0.0113   -0.0019   -0.0169    0.0457
          70    0.0985    0.0229    0.0177    0.0055   -0.0116    0.0044    0.0350    0.0104
          71   -0.0174    0.0265   -0.0160   -0.0119    0.0010    0.0019   -0.0084   -0.0379
          72    0.0148    0.0234   -0.0060   -0.0161    0.0035   -0.0003    0.0041    0.0000
          73    0.0399    0.0310    0.0648   -0.0262   -0.0134   -0.0108    0.0337   -0.0129
          74   -0.0069    0.0124   -0.0175   -0.0070    0.0060    0.0019   -0.0057   -0.0108
          75    0.0007    0.0447   -0.0056   -0.0209   -0.0056    0.0009    0.0001   -0.0416
          76   -0.0645   -0.0207   -0.0141    0.0090    0.0229    0.0087   -0.1136    0.0343
          77    0.0108   -0.0083    0.0041   -0.0057    0.0055   -0.0041    0.0160    0.0315
          78   -0.0159    0.0354   -0.0174   -0.0158    0.0055    0.0032   -0.0225   -0.0280
          79    0.0082   -0.0190    0.0034   -0.0299   -0.0453   -0.0439   -0.0229   -0.0102
          80   -0.0205    0.0510   -0.0014    0.0422   -0.0319    0.1413    0.0100    0.0200
          81    0.0071   -0.0299    0.0079    0.0137    0.0219   -0.0509    0.0014   -0.0218
          82   -0.0049    0.0220    0.0304   -0.0030    0.0203   -0.0041   -0.0293   -0.0299
          83   -0.0095    0.0119    0.0144    0.0062    0.0082   -0.0022   -0.0059    0.0009
          84    0.0090    0.0008   -0.0053   -0.0089   -0.0046    0.0009   -0.0009   -0.0013
          85    0.0101   -0.0121   -0.0022   -0.0295   -0.0066    0.0488   -0.0058   -0.0008
          86   -0.0272    0.0459    0.0008    0.0439   -0.0470   -0.1376   -0.0113    0.0182
          87    0.0106   -0.0396    0.0164   -0.0018   -0.0474    0.0554   -0.0150   -0.0261
          88    0.0062   -0.0048   -0.0027   -0.0230   -0.0109    0.0176   -0.0069    0.0059
          89   -0.0158    0.0272    0.0005    0.0247   -0.0276   -0.0492   -0.0068    0.0038
          90    0.0061   -0.0275    0.0126    0.0069   -0.0297    0.0208   -0.0087   -0.0111
          91   -0.0114    0.0369   -0.0111    0.0137    0.0235    0.0004    0.0140    0.0295
          92    0.0336   -0.0690    0.0029   -0.0448    0.0362   -0.0049   -0.0066   -0.0510
          93   -0.0124    0.0142    0.0058    0.0478   -0.0022    0.0033    0.0092    0.0034
          94   -0.0040    0.0044   -0.0009   -0.0140   -0.0044    0.0474   -0.0023   -0.0124
          95    0.0128    0.0023   -0.0067    0.0249   -0.0038   -0.1357    0.0024    0.0373
          96   -0.0048   -0.0057    0.0036    0.0223    0.0426    0.0505    0.0158   -0.0150
          97   -0.0229    0.0169    0.0801    0.0599    0.0980    0.0022   -0.0073   -0.0007
          98    0.0003    0.0041    0.0126    0.0028    0.0090    0.0017   -0.0031    0.0010
          99    0.0110    0.0001   -0.0060   -0.0107   -0.0057    0.0010   -0.0011   -0.0021
         100   -0.0010   -0.0135   -0.0063    0.0045    0.0071   -0.0045    0.0280   -0.0346
         101   -0.0027    0.0060    0.0112    0.0027    0.0070    0.0005   -0.0032    0.0010
         102    0.0009    0.0074   -0.0022   -0.0052   -0.0040   -0.0020   -0.0039    0.0001


   Root No.      17        18        19        20        21        22        23        24

                17 A      18 A      19 A      20 A      21 A      22 A      23 A      24 A   

                 416.9     446.3     487.0     491.1     498.6     515.5     519.8     560.5
  
           1    0.0016    0.0093   -0.0053   -0.0101    0.0186    0.0200   -0.0160    0.0179
           2    0.0024    0.0010   -0.0092   -0.0043    0.0011    0.0159    0.0050    0.0132
           3    0.0002   -0.0001   -0.0011    0.0004   -0.0142   -0.0099    0.0074    0.0116
           4    0.0005    0.0024    0.0014    0.0001    0.0012   -0.0032    0.0007   -0.0073
           5    0.0212    0.0015   -0.0536   -0.0199    0.0054    0.0757    0.0298    0.0242
           6    0.0026   -0.0016   -0.0076    0.0055   -0.0815   -0.0584    0.0358    0.0343
           7    0.0038   -0.0102   -0.0070    0.0070   -0.0095    0.0080    0.0294   -0.0265
           8    0.0049    0.0158   -0.0131   -0.0131   -0.0049   -0.0068   -0.0122    0.0152
           9   -0.0016   -0.0056   -0.0038    0.0013   -0.0262    0.0002    0.0092    0.0036
          10   -0.0031   -0.0115    0.0028   -0.0053    0.0128   -0.0031   -0.0061   -0.0039
          11    0.0028    0.0357    0.0124    0.0188   -0.0056   -0.0024    0.0060    0.0069
          12   -0.0034   -0.0097   -0.0017   -0.0078   -0.0108   -0.0060   -0.0098    0.0155
          13    0.0012    0.0086    0.0008    0.0042   -0.0164   -0.0028    0.0042    0.0066
          14   -0.0054   -0.0176   -0.0080   -0.0138   -0.0001   -0.0050   -0.0112    0.0093
          15    0.0014    0.0066    0.0057    0.0069    0.0013   -0.0043    0.0066    0.0009
          16    0.0188   -0.0033   -0.0136    0.0031   -0.0024    0.0120    0.0257   -0.0179
          17    0.0006   -0.0005   -0.0157   -0.0152   -0.0086   -0.0128    0.0014    0.0038
          18    0.0032    0.0167    0.0023    0.0062   -0.0194    0.0193   -0.0124    0.0124
          19   -0.0357    0.0037   -0.0120    0.0101    0.0063   -0.0158   -0.0106    0.0027
          20    0.0091   -0.0218   -0.0085   -0.0106   -0.0111   -0.0092    0.0059   -0.0134
          21   -0.0057   -0.0183    0.0213    0.0210   -0.0140    0.0214   -0.0200   -0.0006
          22    0.0329    0.0012    0.0124   -0.0229   -0.0112    0.0060    0.0058   -0.0069
          23   -0.0020   -0.0186   -0.0070    0.0003   -0.0270    0.0027   -0.0144   -0.0214
          24    0.0047   -0.0312    0.0196    0.0090    0.0112    0.0028    0.0091    0.0039
          25   -0.0158    0.0026   -0.0206    0.0230   -0.0005   -0.0007   -0.0109   -0.0031
          26    0.0001    0.0033    0.0158    0.0052   -0.0169    0.0187   -0.0211   -0.0213
          27   -0.0038   -0.0256    0.0122    0.0150    0.0138    0.0002    0.0062    0.0037
          28   -0.0202    0.0082    0.0297   -0.0230   -0.0020   -0.0087   -0.0156    0.0043
          29   -0.0006    0.0225    0.0005    0.0066   -0.0070    0.0140   -0.0141   -0.0104
          30   -0.0062    0.0223    0.0018   -0.0081    0.0194   -0.0081    0.0070    0.0149
          31   -0.0235   -0.0094    0.0028   -0.0039   -0.0093    0.0139    0.0130   -0.0030
          32    0.0033   -0.0108    0.0140    0.0132    0.0086    0.0045    0.0023    0.0290
          33   -0.0073    0.0236   -0.0060   -0.0081    0.0225   -0.0077    0.0143    0.0132
          34    0.0399   -0.0051   -0.0030    0.0186    0.0052   -0.0076   -0.0153    0.0096
          35   -0.0043   -0.0228    0.0101    0.0059    0.0048    0.0022    0.0091    0.0148
          36    0.0069    0.0120   -0.0204   -0.0149    0.0178   -0.0215    0.0097   -0.0170
          37   -0.0358   -0.0006    0.0168   -0.0160   -0.0007    0.0081    0.0166    0.0025
          38    0.0043   -0.0172    0.0048    0.0069    0.0249   -0.0112    0.0176    0.0154
          39   -0.0027    0.0037   -0.0141   -0.0156   -0.0154   -0.0016   -0.0068   -0.0255
          40    0.0088   -0.0037   -0.0155    0.0206    0.0096   -0.0075   -0.0069    0.0040
          41   -0.0056    0.0159   -0.0023   -0.0090    0.0190   -0.0095    0.0083   -0.0207
          42    0.0040    0.0048   -0.0172   -0.0077   -0.0136   -0.0020   -0.0117   -0.0223
          43    0.0396    0.0066    0.0216   -0.0162    0.0089   -0.0126   -0.0059   -0.0006
          44   -0.0109    0.0213   -0.0025    0.0004    0.0121   -0.0005    0.0024   -0.0065
          45    0.0060    0.0204    0.0035   -0.0012   -0.0147    0.0111   -0.0161    0.0089
          46   -0.0001    0.0002    0.0059   -0.0007    0.0104   -0.0057   -0.0047   -0.0014
          47   -0.0049    0.0023    0.0051    0.0079    0.0078    0.0011    0.0061   -0.0071
          48    0.0028   -0.0036    0.0001   -0.0024    0.0127    0.0039   -0.0045   -0.0024
          49    0.0000    0.0069    0.0040    0.0066   -0.0001   -0.0033    0.0089   -0.0072
          50   -0.0011   -0.0199   -0.0083   -0.0137    0.0077   -0.0013   -0.0089    0.0004
          51    0.0029    0.0035    0.0007    0.0058    0.0096    0.0070    0.0076   -0.0103
          52    0.0065    0.0213    0.0044    0.0173   -0.0131    0.0049    0.0210   -0.0103
          53   -0.0149   -0.0613   -0.0285   -0.0501    0.0120   -0.0089   -0.0425    0.0210
          54    0.0037    0.0247    0.0159    0.0203   -0.0072   -0.0067    0.0142    0.0044
          55   -0.0020   -0.0064   -0.0057   -0.0066   -0.0124   -0.0035   -0.0044    0.0090
          56    0.0052    0.0223    0.0085    0.0169   -0.0014    0.0034    0.0157   -0.0093
          57    0.0003   -0.0130   -0.0033   -0.0039    0.0222    0.0046    0.0014   -0.0146
          58   -0.1151   -0.0013   -0.0287    0.0412    0.0196   -0.0436   -0.0425    0.0180
          59    0.0190   -0.0436    0.0022   -0.0102    0.0053   -0.0134    0.0237   -0.0216
          60   -0.0166   -0.0201    0.0187    0.0248   -0.0102    0.0159   -0.0223    0.0017
          61    0.0969   -0.0046    0.0352   -0.0567   -0.0230    0.0242    0.0297   -0.0154
          62   -0.0120   -0.0232   -0.0168    0.0010   -0.0188   -0.0108   -0.0084   -0.0167
          63    0.0174   -0.0439    0.0114   -0.0063    0.0179   -0.0131    0.0307    0.0081
          64   -0.0345   -0.0015   -0.0832    0.0853    0.0069    0.0049   -0.0097   -0.0079
          65    0.0012    0.0231    0.0242   -0.0072   -0.0106    0.0174   -0.0207   -0.0151
          66   -0.0036   -0.0549    0.0029    0.0272    0.0039    0.0002    0.0070   -0.0039
          67   -0.0534   -0.0278   -0.0287    0.0107   -0.0210    0.0442    0.0534   -0.0202
          68    0.0094   -0.0204    0.0170    0.0099    0.0133   -0.0055    0.0025    0.0315
          69   -0.0148    0.0404   -0.0094   -0.0046    0.0142    0.0061    0.0099    0.0063
          70    0.1201   -0.0101   -0.0364    0.0637    0.0170   -0.0248   -0.0420    0.0118
          71   -0.0123   -0.0331    0.0088   -0.0037   -0.0193    0.0087    0.0001   -0.0102
          72    0.0208    0.0110   -0.0258   -0.0067    0.0180   -0.0232    0.0037   -0.0166
          73   -0.1157    0.0026    0.0307   -0.0465   -0.0162    0.0354    0.0532   -0.0121
          74    0.0163   -0.0267    0.0068    0.0151    0.0185   -0.0090    0.0088    0.0252
          75   -0.0134   -0.0138   -0.0044   -0.0127   -0.0307    0.0123   -0.0054   -0.0108
          76   -0.0011   -0.0131   -0.0683    0.0733    0.0113   -0.0023   -0.0121    0.0028
          77   -0.0060    0.0273    0.0045   -0.0137    0.0159   -0.0041    0.0024   -0.0196
          78    0.0050   -0.0149   -0.0262    0.0001   -0.0093   -0.0105   -0.0019   -0.0202
          79   -0.0011    0.0090    0.0095    0.0014    0.0014   -0.0114   -0.0109    0.0123
          80   -0.0108   -0.0165    0.0016   -0.0004    0.0102    0.0020    0.0059   -0.0116
          81    0.0068    0.0015   -0.0008    0.0010    0.0159    0.0072    0.0005   -0.0088
          82   -0.0105    0.0074    0.0328   -0.0040    0.1430    0.0648   -0.0999   -0.1173
          83   -0.0032   -0.0007    0.0091    0.0033    0.0034   -0.0110   -0.0077   -0.0126
          84   -0.0004    0.0002    0.0003   -0.0012    0.0118    0.0096   -0.0064   -0.0077
          85   -0.0032    0.0104    0.0037    0.0000   -0.0080   -0.0060   -0.0108    0.0163
          86    0.0008   -0.0191    0.0046   -0.0016    0.0011   -0.0032    0.0054   -0.0072
          87   -0.0025    0.0069    0.0084    0.0039    0.0152   -0.0075   -0.0045    0.0024
          88   -0.0031    0.0031    0.0028   -0.0030   -0.0079   -0.0060   -0.0114    0.0147
          89    0.0001    0.0028    0.0064    0.0063   -0.0056   -0.0038    0.0049    0.0023
          90   -0.0018    0.0003    0.0028   -0.0008    0.0020   -0.0065   -0.0036    0.0077
          91   -0.0039   -0.0216   -0.0142   -0.0174   -0.0090    0.0000   -0.0128    0.0099
          92    0.0143    0.0620    0.0239    0.0447   -0.0082    0.0105    0.0390   -0.0215
          93   -0.0024   -0.0279   -0.0107   -0.0148    0.0240    0.0047   -0.0077   -0.0105
          94    0.0008    0.0226    0.0106    0.0194   -0.0037   -0.0016    0.0191   -0.0110
          95   -0.0033   -0.0650   -0.0296   -0.0520    0.0113   -0.0057   -0.0396    0.0163
          96    0.0044    0.0205    0.0028    0.0182   -0.0073    0.0103    0.0201   -0.0090
          97   -0.0100    0.0039    0.0369    0.0184   -0.0861   -0.1382    0.0095    0.0228
          98   -0.0027   -0.0002    0.0079    0.0034   -0.0043   -0.0160   -0.0028   -0.0056
          99   -0.0003    0.0006   -0.0006   -0.0024    0.0158    0.0154   -0.0073   -0.0067
         100    0.0272    0.0160   -0.0930   -0.0462    0.0051    0.1478    0.0449    0.1487
         101   -0.0022   -0.0004    0.0070    0.0029   -0.0011   -0.0118   -0.0038   -0.0090
         102   -0.0016   -0.0007    0.0040    0.0007    0.0117    0.0035   -0.0081   -0.0120


   Root No.      25        26        27        28        29        30        31        32

                25 A      26 A      27 A      28 A      29 A      30 A      31 A      32 A   

                 594.6     606.1     612.1     653.0     672.7     744.6     768.7     809.7
  
           1    0.0059   -0.0009    0.0055   -0.0135    0.0128   -0.0008    0.0057   -0.0029
           2    0.0044   -0.0060    0.0134    0.0050    0.0017    0.0022    0.0020   -0.0006
           3   -0.0106   -0.0128    0.0098   -0.0037   -0.0019    0.0007    0.0021   -0.0006
           4   -0.0013    0.0044   -0.0059    0.0088   -0.0070    0.0010   -0.0067    0.0057
           5    0.0092    0.0007    0.0034    0.0109   -0.0108   -0.0107   -0.0187    0.0064
           6   -0.0232   -0.0164    0.0091   -0.0061    0.0024   -0.0097   -0.0140    0.0053
           7    0.0013    0.0042   -0.0048    0.0437   -0.0323    0.0045   -0.0194    0.0117
           8   -0.0172    0.0097   -0.0184   -0.0186   -0.0145   -0.0092   -0.0276    0.0104
           9    0.0332    0.0112   -0.0119    0.0220    0.0058    0.0043   -0.0052   -0.0023
          10   -0.0036   -0.0272    0.0055   -0.0174   -0.0176    0.0019    0.0018   -0.0062
          11   -0.0147   -0.0020   -0.0128    0.0476    0.0353   -0.0010    0.0024    0.0132
          12    0.0263   -0.0028   -0.0095   -0.0224    0.0150   -0.0039   -0.0008   -0.0037
          13    0.0155    0.0193   -0.0002   -0.0071    0.0122   -0.0038   -0.0027    0.0070
          14   -0.0107    0.0295    0.0025    0.0078    0.0184   -0.0025    0.0024   -0.0046
          15    0.0019    0.0494    0.0217   -0.0155    0.0154   -0.0042    0.0016    0.0072
          16   -0.0217    0.0033   -0.0321   -0.0316    0.0232   -0.0354   -0.0002    0.0052
          17    0.0164    0.0082   -0.0098    0.0095   -0.0146    0.0078   -0.0228   -0.0045
          18   -0.0097    0.0102   -0.0199   -0.0051   -0.0123   -0.0059    0.0080    0.0085
          19    0.0081   -0.0004    0.0008   -0.0004    0.0001    0.0021   -0.0044   -0.0059
          20    0.0114    0.0029   -0.0073    0.0034   -0.0059    0.0032    0.0068   -0.0071
          21   -0.0099   -0.0039    0.0079   -0.0029   -0.0021    0.0009    0.0539    0.0090
          22    0.0012    0.0009   -0.0020    0.0025   -0.0064   -0.0122    0.0196   -0.0050
          23    0.0079    0.0001   -0.0028    0.0023   -0.0122    0.0107    0.0680   -0.0038
          24    0.0003   -0.0044    0.0099   -0.0001    0.0146   -0.0061   -0.0348   -0.0015
          25   -0.0028   -0.0013    0.0001   -0.0037    0.0016   -0.0032    0.0062   -0.0067
          26   -0.0096   -0.0116    0.0207   -0.0027    0.0095   -0.0004   -0.0133    0.0027
          27   -0.0011   -0.0043    0.0089   -0.0015    0.0146   -0.0048   -0.0360   -0.0023
          28    0.0154   -0.0037    0.0239    0.0261   -0.0199   -0.0459   -0.0014    0.0024
          29   -0.0122   -0.0036    0.0033   -0.0068   -0.0004    0.0082   -0.0110   -0.0023
          30    0.0000    0.0072   -0.0095    0.0040   -0.0223   -0.0035    0.0025   -0.0061
          31   -0.0060    0.0011   -0.0066   -0.0054    0.0045    0.0080   -0.0083    0.0092
          32   -0.0034    0.0122   -0.0177    0.0006   -0.0252    0.0028   -0.0177   -0.0140
          33   -0.0029    0.0089   -0.0170   -0.0011   -0.0234    0.0081    0.0217   -0.0066
          34    0.0047    0.0011    0.0043    0.0070   -0.0085   -0.0058   -0.0108    0.0077
          35    0.0005    0.0052   -0.0081   -0.0002   -0.0031    0.0006   -0.0037   -0.0021
          36    0.0069   -0.0071    0.0097    0.0016    0.0121   -0.0015    0.0520    0.0146
          37   -0.0038    0.0022   -0.0076   -0.0048    0.0045    0.0139    0.0083    0.0100
          38    0.0045    0.0023   -0.0035    0.0014    0.0067   -0.0032    0.0423    0.0126
          39    0.0003   -0.0073    0.0104   -0.0013    0.0054    0.0020   -0.0274   -0.0056
          40    0.0035   -0.0021    0.0074    0.0060   -0.0027    0.0005    0.0016    0.0084
          41   -0.0003   -0.0135    0.0199   -0.0022    0.0283   -0.0062   -0.0090    0.0028
          42    0.0010   -0.0070    0.0117    0.0007    0.0030   -0.0003   -0.0277   -0.0058
          43    0.0020   -0.0015    0.0008   -0.0096    0.0175    0.0603   -0.0029   -0.0128
          44   -0.0023   -0.0046    0.0072    0.0007    0.0052   -0.0103   -0.0089    0.0013
          45   -0.0069    0.0083   -0.0128   -0.0022   -0.0210    0.0124   -0.0053   -0.0036
          46   -0.0199   -0.0216    0.0048    0.0014   -0.0087    0.0024    0.0039   -0.0023
          47    0.0110   -0.0304    0.0013   -0.0104   -0.0091    0.0028    0.0020   -0.0058
          48   -0.0053   -0.0478   -0.0186    0.0093    0.0010   -0.0023   -0.0019    0.0048
          49   -0.0125    0.0454    0.0309   -0.0104   -0.0177    0.0061    0.0052   -0.0066
          50   -0.0208    0.0112    0.0028    0.0130   -0.0011    0.0025    0.0028   -0.0094
          51    0.0022   -0.0240   -0.0062    0.0010   -0.0095   -0.0005   -0.0039    0.0048
          52    0.0114    0.0300    0.0125    0.0025   -0.0066    0.0037    0.0055   -0.0286
          53   -0.0370    0.0335   -0.0033   -0.0090   -0.0003   -0.0087   -0.0228    0.0847
          54    0.0201    0.0340    0.0152   -0.0105    0.0374   -0.0049    0.0114   -0.0241
          55    0.0040    0.0260   -0.0009    0.0008    0.0127   -0.0031   -0.0024    0.0072
          56    0.0095    0.0053    0.0098   -0.0095   -0.0091    0.0018    0.0021   -0.0115
          57   -0.0257    0.0017    0.0126    0.0061   -0.0232    0.0056    0.0014   -0.0023
          58    0.0399   -0.0055    0.0415    0.0541   -0.0291    0.1206   -0.0408    0.0170
          59    0.0121   -0.0065    0.0028   -0.0028    0.0191   -0.0145   -0.0231   -0.0176
          60   -0.0043   -0.0047    0.0139    0.0049   -0.0046    0.0169    0.0418    0.0112
          61   -0.0008    0.0019   -0.0010    0.0147   -0.0110    0.0686   -0.0081    0.0450
          62    0.0150    0.0036   -0.0098    0.0021   -0.0127   -0.0029    0.0581   -0.0178
          63    0.0136    0.0035   -0.0046    0.0058    0.0087    0.0084   -0.0526   -0.0037
          64   -0.0224    0.0011   -0.0230   -0.0332    0.0284    0.1389   -0.0240    0.0428
          65   -0.0112   -0.0105    0.0218    0.0007    0.0002   -0.0242   -0.0248   -0.0061
          66    0.0043   -0.0046    0.0059   -0.0038    0.0232    0.0207   -0.0110    0.0059
          67   -0.0359    0.0050   -0.0470   -0.0560    0.0507    0.0504    0.0096   -0.0732
          68    0.0058    0.0105   -0.0098    0.0094   -0.0233   -0.0059   -0.0095    0.0049
          69   -0.0153    0.0092   -0.0233   -0.0117   -0.0254    0.0182    0.0072   -0.0289
          70    0.0077   -0.0007    0.0085    0.0036   -0.0021   -0.0557    0.0033   -0.0887
          71    0.0016   -0.0054    0.0095   -0.0001    0.0164    0.0021   -0.0480    0.0126
          72    0.0069   -0.0072    0.0102    0.0009    0.0121   -0.0100    0.0484   -0.0037
          73   -0.0212    0.0047   -0.0299   -0.0288    0.0258   -0.0407    0.0288   -0.0770
          74    0.0060    0.0069   -0.0075    0.0051   -0.0071    0.0059    0.0226    0.0174
          75   -0.0034    0.0033   -0.0080   -0.0044   -0.0118   -0.0032   -0.0447   -0.0301
          76    0.0015   -0.0011    0.0071    0.0146   -0.0173   -0.1500    0.0155   -0.0317
          77   -0.0041   -0.0124    0.0183   -0.0040    0.0229    0.0098   -0.0219    0.0044
          78    0.0069   -0.0068    0.0113    0.0036    0.0086   -0.0230   -0.0047   -0.0074
          79   -0.0200   -0.0287   -0.0115    0.0319    0.0289    0.0029    0.0104   -0.0122
          80    0.0539   -0.0449    0.0185   -0.1190   -0.0687   -0.0085   -0.0191    0.0313
          81   -0.0289   -0.0292   -0.0166    0.0522    0.0107    0.0039    0.0056   -0.0101
          82    0.0890    0.1239   -0.1193    0.0044    0.0286   -0.0133   -0.0164    0.0042
          83    0.0011    0.0080   -0.0120   -0.0032    0.0001   -0.0008   -0.0016    0.0008
          84    0.0087    0.0091   -0.0079    0.0025    0.0025   -0.0012   -0.0013    0.0001
          85   -0.0062   -0.0378   -0.0287    0.0444    0.0388    0.0000    0.0093   -0.0151
          86    0.0583   -0.0369    0.0185   -0.1236   -0.0631   -0.0056   -0.0227    0.0400
          87   -0.0317   -0.0001    0.0001    0.0416    0.0314    0.0012    0.0123   -0.0160
          88    0.0106   -0.0457   -0.0240    0.0052    0.0171   -0.0020    0.0002    0.0015
          89    0.0196   -0.0122   -0.0008   -0.0118    0.0084   -0.0013    0.0031   -0.0067
          90   -0.0027    0.0226    0.0063   -0.0028    0.0196   -0.0036    0.0005    0.0053
          91   -0.0032   -0.0138   -0.0259    0.0325    0.0181   -0.0005    0.0013   -0.0260
          92    0.0482   -0.0267    0.0121   -0.0678   -0.0494   -0.0056   -0.0264    0.0900
          93   -0.0350   -0.0121   -0.0019    0.0328   -0.0100    0.0074    0.0082   -0.0373
          94   -0.0013    0.0409    0.0312   -0.0048   -0.0112    0.0089    0.0124   -0.0347
          95   -0.0430    0.0267   -0.0063   -0.0024   -0.0092   -0.0094   -0.0215    0.0773
          96    0.0272    0.0042   -0.0076    0.0065    0.0110   -0.0017   -0.0004   -0.0192
          97   -0.0897   -0.0507   -0.0004   -0.0649   -0.0077   -0.0111    0.0094   -0.0033
          98   -0.0069    0.0000   -0.0057   -0.0052   -0.0011   -0.0006    0.0005   -0.0002
          99    0.0121    0.0094   -0.0047    0.0055    0.0024    0.0016   -0.0005    0.0001
         100    0.0267   -0.0704    0.1362    0.0226    0.0268    0.0168    0.0275   -0.0084
         101   -0.0028    0.0042   -0.0094   -0.0023   -0.0018   -0.0011   -0.0021    0.0006
         102    0.0068    0.0092   -0.0101    0.0003   -0.0001   -0.0010   -0.0011   -0.0001


   Root No.      33        34        35        36        37        38        39        40

                33 A      34 A      35 A      36 A      37 A      38 A      39 A      40 A   

                 815.6     842.9     853.9     878.0     892.1     897.0     921.6     948.5
  
           1   -0.0031   -0.0013    0.0042    0.0065   -0.0005   -0.0011    0.0030    0.0026
           2    0.0014   -0.0019    0.0007   -0.0011    0.0005   -0.0011   -0.0018   -0.0020
           3   -0.0009    0.0000    0.0010   -0.0020   -0.0007    0.0001    0.0009    0.0012
           4    0.0047   -0.0000   -0.0079   -0.0134    0.0022    0.0015   -0.0061   -0.0100
           5   -0.0125    0.0246   -0.0139    0.0097   -0.0154    0.0192    0.0294    0.0434
           6    0.0074    0.0006   -0.0100    0.0289    0.0137   -0.0038   -0.0166   -0.0254
           7    0.0101    0.0084   -0.0186   -0.0333   -0.0028    0.0109   -0.0079   -0.0041
           8    0.0006    0.0197   -0.0306   -0.0023    0.0004    0.0189   -0.0038   -0.0007
           9    0.0044   -0.0045   -0.0071    0.0411    0.0025    0.0014    0.0020   -0.0005
          10   -0.0060    0.0040   -0.0037   -0.0130   -0.0025    0.0019   -0.0014    0.0020
          11    0.0155   -0.0130    0.0142    0.0123    0.0027   -0.0059    0.0005   -0.0059
          12   -0.0059    0.0039   -0.0047    0.0170    0.0018    0.0020    0.0034    0.0033
          13    0.0025    0.0016    0.0031   -0.0270    0.0047   -0.0017   -0.0021   -0.0005
          14   -0.0080    0.0050   -0.0020   -0.0254   -0.0222    0.0037   -0.0021   -0.0006
          15    0.0014    0.0011    0.0081   -0.0420    0.0032   -0.0039   -0.0024   -0.0000
          16   -0.0171    0.0046    0.0203    0.0109    0.0025   -0.0107    0.0170    0.0085
          17    0.0029    0.0010   -0.0120    0.0124   -0.0006   -0.0040   -0.0021   -0.0001
          18    0.0004    0.0116   -0.0169    0.0179    0.0024    0.0240    0.0021    0.0033
          19    0.0020   -0.0161   -0.0059    0.0042   -0.0037   -0.0103   -0.0163   -0.0341
          20   -0.0029   -0.0065    0.0148   -0.0002    0.0006   -0.0088    0.0038    0.0052
          21    0.0023    0.0027   -0.0041   -0.0072    0.0026    0.0465   -0.0051   -0.0045
          22    0.0024   -0.0173   -0.0085   -0.0076    0.0019    0.0017   -0.0067    0.0054
          23   -0.0031   -0.0089    0.0243   -0.0071    0.0009    0.0071    0.0018   -0.0020
          24    0.0008   -0.0013   -0.0067    0.0046    0.0002   -0.0019   -0.0011    0.0007
          25    0.0070   -0.0135   -0.0156   -0.0102    0.0019   -0.0072    0.0081    0.0302
          26   -0.0003    0.0086   -0.0093   -0.0031   -0.0068   -0.0730    0.0002   -0.0057
          27    0.0014   -0.0007   -0.0078    0.0030   -0.0007   -0.0178    0.0018    0.0047
          28   -0.0010    0.0195    0.0123    0.0034   -0.0015   -0.0033    0.0174   -0.0205
          29   -0.0003   -0.0023   -0.0032   -0.0048   -0.0021   -0.0251   -0.0022    0.0035
          30   -0.0027   -0.0038    0.0146   -0.0074   -0.0003   -0.0014    0.0032   -0.0042
          31   -0.0127   -0.0028    0.0038    0.0072   -0.0002    0.0010   -0.0254    0.0083
          32   -0.0028   -0.0130    0.0239   -0.0147    0.0004    0.0028    0.0038   -0.0020
          33   -0.0057   -0.0104    0.0211   -0.0161   -0.0020   -0.0223   -0.0038    0.0006
          34   -0.0143   -0.0080    0.0040    0.0030    0.0009    0.0038   -0.0136    0.0135
          35    0.0019    0.0011   -0.0003    0.0010   -0.0001   -0.0007    0.0017   -0.0015
          36    0.0019    0.0123   -0.0216    0.0051   -0.0034   -0.0366   -0.0020    0.0031
          37   -0.0081   -0.0082   -0.0130   -0.0013    0.0010   -0.0005    0.0183   -0.0049
          38    0.0057    0.0153   -0.0233    0.0102   -0.0015   -0.0139   -0.0022    0.0008
          39   -0.0037   -0.0084    0.0097   -0.0058    0.0004    0.0015    0.0031   -0.0011
          40   -0.0079   -0.0074   -0.0091   -0.0051    0.0012    0.0100    0.0221   -0.0134
          41    0.0017   -0.0010    0.0054    0.0049    0.0065    0.0771   -0.0046    0.0016
          42   -0.0035   -0.0083    0.0112   -0.0048    0.0014    0.0154    0.0034   -0.0022
          43    0.0209    0.0019   -0.0040   -0.0024   -0.0007    0.0075   -0.0222    0.0106
          44   -0.0031   -0.0022    0.0037    0.0040    0.0025    0.0251    0.0027   -0.0012
          45    0.0030    0.0026   -0.0065    0.0040   -0.0006   -0.0026   -0.0037    0.0019
          46    0.0011   -0.0035    0.0027    0.0016   -0.0075   -0.0005   -0.0024   -0.0037
          47   -0.0058    0.0034    0.0019   -0.0107    0.0231   -0.0060    0.0015    0.0079
          48    0.0018    0.0011    0.0016   -0.0270   -0.0120    0.0016   -0.0038   -0.0035
          49    0.0022   -0.0082    0.0007    0.0566   -0.0019   -0.0010    0.0049    0.0011
          50   -0.0069    0.0026   -0.0051    0.0118    0.0242   -0.0015   -0.0004   -0.0015
          51    0.0032    0.0004   -0.0001   -0.0083   -0.0089    0.0014   -0.0004    0.0003
          52   -0.0274    0.0140   -0.0207   -0.0073   -0.0526    0.0158   -0.0026    0.0003
          53    0.0784   -0.0309    0.0467   -0.0173    0.1401   -0.0334    0.0004   -0.0005
          54   -0.0311    0.0141   -0.0061   -0.0530   -0.0566    0.0069   -0.0031   -0.0006
          55    0.0036    0.0005    0.0031   -0.0211   -0.0036   -0.0004   -0.0008    0.0025
          56   -0.0106    0.0060   -0.0091    0.0034    0.0021    0.0046   -0.0026   -0.0071
          57    0.0044   -0.0063    0.0002    0.0443    0.0031   -0.0012    0.0049    0.0035
          58    0.0051    0.0999    0.0564   -0.0189    0.0052    0.0039    0.0807    0.1713
          59   -0.0043   -0.0331    0.0222   -0.0054   -0.0042   -0.0419   -0.0082   -0.0245
          60    0.0027    0.0177    0.0053   -0.0092    0.0032    0.0442    0.0086    0.0236
          61   -0.0346    0.1351    0.1163    0.0352   -0.0101   -0.0041    0.0572   -0.0256
          62    0.0017   -0.0410    0.0119   -0.0091    0.0043    0.0174   -0.0084    0.0031
          63   -0.0082    0.0101    0.0333    0.0206    0.0019    0.0254    0.0102   -0.0047
          64   -0.0366    0.0792    0.0742    0.0481   -0.0184   -0.0257   -0.0559   -0.1486
          65    0.0069   -0.0042   -0.0279   -0.0158   -0.0053   -0.0869    0.0110    0.0242
          66   -0.0065    0.0091    0.0170    0.0172   -0.0005    0.0143   -0.0094   -0.0259
          67    0.0979    0.0012   -0.0425   -0.0383    0.0045    0.0255    0.1320   -0.0373
          68   -0.0172   -0.0067    0.0188    0.0010    0.0000    0.0035   -0.0205    0.0057
          69    0.0102   -0.0181    0.0276   -0.0350   -0.0019   -0.0269    0.0237   -0.0084
          70    0.1145    0.0638    0.0164   -0.0182   -0.0027    0.0220    0.0781   -0.0794
          71   -0.0155   -0.0064   -0.0102    0.0159    0.0027    0.0229   -0.0121    0.0127
          72    0.0235    0.0230   -0.0166    0.0005   -0.0038   -0.0312    0.0138   -0.0130
          73    0.1060    0.0882    0.0447    0.0221   -0.0074   -0.0033   -0.1077    0.0261
          74   -0.0112   -0.0021   -0.0232    0.0034   -0.0020   -0.0333    0.0150   -0.0033
          75    0.0128    0.0021    0.0287   -0.0076   -0.0047   -0.0453   -0.0167    0.0042
          76    0.0338    0.0625    0.0619    0.0398   -0.0027   -0.0034   -0.1196    0.0668
          77   -0.0043   -0.0104    0.0021   -0.0016    0.0079    0.0954    0.0104   -0.0058
          78    0.0057    0.0068    0.0132    0.0051   -0.0014   -0.0249   -0.0184    0.0081
          79   -0.0103    0.0018    0.0078   -0.0065    0.0529   -0.0137    0.0032    0.0119
          80    0.0267   -0.0082   -0.0066   -0.0015   -0.1711    0.0347   -0.0122   -0.0344
          81   -0.0092    0.0038    0.0023   -0.0233    0.0603   -0.0129    0.0007    0.0104
          82   -0.0023    0.0036   -0.0045    0.0298    0.0019   -0.0005    0.0055    0.0032
          83   -0.0001    0.0003   -0.0004    0.0015    0.0016   -0.0005   -0.0001   -0.0023
          84   -0.0001    0.0006   -0.0003    0.0030   -0.0006    0.0001    0.0008    0.0016
          85   -0.0112   -0.0051    0.0032    0.0326   -0.0594    0.0001    0.0096    0.0140
          86    0.0319    0.0052   -0.0008   -0.0214    0.1800   -0.0098   -0.0170   -0.0392
          87   -0.0126   -0.0040    0.0054    0.0061   -0.0670   -0.0001    0.0062    0.0138
          88    0.0024   -0.0034    0.0028    0.0245    0.0139   -0.0035    0.0024   -0.0027
          89   -0.0066   -0.0005    0.0015    0.0073   -0.0280   -0.0004    0.0047    0.0086
          90    0.0019    0.0001    0.0045   -0.0177    0.0102   -0.0028   -0.0019   -0.0036
          91   -0.0298    0.0218   -0.0257   -0.0321    0.0024    0.0133   -0.0099   -0.0154
          92    0.0898   -0.0465    0.0554    0.0359   -0.0145   -0.0245    0.0204    0.0419
          93   -0.0317    0.0153   -0.0263    0.0253    0.0086    0.0113   -0.0047   -0.0148
          94   -0.0264    0.0084   -0.0145    0.0393    0.0581   -0.0035    0.0007   -0.0020
          95    0.0762   -0.0415    0.0382    0.0338   -0.1535    0.0080    0.0101    0.0075
          96   -0.0267    0.0223   -0.0190   -0.0462    0.0519    0.0020   -0.0053   -0.0024
          97   -0.0173    0.0110    0.0096   -0.0010   -0.0097    0.0046    0.0227    0.0308
          98   -0.0017    0.0012    0.0012   -0.0011   -0.0009    0.0005    0.0025    0.0031
          99    0.0017   -0.0018   -0.0006    0.0005    0.0017   -0.0009   -0.0027   -0.0046
         100    0.0058   -0.0163    0.0161   -0.0062    0.0025   -0.0128   -0.0068   -0.0084
         101   -0.0006    0.0012   -0.0018    0.0007   -0.0004    0.0012    0.0005    0.0001
         102    0.0001    0.0011    0.0000    0.0006    0.0001    0.0007    0.0004    0.0028


   Root No.      41        42        43        44        45        46        47        48

                41 A      42 A      43 A      44 A      45 A      46 A      47 A      48 A   

                 963.0     991.1     998.5    1013.3    1018.4    1034.6    1042.9    1054.5
  
           1    0.0030    0.0066    0.0043   -0.0011    0.0008    0.0004   -0.0000    0.0048
           2   -0.0024   -0.0053   -0.0035    0.0012   -0.0005   -0.0002   -0.0007    0.0004
           3    0.0024    0.0049    0.0034   -0.0010    0.0008    0.0002    0.0007   -0.0016
           4   -0.0108   -0.0253   -0.0201    0.0054   -0.0018   -0.0038   -0.0020   -0.0093
           5    0.0621    0.1377    0.0998   -0.0295    0.0154    0.0096    0.0193   -0.0236
           6   -0.0536   -0.1266   -0.0925    0.0282   -0.0241   -0.0079   -0.0239    0.0455
           7    0.0014   -0.0018   -0.0000    0.0002    0.0007   -0.0009    0.0031   -0.0282
           8    0.0027   -0.0131   -0.0089    0.0025   -0.0020   -0.0017   -0.0017   -0.0170
           9   -0.0001    0.0048    0.0039   -0.0002    0.0017    0.0015   -0.0017    0.0271
          10    0.0109   -0.0018    0.0008   -0.0005    0.0014    0.0008   -0.0043    0.0004
          11   -0.0216    0.0114    0.0055   -0.0006    0.0002    0.0002    0.0117    0.0058
          12    0.0039   -0.0038   -0.0039   -0.0002   -0.0015   -0.0016   -0.0019   -0.0170
          13    0.0028    0.0008    0.0023    0.0110   -0.0027    0.0004   -0.0147    0.0079
          14   -0.0031   -0.0041   -0.0052   -0.0302    0.0087    0.0008    0.0374    0.0072
          15    0.0041    0.0032    0.0041    0.0107   -0.0024    0.0002   -0.0137   -0.0032
          16   -0.0085   -0.0016   -0.0093    0.0003   -0.0081   -0.0040   -0.0006    0.0073
          17    0.0071    0.0060    0.0069   -0.0017    0.0037    0.0023   -0.0017    0.0134
          18    0.0040    0.0027    0.0021   -0.0008    0.0007    0.0010   -0.0026    0.0224
          19    0.0109   -0.0033    0.0103    0.0047    0.0285    0.0056   -0.0007   -0.0013
          20   -0.0037    0.0003   -0.0021   -0.0006   -0.0049   -0.0008   -0.0004    0.0073
          21    0.0028   -0.0039   -0.0008    0.0012    0.0030   -0.0002    0.0008   -0.0171
          22    0.0026    0.0084   -0.0064   -0.0123   -0.0446   -0.0099    0.0008    0.0022
          23   -0.0026   -0.0010    0.0010    0.0021    0.0079    0.0017    0.0002    0.0009
          24    0.0020    0.0029    0.0004   -0.0024   -0.0066   -0.0011   -0.0003    0.0048
[...]
 EFF. MASS   5.2101

 VIBRATION   55   55A       ATOM PAIR        ENERGY CONTRIBUTION    RADIAL
 FREQ.      1218.39        C 12 --  H 24          +14.8% ( 55.6%)     0.8%
 T-DIPOLE    0.1708        C 10 --  C 11           +8.0% ( 40.8%)    83.0%
 TRAVEL      0.1004        C 13 --  H 25           +7.4% ( 39.3%)     2.1%
 RED. MASS   0.3296        C  9 --  C 10           +7.3% ( 38.9%)    50.6%
 EFF. MASS   5.4922

 VIBRATION   56   56A       ATOM PAIR        ENERGY CONTRIBUTION    RADIAL
 FREQ.      1221.74        C 19 --  H 31          +45.6% ( 83.3%)     0.0%
 T-DIPOLE    0.2522        C  5 --  C 30          +10.2% ( 39.5%)    99.9%
 TRAVEL      0.1217        C 16 --  C 17          +10.1% ( 39.3%)   100.0%
 RED. MASS   0.5999        C 16 --  H 27           +7.2% ( 33.0%)    99.0%
 EFF. MASS   3.7282

 VIBRATION   57   57A       ATOM PAIR        ENERGY CONTRIBUTION    RADIAL
 FREQ.      1237.46        C 13 --  H 25          +26.8% ( 61.9%)     0.1%
 T-DIPOLE    0.1630        C  9 --  H 22           +9.8% ( 37.3%)     0.1%
 TRAVEL      0.1351        C  8 --  H 21           +9.2% ( 36.1%)     1.6%
 RED. MASS   0.2431        C 14 --  H 26           +7.4% ( 32.6%)     6.8%
 EFF. MASS   2.9857

 VIBRATION   58   58A       ATOM PAIR        ENERGY CONTRIBUTION    RADIAL
 FREQ.      1254.65        H  2 --  N  3          +27.5% ( 63.5%)     2.5%
 T-DIPOLE    0.2606        C  1 --  H  2          +25.3% ( 60.8%)     4.4%
 TRAVEL      0.1580        C  7 --  H 20           +7.2% ( 32.5%)     0.2%
 RED. MASS   0.2036        C  8 --  H 21           +7.2% ( 32.5%)     1.2%
 EFF. MASS   2.1539

 VIBRATION   59   59A       ATOM PAIR        ENERGY CONTRIBUTION    RADIAL
 FREQ.      1257.42        C 12 --  H 24          +19.4% ( 54.2%)     0.1%
 T-DIPOLE    0.2131        C  7 --  H 20           +9.9% ( 38.8%)     0.7%
 TRAVEL      0.1164        C 11 --  H 23           +9.1% ( 37.1%)     1.0%
 RED. MASS   0.3292        C 10 --  C 15           +8.4% ( 35.7%)    46.3%
 EFF. MASS   3.9580

 VIBRATION   60   60A       ATOM PAIR        ENERGY CONTRIBUTION    RADIAL
 FREQ.      1274.85        C 16 --  H 27          +27.5% ( 52.4%)     0.5%
 T-DIPOLE    0.0688        H 29 --  C 30          +22.1% ( 46.9%)     0.2%
 TRAVEL      0.1977        C 17 --  H 32          +18.9% ( 43.3%)     0.2%
 RED. MASS   0.2083        C  5 --  H 18          +16.6% ( 40.7%)     0.1%
 EFF. MASS   1.3533

 VIBRATION   61   61A       ATOM PAIR        ENERGY CONTRIBUTION    RADIAL
 FREQ.      1298.93        C  1 --  H 28          +43.7% ( 62.0%)     1.6%
 T-DIPOLE    0.6497        C  1 --  H 34          +38.2% ( 57.9%)     2.6%
 TRAVEL      0.1629        C  1 --  H  2           +7.4% ( 25.6%)     0.5%
 RED. MASS   0.4808        C  1 --  H 33           +4.6% ( 20.1%)    89.1%
 EFF. MASS   1.9568

 VIBRATION   62   62A       ATOM PAIR        ENERGY CONTRIBUTION    RADIAL
 FREQ.      1306.07        C  1 --  H 33          +18.5% ( 47.2%)     0.0%
 T-DIPOLE    0.5560        C  7 --  H 20           +7.9% ( 30.9%)     0.1%
 TRAVEL      0.1349        C  9 --  H 22           +7.6% ( 30.2%)     2.6%
 RED. MASS   0.2030        C  1 --  H  2           +7.0% ( 29.0%)     1.0%
 EFF. MASS   2.8364

 VIBRATION   63   63A       ATOM PAIR        ENERGY CONTRIBUTION    RADIAL
 FREQ.      1310.43        C  1 --  H 33          +12.1% ( 39.9%)     0.0%
 T-DIPOLE    0.6542        C  9 --  H 22           +9.8% ( 35.9%)     3.9%
 TRAVEL      0.1278        C  9 --  C 10           +8.2% ( 32.7%)    99.4%
 RED. MASS   0.2330        C  1 --  H  2           +7.7% ( 31.8%)     1.2%
 EFF. MASS   3.1497

 VIBRATION   64   64A       ATOM PAIR        ENERGY CONTRIBUTION    RADIAL
 FREQ.      1329.46        C  5 --  H 18           +9.1% ( 39.1%)    10.1%
 T-DIPOLE    0.1779        C  8 --  H 21           +8.3% ( 37.2%)     1.5%
 TRAVEL      0.0931        C  5 --  C 30           +7.7% ( 36.0%)    93.0%
 RED. MASS   0.3135        N  3 --  C  6           +5.8% ( 31.3%)    98.9%
 EFF. MASS   5.8542

 VIBRATION   65   65A       ATOM PAIR        ENERGY CONTRIBUTION    RADIAL
 FREQ.      1336.98        C 17 --  H 32          +10.4% ( 42.3%)     6.8%
 T-DIPOLE    0.3618        C 16 --  C 17           +9.7% ( 40.7%)    94.1%
 TRAVEL      0.0939        C  5 --  H 18           +6.9% ( 34.4%)     1.1%
 RED. MASS   0.3574        C  5 --  C 19           +6.7% ( 33.8%)    99.5%
 EFF. MASS   5.7230

 VIBRATION   66   66A       ATOM PAIR        ENERGY CONTRIBUTION    RADIAL
 FREQ.      1352.86        C 14 --  H 26          +25.6% ( 58.2%)     1.5%
 T-DIPOLE    0.2434        C 11 --  H 23          +12.4% ( 40.5%)     0.2%
 TRAVEL      0.1162        C  6 --  C 15           +7.7% ( 31.9%)     1.3%
 RED. MASS   0.2856        C  9 --  H 22           +6.5% ( 29.2%)     1.1%
 EFF. MASS   3.6920

 VIBRATION   67   67A       ATOM PAIR        ENERGY CONTRIBUTION    RADIAL
 FREQ.      1376.06        C 16 --  H 27          +15.2% ( 45.4%)     0.0%
 T-DIPOLE    0.1567        H 29 --  C 30          +14.6% ( 44.6%)     0.2%
 TRAVEL      0.1223        C 17 --  H 32          +10.1% ( 37.0%)     0.6%
 RED. MASS   0.4054        C 19 --  H 31           +8.1% ( 33.2%)     0.7%
 EFF. MASS   3.2756

 VIBRATION   68   68A       ATOM PAIR        ENERGY CONTRIBUTION    RADIAL
 FREQ.      1406.33        N  3 --  C  4          +19.8% ( 64.2%)    97.8%
 T-DIPOLE    1.0601        C  4 --  C 16           +8.1% ( 41.0%)    11.2%
 TRAVEL      0.0689        C  4 --  C 30           +7.8% ( 40.4%)    24.7%
 RED. MASS   1.2349        N  3 --  C  6           +6.8% ( 37.6%)    24.2%
 EFF. MASS  10.1016

 VIBRATION   69   69A       ATOM PAIR        ENERGY CONTRIBUTION    RADIAL
 FREQ.      1417.24        C  6 --  C  7          +10.7% ( 44.5%)    70.9%
 T-DIPOLE    0.5478        C  6 --  C 15           +9.6% ( 42.2%)    97.1%
 TRAVEL      0.0764        C  7 --  H 20           +8.4% ( 39.5%)     9.3%
 RED. MASS   0.7231        N  3 --  C  6           +8.3% ( 39.3%)    23.6%
 EFF. MASS   8.1415

 VIBRATION   70   70A       ATOM PAIR        ENERGY CONTRIBUTION    RADIAL
 FREQ.      1434.90        C  6 --  C  7          +12.9% ( 52.1%)    72.1%
 T-DIPOLE    1.1441        C  9 --  C 10          +10.0% ( 45.9%)    88.2%
 TRAVEL      0.0703        C 10 --  C 11           +8.3% ( 41.9%)    71.7%
 RED. MASS   1.0304        N  3 --  C  6           +8.1% ( 41.2%)    99.5%
 EFF. MASS   9.5145

 VIBRATION   71   71A       ATOM PAIR        ENERGY CONTRIBUTION    RADIAL
 FREQ.      1458.57        N  3 --  C  6          +12.6% ( 51.7%)    86.1%
 T-DIPOLE    1.6642        C  6 --  C 15          +11.8% ( 50.0%)    37.2%
 TRAVEL      0.0664        C 14 --  C 15          +11.0% ( 48.1%)    96.5%
 RED. MASS   1.3108        C 11 --  C 12           +8.3% ( 41.8%)    99.5%
 EFF. MASS  10.4920

 VIBRATION   72   72A       ATOM PAIR        ENERGY CONTRIBUTION    RADIAL
 FREQ.      1489.97        C  7 --  C  8          +11.1% ( 44.7%)   100.0%
 T-DIPOLE    0.4642        C 12 --  C 13           +8.4% ( 38.7%)    98.5%
 TRAVEL      0.0727        C 11 --  H 23           +8.1% ( 38.2%)     0.1%
 RED. MASS   0.7513        C 11 --  C 12           +7.6% ( 36.9%)    15.2%
 EFF. MASS   8.5612

 VIBRATION   73   73A       ATOM PAIR        ENERGY CONTRIBUTION    RADIAL
 FREQ.      1532.82        C 10 --  C 15          +15.6% ( 55.6%)    12.7%
 T-DIPOLE    0.9562        C  6 --  C 15          +13.4% ( 51.5%)    98.9%
 TRAVEL      0.0663        C 14 --  C 15          +11.9% ( 48.5%)    84.7%
 RED. MASS   1.3146        C 10 --  C 11           +7.4% ( 38.3%)    95.6%
 EFF. MASS  10.0072

 VIBRATION   74   74A       ATOM PAIR        ENERGY CONTRIBUTION    RADIAL
 FREQ.      1542.94        C  5 --  C 30          +11.9% ( 47.6%)   100.0%
 T-DIPOLE    0.3028        C 16 --  C 17          +11.1% ( 46.0%)    99.8%
 TRAVEL      0.0673        C  4 --  C 30          +10.5% ( 44.8%)    24.2%
 RED. MASS   1.2716        C  5 --  C 19          +10.3% ( 44.4%)    20.2%
 EFF. MASS   9.6455        C  4 --  C 16          +10.3% ( 44.3%)    29.8%
                           C 17 --  C 19          +10.1% ( 43.9%)    21.6%

 VIBRATION   75   75A       ATOM PAIR        ENERGY CONTRIBUTION    RADIAL
 FREQ.      1563.26        C  4 --  C 16          +14.5% ( 52.9%)    63.3%
 T-DIPOLE    1.9244        C  4 --  C 30          +14.3% ( 52.6%)    55.5%
 TRAVEL      0.0663        N  3 --  C  4          +10.7% ( 45.4%)    98.9%
 RED. MASS   1.2188        C 17 --  C 19           +6.1% ( 34.3%)    74.0%
 EFF. MASS   9.8066

 VIBRATION   76   76A       ATOM PAIR        ENERGY CONTRIBUTION    RADIAL
 FREQ.      1582.00        C  7 --  C  8          +11.4% ( 47.3%)    98.8%
 T-DIPOLE    1.0851        C  9 --  C 10          +11.2% ( 46.8%)    99.4%
 TRAVEL      0.0621        C 10 --  C 11           +8.5% ( 40.9%)    73.4%
 RED. MASS   1.2524        C 10 --  C 15           +7.9% ( 39.3%)    64.1%
 EFF. MASS  11.0537

 VIBRATION   77   77A       ATOM PAIR        ENERGY CONTRIBUTION    RADIAL
 FREQ.      1636.61        C 10 --  C 15          +19.6% ( 63.2%)    94.9%
 T-DIPOLE    0.3052        C 14 --  C 15          +10.0% ( 45.2%)    48.4%
 TRAVEL      0.0590        C  6 --  C 15           +9.4% ( 43.9%)     4.9%
 RED. MASS   1.9763        C 12 --  C 13           +9.2% ( 43.3%)    99.4%
 EFF. MASS  11.8539

 VIBRATION   78   78A       ATOM PAIR        ENERGY CONTRIBUTION    RADIAL
 FREQ.      1665.55        C  8 --  C  9          +21.2% ( 65.1%)    98.9%
 T-DIPOLE    0.5307        C  9 --  C 10          +11.5% ( 48.0%)    37.6%
 TRAVEL      0.0587        C  6 --  C  7          +10.6% ( 46.0%)    98.5%
 RED. MASS   2.0470        C  7 --  C  8           +9.4% ( 43.4%)     2.2%
 EFF. MASS  11.7422

 VIBRATION   79   79A       ATOM PAIR        ENERGY CONTRIBUTION    RADIAL
 FREQ.      1687.90        C 17 --  C 19          +15.6% ( 55.0%)    88.2%
 T-DIPOLE    1.1084        C  5 --  C 19          +15.4% ( 54.7%)    85.7%
 TRAVEL      0.0579        C  4 --  C 30          +14.8% ( 53.6%)    91.3%
 RED. MASS   2.4737        C  4 --  C 16          +13.3% ( 50.9%)    84.5%
 EFF. MASS  11.9096

 VIBRATION   80   80A       ATOM PAIR        ENERGY CONTRIBUTION    RADIAL
 FREQ.      1705.24        C 16 --  C 17          +18.4% ( 60.1%)    99.9%
 T-DIPOLE    2.1750        C  5 --  C 30          +17.6% ( 58.7%)    99.2%
 TRAVEL      0.0576        C  5 --  C 19          +10.5% ( 45.4%)    51.9%
 RED. MASS   2.5106        C 17 --  C 19           +9.9% ( 44.0%)    40.4%
 EFF. MASS  11.9384

 VIBRATION   81   81A       ATOM PAIR        ENERGY CONTRIBUTION    RADIAL
 FREQ.      1709.55        C 11 --  C 12          +20.7% ( 63.8%)    98.2%
 T-DIPOLE    0.2164        C 13 --  C 14          +17.3% ( 58.3%)    97.1%
 TRAVEL      0.0577        C 12 --  C 13          +11.6% ( 47.9%)     0.2%
 RED. MASS   2.4218        C 10 --  C 11           +9.3% ( 42.8%)    60.6%
 EFF. MASS  11.8271

 VIBRATION   82   82A       ATOM PAIR        ENERGY CONTRIBUTION    RADIAL
 FREQ.      2706.07        C  1 --  H 28          +68.1% ( 85.2%)    99.7%
 T-DIPOLE    0.5596        C  1 --  H 33          +18.9% ( 44.9%)    87.2%
 TRAVEL      0.1273        C  1 --  H 34          +11.9% ( 35.7%)    78.6%
 RED. MASS   0.5492        C  1 --  H  2           +1.1% ( 10.6%)     0.0%
 EFF. MASS   1.5372

 VIBRATION   83   83A       ATOM PAIR        ENERGY CONTRIBUTION    RADIAL
 FREQ.      2713.16        C  1 --  H 34          +53.8% ( 75.7%)    98.4%
 T-DIPOLE    0.6216        C  1 --  H 33          +43.9% ( 68.4%)    97.1%
 TRAVEL      0.1269        C  1 --  H 28           +1.2% ( 11.3%)     5.6%
 RED. MASS   0.5200        C  1 --  H  2           +1.1% ( 10.7%)     0.1%
 EFF. MASS   1.5425

 VIBRATION   84   84A       ATOM PAIR        ENERGY CONTRIBUTION    RADIAL
 FREQ.      2741.09        C 14 --  H 26          +88.7% ( 95.2%)   100.0%
 T-DIPOLE    0.7371        C 13 --  H 25           +7.2% ( 27.1%)    99.6%
 TRAVEL      0.1336        C 11 --  H 23           +1.0% ( 10.0%)    99.9%
 RED. MASS   0.7699        C 14 --  C 15           +1.0% (  9.9%)    15.7%
 EFF. MASS   1.3774

 VIBRATION   85   85A       ATOM PAIR        ENERGY CONTRIBUTION    RADIAL
 FREQ.      2746.45        C  7 --  H 20          +74.9% ( 87.4%)   100.0%
 T-DIPOLE    0.4285        C  8 --  H 21          +19.6% ( 44.7%)    99.9%
 TRAVEL      0.1339        C  9 --  H 22           +1.5% ( 12.4%)    99.1%
 RED. MASS   0.5818        C 16 --  H 27           +1.0% ( 10.2%)   100.0%
 EFF. MASS   1.3691

 VIBRATION   86   86A       ATOM PAIR        ENERGY CONTRIBUTION    RADIAL
 FREQ.      2750.01        C 16 --  H 27          +33.3% ( 58.5%)   100.0%
 T-DIPOLE    0.4756        C 17 --  H 32          +29.0% ( 54.5%)   100.0%
 TRAVEL      0.1335        C  5 --  H 18          +16.2% ( 40.8%)   100.0%
 RED. MASS   0.2320        H 29 --  C 30          +11.2% ( 33.9%)   100.0%
 EFF. MASS   1.3758

 VIBRATION   87   87A       ATOM PAIR        ENERGY CONTRIBUTION    RADIAL
 FREQ.      2753.56        C 11 --  H 23          +29.2% ( 54.6%)   100.0%
 T-DIPOLE    0.4855        C 12 --  H 24          +23.2% ( 48.7%)   100.0%
 TRAVEL      0.1343        C  9 --  H 22          +14.9% ( 39.0%)   100.0%
 RED. MASS   0.1708        H 29 --  C 30           +7.3% ( 27.3%)   100.0%
 EFF. MASS   1.3584

 VIBRATION   88   88A       ATOM PAIR        ENERGY CONTRIBUTION    RADIAL
 FREQ.      2753.82        H 29 --  C 30          +27.1% ( 52.6%)   100.0%
 T-DIPOLE    0.3328        C  5 --  H 18          +22.3% ( 47.7%)   100.0%
 TRAVEL      0.1345        C 16 --  H 27          +19.8% ( 45.0%)   100.0%
 RED. MASS   0.1760        C 11 --  H 23           +8.8% ( 29.9%)   100.0%
 EFF. MASS   1.3532

 VIBRATION   89   89A       ATOM PAIR        ENERGY CONTRIBUTION    RADIAL
 FREQ.      2755.26        C  9 --  H 22          +31.1% ( 56.3%)   100.0%
 T-DIPOLE    0.6115        C  8 --  H 21          +26.9% ( 52.4%)    99.9%
 TRAVEL      0.1340        C 12 --  H 24          +17.1% ( 41.7%)   100.0%
 RED. MASS   0.2109        C  7 --  H 20          +12.1% ( 35.1%)    99.8%
 EFF. MASS   1.3621

 VIBRATION   90   90A       ATOM PAIR        ENERGY CONTRIBUTION    RADIAL
 FREQ.      2760.07        C 13 --  H 25          +25.6% ( 51.0%)   100.0%
 T-DIPOLE    0.4937        C 11 --  H 23          +18.7% ( 43.6%)   100.0%
 TRAVEL      0.1333        C 17 --  H 32          +17.5% ( 42.3%)    99.9%
 RED. MASS   0.1586        C 16 --  H 27          +13.9% ( 37.7%)    99.9%
 EFF. MASS   1.3748

 VIBRATION   91   91A       ATOM PAIR        ENERGY CONTRIBUTION    RADIAL
 FREQ.      2760.34        C 17 --  H 32          +20.8% ( 46.1%)    99.9%
 T-DIPOLE    1.1476        C 16 --  H 27          +19.6% ( 44.7%)    99.9%
 TRAVEL      0.1332        C 13 --  H 25          +17.0% ( 41.6%)   100.0%
 RED. MASS   0.1475        C 11 --  H 23          +15.3% ( 39.5%)   100.0%
 EFF. MASS   1.3762        C 19 --  H 31          +11.5% ( 34.3%)    99.9%

 VIBRATION   92   92A       ATOM PAIR        ENERGY CONTRIBUTION    RADIAL
 FREQ.      2761.44        H 29 --  C 30          +43.2% ( 66.3%)   100.0%
 T-DIPOLE    0.7546        C  5 --  H 18          +30.8% ( 55.9%)    99.9%
 TRAVEL      0.1334        C 19 --  H 31          +16.4% ( 40.8%)    99.9%
 RED. MASS   0.3019        C 17 --  H 32           +5.1% ( 22.7%)    99.9%
 EFF. MASS   1.3721

 VIBRATION   93   93A       ATOM PAIR        ENERGY CONTRIBUTION    RADIAL
 FREQ.      2765.10        C  9 --  H 22          +39.9% ( 63.7%)   100.0%
 T-DIPOLE    1.5252        C  8 --  H 21          +33.2% ( 58.2%)   100.0%
 TRAVEL      0.1313        C 13 --  H 25          +12.4% ( 35.6%)   100.0%
 RED. MASS   0.2821        C 12 --  H 24           +4.8% ( 22.2%)    99.8%
 EFF. MASS   1.4144

 VIBRATION   94   94A       ATOM PAIR        ENERGY CONTRIBUTION    RADIAL
 FREQ.      2769.13        C 12 --  H 24          +22.8% ( 47.1%)   100.0%
 T-DIPOLE    1.1085        C 13 --  H 25          +15.4% ( 38.7%)   100.0%
 TRAVEL      0.1387        C  1 --  H 33          +15.2% ( 38.4%)    98.8%
 RED. MASS   0.1457        C  1 --  H 34          +13.4% ( 36.1%)    98.5%
 EFF. MASS   1.2656        C 11 --  H 23          +12.7% ( 35.2%)   100.0%
                           C  1 --  H 28          +12.1% ( 34.3%)    98.2%

 VIBRATION   95   95A       ATOM PAIR        ENERGY CONTRIBUTION    RADIAL
 FREQ.      2770.22        C 19 --  H 31          +14.8% ( 38.1%)   100.0%
 T-DIPOLE    1.4402        C 12 --  H 24          +13.1% ( 35.9%)   100.0%
 TRAVEL      0.1370        C  1 --  H 33          +12.5% ( 34.9%)    98.8%
 RED. MASS   0.1009        C  1 --  H 34          +11.5% ( 33.5%)    98.5%
 EFF. MASS   1.2960        C 13 --  H 25          +11.1% ( 33.0%)   100.0%

 VIBRATION   96   96A       ATOM PAIR        ENERGY CONTRIBUTION    RADIAL
 FREQ.      2773.95        C 19 --  H 31          +37.8% ( 61.5%)   100.0%
 T-DIPOLE    0.6213        C  5 --  H 18          +15.0% ( 38.7%)   100.0%
 TRAVEL      0.1327        C 17 --  H 32          +11.8% ( 34.4%)   100.0%
 RED. MASS   0.1853        H 29 --  C 30           +6.2% ( 24.9%)   100.0%
 EFF. MASS   1.3800

           FORCE CONSTANT IN INTERNAL COORDINATES (Millidynes/A)

    ATOM   CHEMICAL  BOND LENGTH      BOND ANGLE     TWIST ANGLE
   NUMBER   SYMBOL  FORCE CONSTANT  FORCE CONSTANT  FORCE CONSTANT

      1       C        0.000000        0.000000        0.000000
      2       H       -0.065088        0.000000        0.000000
      3       N        0.135772        0.174977        0.000000
      4       C        7.591037        1.455686        0.779557
      5       C       14.972194       53.288884        1.374084
      6       C        7.467884        1.464458        0.666520
      7       C        9.867294        2.288936        0.220983
      8       C       10.970846       16.877578        0.661197
      9       C       17.340913       47.888424        2.405171
     10       C       10.457598       48.182125        3.712032
     11       C       10.844159       18.386722        1.468510
     12       C       18.619592       51.213948        2.383020
     13       C       10.653148       49.203033        3.615024
     14       C       10.920983       15.737816        1.868335
     15       C       11.099295       21.993360        3.713621
     16       C       11.305962       54.483577        1.523760
     17       C       10.414771       17.513426        1.990710
     18       H        4.263480        1.099683        0.116836
     19       C       10.159680       17.719969        2.277156
     20       H        4.231273        1.150979        0.330389
     21       H        4.259239        1.099903        0.347555
     22       H        4.265711        1.118950        0.317685
     23       H        4.263581        1.122368        0.339367
     24       H        4.268637        1.093724        0.335761
     25       H        4.270371        1.094085        0.343040
     26       H        4.210884        1.176472        0.336173
     27       H        4.251006        1.123740        0.349581
     28       H        4.119459        0.404416        0.656767
     29       H        8.853641       17.069219        0.610394
     30       C        9.742433       13.315540        0.858752
     31       H        4.284794        1.091929        0.339995
     32       H        4.261829        1.097397        0.351824
     33       H        4.143164        0.415993        0.641070
     34       H        4.139578        0.384059        0.653979

 **********************
 *                    *
 * JOB ENDED NORMALLY *
 *                    *
 **********************



 TOTAL JOB TIME:             6.07 SECONDS

 == MOPAC DONE ==
