 *******************************************************************************
 ** Site#: 23746        For non-commercial use only     Version 16.175W 64BITS**
 *******************************************************************************
 ** Cite this program as: MOPAC2016, Version: 16.175W, James J. P. Stewart,   **
 ** Stewart Computational Chemistry, web: HTTP://OpenMOPAC.net. Days left: 334**
 *******************************************************************************
 **                                                                           **
 **                                MOPAC2016                                  **
 **                                                                           **
 *******************************************************************************

                              PM7 CALCULATION RESULTS


 *******************************************************************************
 *  CALCULATION DONE:                                Mon Jul 25 11:46:40 2016  *
 *  START_RES- STARTING RESIDUE NUMBERS DEFINED
 *  Keyword:   START_RES=(1A) 
 *  CHAIN      - PDB CHAIN LETTERS EXPLICITLY DEFINED
 *  Keyword:   CHAINS=(A) 
 *  IRC=N      - INTRINSIC REACTION COORDINATE  1 DEFINED
 *  RESTART    - CALCULATION RESTARTED
 *  FORCE      - FORCE CALCULATION SPECIFIED
 *  T=         - A TIME OF 172800.0 SECONDS REQUESTED
 *  DUMP=N     - RESTART FILE WRITTEN EVERY  7200.000 SECONDS
 *  HTML       - WRITE HTML SCRIPT TO GENERATE ANIMATION USING JSMOL
 *             - TO DISPLAY IN PDB FORMAT, ADD "PDBOUT"
 *  X-PRIOR    - GEOMETRY CHANGES TAKE PRIORITY IN DRC
 *******************************************************************************
START_RES=(1A)  CHAINS=(A) FORCE IRC=1* restart HTML x-priority=0.2


   ATOM                 CHEMICAL                   X               Y               Z
  NUMBER                 SYMBOL               (ANGSTROMS)     (ANGSTROMS)     (ANGSTROMS)
 
     1       C(HETATM    1  C   HET A   1)    0.00000000      0.00000000      0.00000000   
     2       H(HETATM   28  H   HET A   1)    1.41737034      0.00000000      0.00000000   
     3       N(HETATM    2  N   HET A   1)    2.60033773      0.39616285      0.00000000   
     4       C(HETATM    3  C   HET A   1)    3.19524630      0.28826297     -1.27683714   
     5       C(HETATM    4  C   HET A   1)    3.14189472     -0.56834421     -3.53559195   
     6       C(HETATM    5  C   HET A   1)    2.70545466      1.60290929      0.71084427   
     7       C(HETATM    6  C   HET A   1)    2.99288637      2.82626818      0.11180361   
     8       C(HETATM    7  C   HET A   1)    3.07251021      3.99886632      0.88512190   
     9       C(HETATM    8  C   HET A   1)    2.84015814      3.96004857      2.24126012   
    10       C(HETATM    9  C   HET A   1)    2.53381241      2.72954026      2.88393707   
    11       C(HETATM   10  C   HET A   1)    2.28880969      2.68095149      4.28218907   
    12       C(HETATM   11  C   HET A   1)    2.00636197      1.48584406      4.90019849   
    13       C(HETATM   12  C   HET A   1)    1.96842877      0.28865575      4.15002464   
    14       C(HETATM   13  C   HET A   1)    2.20077616      0.31150732      2.79427218   
    15       C(HETATM   14  C   HET A   1)    2.47270264      1.53409096      2.12937546   
    16       C(HETATM   15  C   HET A   1)    4.53136324      0.68535844     -1.46303269   
    17       C(HETATM   16  C   HET A   1)    5.15479594      0.45130400     -2.68223536   
    18       H(HETATM   17  H   HET A   1)    2.60360058     -1.05997845     -4.34469141   
    19       C(HETATM   18  C   HET A   1)    4.46407995     -0.17085601     -3.72235885   
    20       H(HETATM   19  H   HET A   1)    3.15059323      2.88952269     -0.96426606   
    21       H(HETATM   20  H   HET A   1)    3.31167892      4.93993508      0.39052294   
    22       H(HETATM   21  H   HET A   1)    2.88912003      4.86686563      2.83973874   
    23       H(HETATM   22  H   HET A   1)    2.33141141      3.60599399      4.85342246   
    24       H(HETATM   23  H   HET A   1)    1.81657807      1.44583379      5.97103228   
    25       H(HETATM   24  H   HET A   1)    1.75994671     -0.64945312      4.66026821   
    26       H(HETATM   25  H   HET A   1)    2.19556907     -0.61522984      2.21667425   
    27       H(HETATM   26  H   HET A   1)    5.07581850      1.15645188     -0.64634884   
    28       H(HETATM   27  H   HET A   1)   -0.19769498      0.35206620      0.99189752   
    29       H(HETATM   29  H   HET A   1)    1.46894456     -0.65374316     -2.18525901   
    30       C(HETATM   30  C   HET A   1)    2.50135654     -0.34202168     -2.32137714   
    31       H(HETATM   31  H   HET A   1)    4.95716510     -0.34797500     -4.67423227   
    32       H(HETATM   32  H   HET A   1)    6.19089854      0.75586607     -2.82524841   
    33       H(HETATM   33  H   HET A   1)   -0.25392200      0.67448543     -0.78906838   
    34       H(HETATM   34  H   HET A   1)   -0.19089452     -1.03684344     -0.17797098   
 

 General Reference for PM7:
 "Optimization of Parameters for Semiempirical Methods VI: More Modifications to the 
 NDDO Approximations and Re-optimization of Parameters", J. J. P. Stewart, J. Mol. Mod., 1:32, 19 (2013)
 http://www.springerlink.com/openurl.asp?genre=article&id=doi:10.1007/s00894-012-1667-x

           Empirical Formula: C17 H16 N  =    34 atoms



      MOLECULAR POINT GROUP   :   C1  


          UHF CALCULATION, NO. OF ALPHA ELECTRONS =   45
                           NO. OF BETA  ELECTRONS =   44

          MOLECULAR WEIGHT =  234.32


          TIME USED UP TO RESTART =                  5.64

    FOR POINT-GROUP C1   THERE ARE   1 UNIQUE SYMMETRY FUNCTIONS.

           INITIAL VELOCITY IN DRC (Angstroms/Femtosecond)
        -0.04334         0.00004         0.00056
         0.67104         0.10018         0.00449
        -0.02334        -0.01274        -0.00610
         0.00146        -0.00201        -0.00086
         0.00037        -0.00001        -0.00005
        -0.00018         0.01477         0.00555
        -0.00135        -0.00790         0.00162
        -0.00026         0.00058         0.00451
         0.00030        -0.00008        -0.00244
         0.00045         0.00021        -0.00171
        -0.00041        -0.00149         0.00143
         0.00022         0.00193        -0.00042
         0.00013        -0.00075        -0.00220
        -0.00091        -0.00068         0.00213
         0.00103         0.00209        -0.00153
         0.00001        -0.00035         0.00014
        -0.00058         0.00030         0.00037
         0.00047         0.00025         0.00037
        -0.00035        -0.00022        -0.00039
         0.00179        -0.00086         0.00384
        -0.00025        -0.00177         0.00014
         0.00026        -0.00233        -0.00077
         0.00042        -0.00015        -0.00059
         0.00036        -0.00030        -0.00050
         0.00114         0.00105         0.00003
         0.00416         0.00085         0.00409
        -0.00211        -0.00006         0.00105
         0.05549         0.00556         0.01319
         0.00592        -0.00174        -0.00356
        -0.00051         0.00018        -0.00026
        -0.00072        -0.00010         0.00116
        -0.00042        -0.00017         0.00020
         0.04802         0.01073        -0.01298
         0.06216        -0.01313        -0.00255

 GEOMETRY PRIORITY, STEP = 0.2000 ANGSTROMS



     POINT   POTENTIAL  +  ENERGY LOST   =   TOTAL      ERROR    REF%   MOVEMENT
       1     113.19162      0.00000        113.19162   0.00000     1   %  0.0000
      11     108.99054      2.78645        111.77699  -0.25557     2   %  0.1988
      23     105.31531      6.44038        111.75569  -0.27687     3   %  0.3762
      36     102.35232      9.38998        111.74229  -0.29027     4   %  0.5627
      50      99.88008     11.85544        111.73551  -0.29705     5   %  0.7373
      65      97.84894     13.87918        111.72812  -0.30444     6   %  0.9152
      78      96.54890     15.17187        111.72077  -0.31179     7   %  1.0760
      90      95.86211     15.85288        111.71499  -0.31757     8   %  1.2091
      98      95.49468     16.21651        111.71119  -0.32137     9   %  1.3190
     104      95.33959     16.50999        111.84957  -0.18299    10   %  1.3788
     110      95.26390     16.88429        112.14819   0.11563    11   %  1.4123
     117      95.19865     17.25327        112.45192   0.41936    12   %  1.4484
     123      95.13599     17.63149        112.76748   0.73492    13   %  1.4900
     129      95.07899     18.00624        113.08524   1.05268    14   %  1.5309
     135      95.02567     18.38473        113.41039   1.37783    15   %  1.5720
     142      94.97567     18.76541        113.74108   1.70852    16   %  1.6114
     148      94.93040     19.15095        114.08135   2.04879    17   %  1.6478
     154      94.88568     19.53558        114.42126   2.38870    18   %  1.6845
     161      94.83978     19.92269        114.76246   2.72990    19   %  1.7251
     168      94.79667     20.31405        115.11073   3.07817    20   %  1.7616
     174      94.75961     20.66790        115.42751   3.39495    21   %  1.7934
     181      94.71879     21.10224        115.82103   3.78847    22   %  1.8290
     187      94.68790     21.43758        116.12548   4.09292    23   %  1.8554
     194      94.64535     21.88596        116.53131   4.49875    24   %  1.8933
     201      94.60830     22.27945        116.88775   4.85519    25   %  1.9271
     208      94.57350     22.67237        117.24587   5.21331    26   %  1.9592
     214      94.54249     23.06463        117.60713   5.57457    27   %  1.9866
     221      94.50992     23.45578        117.96570   5.93314    28   %  2.0195
     228      94.47910     23.84625        118.32535   6.29279    29   %  2.0493
     234      94.45204     24.18830        118.64034   6.60778    30   %  2.0762
     241      94.42005     24.63033        119.05038   7.01782    31   %  2.1094
     248      94.39364     25.02253        119.41618   7.38362    32   %  2.1381
     255      94.36785     25.41418        119.78203   7.74947    33   %  2.1668
     261      94.34683     25.75993        120.10676   8.07420    34   %  2.1924
     268      94.31579     26.16926        120.48505   8.45249    35   %  2.2262
     275      94.29525     26.57534        120.87058   8.83802    36   %  2.2535
     282      94.26852     27.00027        121.26879   9.23622    37   %  2.2864
     289      94.24916     27.39368        121.64284   9.61028    38   %  2.3133
     296      94.22153     27.79941        122.02093   9.98837    39   %  2.3456
     303      94.20632     28.20943        122.41576  10.38319    40   %  2.3720
     310      94.17930     28.61764        122.79694  10.76438    41   %  2.4033
     317      94.16657     29.02457        123.19114  11.15858    42   %  2.4292
     324      94.14030     29.43283        123.57313  11.54057    43   %  2.4598
     331      94.12917     29.84368        123.97285  11.94029    44   %  2.4851
     338      94.10527     30.24753        124.35279  12.32023    45   %  2.5148
     345      94.09445     30.65069        124.74514  12.71258    46   %  2.5391
     353      94.07655     31.11140        125.18795  13.15539    47   %  2.5694
     360      94.05463     31.51585        125.57048  13.53792    48   %  2.5977
     368      94.03940     31.98665        126.02605  13.99349    49   %  2.6270
     375      94.02309     32.42135        126.44444  14.41188    50   %  2.6544
     383      94.01078     32.85557        126.86635  14.83379    51   %  2.6801
     390      93.99795     33.28894        127.28689  15.25433    52   %  2.7055
     398      93.98368     33.72232        127.70600  15.67344    53   %  2.7321
     406      93.96905     34.15562        128.12468  16.09211    54   %  2.7587
     413      93.95587     34.59131        128.54718  16.51462    55   %  2.7841
     421      93.94882     35.01092        128.95974  16.92718    56   %  2.8063
     428      93.93295     35.41396        129.34692  17.31436    57   %  2.8304
     436      93.92393     35.88826        129.81220  17.77964    58   %  2.8561
     443      93.91104     36.31795        130.22899  18.19643    59   %  2.8802
     451      93.90405     36.73988        130.64393  18.61137    60   %  2.9024
     458      93.89493     37.16086        131.05579  19.02323    61   %  2.9244
     465      93.88339     37.58129        131.46468  19.43212    62   %  2.9475
     473      93.87618     37.99693        131.87311  19.84055    63   %  2.9682
     480      93.86786     38.40843        132.27629  20.24373    64   %  2.9888
     487      93.85854     38.81922        132.67776  20.64520    65   %  3.0102
     494      93.85303     39.22708        133.08011  21.04755    66   %  3.0293
     502      93.84465     39.63105        133.47570  21.44314    67   %  3.0501
     509      93.83718     40.03497        133.87215  21.83959    68   %  3.0689
     516      93.83087     40.43601        134.26688  22.23432    69   %  3.0881
     523      93.82410     40.83274        134.65684  22.62428    70   %  3.1065
     530      93.81818     41.22824        135.04642  23.01386    71   %  3.1249
     537      93.81092     41.62078        135.43169  23.39913    72   %  3.1425
     543      93.80766     42.01008        135.81774  23.78518    73   %  3.1606
     550      93.79822     42.39864        136.19687  24.16431    74   %  3.1772
     557      93.79665     42.78346        136.58010  24.54754    75   %  3.1947
     564      93.78881     43.16768        136.95649  24.92393    76   %  3.2111
     571      93.78129     43.54082        137.32211  25.28955    77   %  3.2270
     577      93.77666     43.88487        137.66152  25.62896    78   %  3.2416
     584      93.78099     44.29323        138.07422  26.04166    79   %  3.2589
     591      93.76559     44.69593        138.46152  26.42896    80   %  3.2751
     597      93.76115     45.04514        138.80629  26.77373    81   %  3.2893
     604      93.76996     45.46498        139.23493  27.20237    82   %  3.3062
     610      93.76642     45.82388        139.59030  27.55773    83   %  3.3202
     617      93.74732     46.24268        139.99000  27.95744    84   %  3.3363
     623      93.74376     46.59509        140.33885  28.30629    85   %  3.3501
     630      93.75283     47.00801        140.76084  28.72828    86   %  3.3657
     636      93.74940     47.36260        141.11201  29.07945    87   %  3.3790
     643      93.73192     47.77089        141.50281  29.47025    88   %  3.3950
     650      93.74285     48.19075        141.93359  29.90103    89   %  3.4099
     657      93.72328     48.61406        142.33733  30.30477    90   %  3.4258
     664      93.73745     49.04519        142.78264  30.75008    91   %  3.4405
     671      93.71563     49.47399        143.18962  31.15706    92   %  3.4563
     678      93.73160     49.91522        143.64682  31.61425    93   %  3.4708
     685      93.70830     50.34748        144.05578  32.02322    94   %  3.4867
     692      93.72365     50.78687        144.51052  32.47796    95   %  3.5006
     700      93.72124     51.28636        145.00760  32.97504    96   %  3.5174
     708      93.71902     51.79492        145.51394  33.48138    97   %  3.5342
     716      93.71740     52.31581        146.03321  34.00065    98   %  3.5510
     724      93.71366     52.83709        146.55075  34.51819    99   %  3.5676
     733      93.68580     53.43003        147.11583  35.08327   100   %  3.5873
     741      93.68253     53.98793        147.67046  35.63790   101   %  3.6041
     750      93.70989     54.63795        148.34784  36.31528   102   %  3.6222
     759      93.67519     55.28208        148.95728  36.92471   103   %  3.6422
     769      93.67143     56.02935        149.70077  37.66821   104   %  3.6634
     778      93.70776     56.75508        150.46284  38.43028   105   %  3.6819
     787      93.66552     57.47740        151.14293  39.11037   106   %  3.7023
     797      93.66214     58.33156        151.99370  39.96114   107   %  3.7244
     807      93.65853     59.18713        152.84565  40.81309   108   %  3.7462
     816      93.70412     60.04969        153.75381  41.72125   109   %  3.7653
     826      93.71470     61.09176        154.80646  42.77390   110   %  3.7883
     836      93.72472     62.40529        156.13001  44.09745   111   %  3.8137
     847      93.66602     64.15577        157.82179  45.78923   112   %  3.8444
     860      93.63462     65.95330        159.58792  47.55536   113   %  3.8795
     872      93.63330     66.89467        160.52798  48.49541   114   %  3.9009
     884      93.63210     67.97181        161.60391  49.57134   115   %  3.9236
     895      93.68393     69.11943        162.80336  50.77080   116   %  3.9441
     906      93.63342     70.33081        163.96423  51.93167   117   %  3.9679
     917      93.70617     72.01119        165.71736  53.68480   118   %  3.9920


 IRC CALCULATION COMPLETE 
           INITIAL VELOCITY IN DRC (Angstroms/Femtosecond)
         0.04334        -0.00004        -0.00056
        -0.67104        -0.10018        -0.00449
         0.02334         0.01274         0.00610
        -0.00146         0.00201         0.00086
        -0.00037         0.00001         0.00005
         0.00018        -0.01477        -0.00555
         0.00135         0.00790        -0.00162
         0.00026        -0.00058        -0.00451
        -0.00030         0.00008         0.00244
        -0.00045        -0.00021         0.00171
         0.00041         0.00149        -0.00143
        -0.00022        -0.00193         0.00042
        -0.00013         0.00075         0.00220
         0.00091         0.00068        -0.00213
        -0.00103        -0.00209         0.00153
        -0.00001         0.00035        -0.00014
         0.00058        -0.00030        -0.00037
        -0.00047        -0.00025        -0.00037
         0.00035         0.00022         0.00039
        -0.00179         0.00086        -0.00384
         0.00025         0.00177        -0.00014
        -0.00026         0.00233         0.00077
        -0.00042         0.00015         0.00059
        -0.00036         0.00030         0.00050
        -0.00114        -0.00105        -0.00003
        -0.00416        -0.00085        -0.00409
         0.00211         0.00006        -0.00105
        -0.05549        -0.00556        -0.01319
        -0.00592         0.00174         0.00356
         0.00051        -0.00018         0.00026
         0.00072         0.00010        -0.00116
         0.00042         0.00017        -0.00020
        -0.04802        -0.01073         0.01298
        -0.06216         0.01313         0.00255

 GEOMETRY PRIORITY, STEP = 0.2000 ANGSTROMS



     POINT   POTENTIAL  +  ENERGY LOST   =   TOTAL      ERROR    REF%   MOVEMENT
       1     113.19162      0.00000        113.19162   0.00000     1   %  0.0000
      11     107.16994      4.44176        111.61170  -0.29708     2   %  0.1904
      26      98.30219     13.30168        111.60386  -0.30492     3   %  0.3950
      37      93.92193     17.63751        111.55944  -0.34934     4   %  0.5942
      47      91.48274     20.06016        111.54290  -0.36588     5   %  0.7699
      57      89.39007     22.14581        111.53589  -0.37289     6   %  0.9392
      67      87.53613     23.99509        111.53122  -0.37756     7   %  1.1122
      77      85.94265     25.58516        111.52780  -0.38098     8   %  1.2762
      86      84.56423     26.96075        111.52499  -0.38379     9   %  1.4341
      96      83.36573     28.15679        111.52252  -0.38626    10   %  1.5899
     105      82.32116     29.19912        111.52028  -0.38850    11   %  1.7491
     114      81.41222     30.10602        111.51824  -0.39054    12   %  1.9221
     123      80.61990     30.89644        111.51635  -0.39243    13   %  2.1064
     132      79.93387     31.58074        111.51461  -0.39417    14   %  2.2936
     141      79.34034     32.17264        111.51298  -0.39580    15   %  2.4818
     149      78.82941     32.68203        111.51144  -0.39734    16   %  2.6704
     156      78.39143     33.11854        111.50997  -0.39881    17   %  2.8590
     164      78.01732     33.49129        111.50860  -0.40017    18   %  3.0478
     170      77.72129     33.78861        111.50990  -0.39888    19   %  3.2233
     176      77.55501     34.12347        111.67847  -0.23031    20   %  3.3368
     182      77.43213     34.46833        111.90046  -0.00832    21   %  3.4274
     189      77.32631     34.81493        112.14124   0.23246    22   %  3.5114
     195      77.23410     35.16272        112.39682   0.48804    23   %  3.5898
     201      77.15330     35.51065        112.66394   0.75516    24   %  3.6630
     207      77.08186     35.85644        112.93830   1.02952    25   %  3.7315
     213      77.01892     36.19894        113.21787   1.30909    26   %  3.7958
     219      76.96238     36.53912        113.50149   1.59272    27   %  3.8563
     226      76.91159     36.87819        113.78978   1.88100    28   %  3.9134
     232      76.86547     37.21469        114.08017   2.17139    29   %  3.9676
     238      76.82281     37.55275        114.37556   2.46678    30   %  4.0186
     244      76.78405     37.88965        114.67370   2.76493    31   %  4.0676
     250      76.74811     38.22663        114.97474   3.06596    32   %  4.1144
     255      76.71365     38.56447        115.27812   3.36934    33   %  4.1592
     261      76.68219     38.89975        115.58194   3.67316    34   %  4.2025
     267      76.65256     39.23528        115.88784   3.97906    35   %  4.2443
     273      76.62488     39.57194        116.19682   4.28804    36   %  4.2846
     279      76.59884     39.91079        116.50964   4.60086    37   %  4.3234
     285      76.57354     40.24865        116.82219   4.91341    38   %  4.3613
     291      76.54943     40.58737        117.13680   5.22802    39   %  4.3981
     297      76.52661     40.92741        117.45402   5.54524    40   %  4.4342
     303      76.50553     41.26829        117.77382   5.86504    41   %  4.4694
     309      76.48448     41.61386        118.09834   6.18956    42   %  4.5034
     316      76.46509     41.96060        118.42569   6.51691    43   %  4.5365
     322      76.44549     42.30120        118.74669   6.83791    44   %  4.5681
     328      76.42737     42.64500        119.07237   7.16359    45   %  4.5994
     334      76.41026     42.99043        119.40070   7.49192    46   %  4.6299
     340      76.39364     43.33815        119.73179   7.82301    47   %  4.6596
     347      76.38225     43.74438        120.12663   8.21785    48   %  4.6930
     353      76.36677     44.09131        120.45808   8.54930    49   %  4.7213
     360      76.34222     44.49570        120.83792   8.92914    50   %  4.7541
     367      76.33350     44.90121        121.23471   9.32593    51   %  4.7850
     373      76.31974     45.24859        121.56833   9.65955    52   %  4.8113
     380      76.29608     45.65290        121.94898  10.04020    53   %  4.8421
     387      76.29134     46.06543        122.35677  10.44799    54   %  4.8712
     395      76.27564     46.53992        122.81555  10.90677    55   %  4.9044
     402      76.24970     46.95597        123.20567  11.29689    56   %  4.9334
     409      76.24891     47.37624        123.62515  11.71637    57   %  4.9610
     417      76.23446     47.85374        124.08820  12.17942    58   %  4.9923
     425      76.22205     48.33789        124.55995  12.65117    59   %  5.0232
     433      76.21081     48.84007        125.05088  13.14210    60   %  5.0540
     441      76.19859     49.35059        125.54919  13.64041    61   %  5.0845
     449      76.18538     49.86797        126.05336  14.14458    62   %  5.1147
     457      76.17117     50.37820        126.54937  14.64059    63   %  5.1441
     466      76.13604     50.95237        127.08840  15.17962    64   %  5.1766
     474      76.12364     51.46475        127.58839  15.67961    65   %  5.2050
     483      76.13576     52.07420        128.20996  16.30118    66   %  5.2369
     492      76.09656     52.67491        128.77147  16.86269    67   %  5.2684
     501      76.11267     53.31875        129.43143  17.52265    68   %  5.3000
     509      76.10418     53.90782        130.01200  18.10322    69   %  5.3281
     518      76.05969     54.57476        130.63445  18.72567    70   %  5.3595
     527      76.08616     55.30532        131.39148  19.48270    71   %  5.3920
     536      76.03525     56.04058        132.07584  20.16706    72   %  5.4238
     544      76.02434     56.70300        132.72734  20.81856    73   %  5.4521
     553      76.05270     57.49221        133.54491  21.63613    74   %  5.4846
     562      76.00081     58.26640        134.26721  22.35843    75   %  5.5157
     571      76.03611     59.15397        135.19008  23.28130    76   %  5.5489
     580      75.97789     59.99813        135.97602  24.06724    77   %  5.5804
     590      75.96689     60.99461        136.96150  25.05272    78   %  5.6160
     599      76.01217     62.03962        138.05179  26.14301    79   %  5.6504
     608      75.94931     63.12368        139.07299  27.16421    80   %  5.6838
     618      75.93800     64.57277        140.51077  28.60199    81   %  5.7246
     628      75.92883     66.13650        142.06533  30.15655    82   %  5.7659
     639      75.99079     68.21515        144.20594  32.29716    83   %  5.8157
     650      75.90849     70.22850        146.13699  34.22821    84   %  5.8615
     662      75.89410     71.56098        147.45508  35.54630    85   %  5.9026
     673      75.85252     72.34991        148.20243  36.29365    86   %  5.9321
     684      75.87711     73.17163        149.04874  37.13996    87   %  5.9602
     694      75.87339     73.94275        149.81614  37.90736    88   %  5.9865
     704      75.86928     74.76886        150.63815  38.72937    89   %  6.0138
     714      75.86650     75.67077        151.53727  39.62849    90   %  6.0421
     724      75.86402     76.65416        152.51819  40.60941    91   %  6.0714
     733      75.80796     77.57221        153.38018  41.47140    92   %  6.0985
     743      75.80151     78.64765        154.44916  42.54038    93   %  6.1288
     753      75.79635     79.86804        155.66438  43.75561    94   %  6.1605
     763      75.78918     81.21563        157.00481  45.09603    95   %  6.1940
     774      75.86040     82.96718        158.82758  46.91880    96   %  6.2334
     785      75.78431     85.04648        160.83079  48.92201    97   %  6.2747
     797      75.77402     86.39976        162.17377  50.26499    98   %  6.3112
     809      75.77110     87.31525        163.08634  51.17756    99   %  6.3401
     819      75.76895     88.13083        163.89977  51.99099   100   %  6.3649
     830      75.72298     89.04354        164.76652  52.85774   101   %  6.3929
     840      75.71843     89.97831        165.69675  53.78797   102   %  6.4190
     850      75.71214     90.99706        166.70919  54.80041   103   %  6.4464
     860      75.70938     92.07663        167.78601  55.87723   104   %  6.4742
     870      75.70545     93.33226        169.03772  57.12894   105   %  6.5042
     881      75.76813     94.96844        170.73656  58.82778   106   %  6.5396
     892      75.69558     96.59613        172.29171  60.38293   107   %  6.5750
     903      75.77328     98.65282        174.42610  62.51732   108   %  6.6139
     915      75.65746     99.99899        175.65645  63.74767   109   %  6.6484
     926      75.68655    100.82454        176.51110  64.60232   110   %  6.6715
     937      75.64714    101.65611        177.30325  65.39447   111   %  6.6967
     948      75.68125    102.55842        178.23966  66.33089   112   %  6.7208
     958      75.67733    103.39989        179.07722  67.16844   113   %  6.7439
     968      75.67659    104.26803        179.94463  68.03585   114   %  6.7672
     978      75.67813    105.21684        180.89497  68.98619   115   %  6.7914
     988      75.68321    106.27500        181.95821  70.04943   116   %  6.8169
     998      75.68525    107.44533        183.13058  71.22180   117   %  6.8436
    1008      75.70031    108.93283        184.63313  72.72435   118   %  6.8729


 IRC CALCULATION COMPLETE 

 **********************
 *                    *
 * JOB ENDED NORMALLY *
 *                    *
 **********************



 TOTAL JOB TIME:            52.89 SECONDS

 == MOPAC DONE ==
