 *******************************************************************************
 ** Site#: 23746        For non-commercial use only     Version 16.175W 64BITS**
 *******************************************************************************
 ** Cite this program as: MOPAC2016, Version: 16.175W, James J. P. Stewart,   **
 ** Stewart Computational Chemistry, web: HTTP://OpenMOPAC.net. Days left: 334**
 *******************************************************************************
 **                                                                           **
 **                                MOPAC2016                                  **
 **                                                                           **
 *******************************************************************************

                              PM7 CALCULATION RESULTS


 *******************************************************************************
 *  CALCULATION DONE:                                Mon Jul 25 11:39:54 2016  *
 *  START_RES- STARTING RESIDUE NUMBERS DEFINED
 *  Keyword:   START_RES=(1A) 
 *  CHAIN      - PDB CHAIN LETTERS EXPLICITLY DEFINED
 *  Keyword:   CHAINS=(A) 
 *  TS         - USE EF ROUTINE FOR TS SEARCH
 *  T=         - A TIME OF 172800.0 SECONDS REQUESTED
 *  DUMP=N     - RESTART FILE WRITTEN EVERY  7200.000 SECONDS
 *  HTML       - WRITE HTML SCRIPT TO READ PDB FILE USING JSMOL
 *******************************************************************************
START_RES=(1A)  CHAINS=(A) html ts


  ATOM               CHEMICAL                 BOND LENGTH      BOND ANGLE     TWIST ANGLE 
 NUMBER               SYMBOL                  (ANGSTROMS)      (DEGREES)       (DEGREES) 
   (I)                                           NA:I           NB:NA:I       NC:NB:NA:I       NA    NB    NC 
     1       C(HETATM    1  C   HET A   1)    0.00000000       0.0000000       0.0000000   
     2       H(HETATM   28  H   HET A   1)    1.35784548  *    0.0000000       0.0000000        1     0     0
     3       N(HETATM    2  N   HET A   1)    1.35784548  *  166.5614366  *    0.0000000        2     1     0
     4       C(HETATM    3  C   HET A   1)    1.41148556  *  113.6355180  *  -86.3751911  *     3     2     1
     5       C(HETATM    4  C   HET A   1)    2.41559020  *  149.0576025  *    1.2829432  *     4     3     2
     6       C(HETATM    5  C   HET A   1)    1.36121483  *  113.8010579  *   56.4876653  *     3     2     1
     7       C(HETATM    6  C   HET A   1)    1.41892718  *  123.8853950  * -124.5751747  *     6     3     2
     8       C(HETATM    7  C   HET A   1)    1.39466832  *  120.9864673  *  177.5216484  *     7     6     3
     9       C(HETATM    8  C   HET A   1)    1.38634206  *  120.6099983  *   -0.5030495  *     8     7     6
    10       C(HETATM    9  C   HET A   1)    1.42196392  *  120.5635201  *    0.6920708  *     9     8     7
    11       C(HETATM   10  C   HET A   1)    1.41667153  *  120.5390665  *  179.6148050  *    10     9     8
    12       C(HETATM   11  C   HET A   1)    1.38012062  *  120.4819677  * -179.1227987  *    11    10     9
    13       C(HETATM   12  C   HET A   1)    1.40786042  *  120.1469267  *    0.4788897  *    12    11    10
    14       C(HETATM   13  C   HET A   1)    1.38272930  *  120.3080580  *   -0.4913997  *    13    12    11
    15       C(HETATM   14  C   HET A   1)    1.41762506  *  120.1476179  *   -0.0294525  *    10     9     8
    16       C(HETATM   15  C   HET A   1)    1.40601983  *  120.4676522  * -166.9847043  *     4     3     2
    17       C(HETATM   16  C   HET A   1)    1.39045826  *  119.6567726  *  173.8445162  *    16     4     3
    18       H(HETATM   17  H   HET A   1)    1.08937594  *  150.0364957  *   10.0620980  *     5     4     3
    19       C(HETATM   18  C   HET A   1)    1.39453671  *   90.0728734  * -170.0211279  *     5     4     3
    20       H(HETATM   19  H   HET A   1)    1.09005294  *  119.3598766  *   -0.7414872  *     7     6     3
    21       H(HETATM   20  H   HET A   1)    1.09046917  *  119.3916304  * -179.7915957  *     8     7     6
    22       H(HETATM   21  H   HET A   1)    1.08787542  *  120.4396507  * -179.2365275  *     9     8     7
    23       H(HETATM   22  H   HET A   1)    1.08807128  *  119.0273751  *    0.9174316  *    11    10     9
    24       H(HETATM   23  H   HET A   1)    1.08854107  *  120.4715204  * -179.6895005  *    12    11    10
    25       H(HETATM   24  H   HET A   1)    1.08865554  *  119.4628197  *  179.4569078  *    13    12    11
    26       H(HETATM   25  H   HET A   1)    1.09405788  *  120.0413073  *  179.4433043  *    14    13    12
    27       H(HETATM   26  H   HET A   1)    1.08868572  *  120.0042422  *   -4.7016526  *    16     4     3
    28       H(HETATM   27  H   HET A   1)    1.06970596  *  105.1248022  *  -93.6367696  *     1     2     3
    29       H(HETATM   29  H   HET A   1)    2.15841229  *   56.2074078  *    9.7596444  *     5     4     3
    30       C(HETATM   30  C   HET A   1)    1.09113023  *   33.7660590  *   -0.1171455  *    29     5     4
    31       H(HETATM   31  H   HET A   1)    1.08749747  *  120.0235250  * -179.8290664  *    19     5     4
    32       H(HETATM   32  H   HET A   1)    1.08908557  *  119.7402254  * -179.4962447  *    17    16     4
    33       H(HETATM   33  H   HET A   1)    1.06866013  *  106.5057939  *   26.0198928  *     1     2     3
    34       H(HETATM   34  H   HET A   1)    1.06892929  *  105.1157191  *  146.7967544  *     1     2     3
 

 General Reference for PM7:
 "Optimization of Parameters for Semiempirical Methods VI: More Modifications to the 
 NDDO Approximations and Re-optimization of Parameters", J. J. P. Stewart, J. Mol. Mod., 1:32, 19 (2013)
 http://www.springerlink.com/openurl.asp?genre=article&id=doi:10.1007/s00894-012-1667-x

           Empirical Formula: C17 H16 N  =    34 atoms



      MOLECULAR POINT GROUP   :   C1  


          UHF CALCULATION, NO. OF ALPHA ELECTRONS =   45
                           NO. OF BETA  ELECTRONS =   44

          Transition state refinement using EF

          HESSIAN CALCULATED NUMERICALLY

 CYCLE:     1 TIME:   2.012 TIME LEFT:  2.00D  GRAD.:    64.888 HEAT:  108.8604
 CYCLE:     2 TIME:   0.172 TIME LEFT:  2.00D  GRAD.:    57.316 HEAT:  110.8987
 CYCLE:     3 TIME:   0.328 TIME LEFT:  2.00D  GRAD.:    16.652 HEAT:  113.7455
 CYCLE:     4 TIME:   0.125 TIME LEFT:  2.00D  GRAD.:     8.925 HEAT:  113.3336
 CYCLE:     5 TIME:   0.062 TIME LEFT:  2.00D  GRAD.:     3.349 HEAT:  113.2645
 CYCLE:     6 TIME:   0.078 TIME LEFT:  2.00D  GRAD.:     8.653 HEAT:  113.2173
 CYCLE:     7 TIME:   0.125 TIME LEFT:  2.00D  GRAD.:     8.394 HEAT:  113.2111
 CYCLE:     8 TIME:   0.078 TIME LEFT:  2.00D  GRAD.:     7.896 HEAT:  113.2088
 CYCLE:     9 TIME:   0.094 TIME LEFT:  2.00D  GRAD.:     4.767 HEAT:  113.2017
 CYCLE:    10 TIME:   0.078 TIME LEFT:  2.00D  GRAD.:     3.100 HEAT:  113.1985
 CYCLE:    11 TIME:   0.031 TIME LEFT:  2.00D  GRAD.:     1.448 HEAT:  113.1969
 CYCLE:    12 TIME:   0.062 TIME LEFT:  2.00D  GRAD.:     3.840 HEAT:  113.1983
 CYCLE:    13 TIME:   0.047 TIME LEFT:  2.00D  GRAD.:     1.332 HEAT:  113.1934
 CYCLE:    14 TIME:   0.031 TIME LEFT:  2.00D  GRAD.:     0.821 HEAT:  113.1916

     GRADIENT =  0.82091  IS LESS THAN CUTOFF =  1.00000



 -------------------------------------------------------------------------------
START_RES=(1A)  CHAINS=(A) html ts




     GEOMETRY OPTIMISED USING EIGENVECTOR FOLLOWING (TS).     
     SCF FIELD WAS ACHIEVED                                   


                              PM7 CALCULATION
                                                       MOPAC2016 (Version: 16.175W)
                                                       Mon Jul 25 11:39:58 2016
                                                       No. of days remaining = 334




          FINAL HEAT OF FORMATION =        113.19160 KCAL/MOL =     473.59365 KJ/MOL


          TOTAL ENERGY            =      -2487.31110 EV
          ELECTRONIC ENERGY       =     -17460.93164 EV  POINT GROUP:     C1  
          CORE-CORE REPULSION     =      14973.62054 EV
          COSMO AREA              =        275.76 SQUARE ANGSTROMS
          COSMO VOLUME            =        306.06 CUBIC ANGSTROMS

          GRADIENT NORM           =          0.82091
          IONIZATION POTENTIAL    =          8.298638 EV
          ALPHA SOMO LUMO (EV)    =         -8.455 -0.518
          BETA  SOMO LUMO (EV)    =         -8.299 -1.618
          NO. OF ALPHA ELECTRONS  =         45
          NO. OF BETA  ELECTRONS  =         44
          MOLECULAR WEIGHT        =        234.3201

          MOLECULAR DIMENSIONS (Angstroms)

            Atom       Atom       Distance
            H    31    H    24    11.24290
            H    34    H    21     6.93177
            H    32    H    33     4.48182


          SCF CALCULATIONS        =        113
 
          WALL-CLOCK TIME         =          3.355 SECONDS
          COMPUTATION TIME        =         13.354 SECONDS




  ATOM               CHEMICAL                 BOND LENGTH      BOND ANGLE     TWIST ANGLE 
 NUMBER               SYMBOL                  (ANGSTROMS)      (DEGREES)       (DEGREES) 
   (I)                                           NA:I           NB:NA:I       NC:NB:NA:I       NA    NB    NC 
     1       C(HETATM    1  C   HET A   1)    0.00000000       0.0000000       0.0000000   
     2       H(HETATM   28  H   HET A   1)    1.41737034  *    0.0000000       0.0000000        1     0     0
     3       N(HETATM    2  N   HET A   1)    1.24754032  *  161.4848651  *    0.0000000        2     1     0
     4       C(HETATM    3  C   HET A   1)    1.41275323  *  112.0273476  * -102.8486760  *     3     2     1
     5       C(HETATM    4  C   HET A   1)    2.41631859  *  149.6139497  *  -12.9122396  *     4     3     2
     6       C(HETATM    5  C   HET A   1)    1.40448785  *  110.1095024  *   32.6143155  *     3     2     1
     7       C(HETATM    6  C   HET A   1)    1.39214714  *  123.5526022  * -111.3420522  *     6     3     2
     8       C(HETATM    7  C   HET A   1)    1.40689287  *  120.5027185  *  179.4826518  *     7     6     3
     9       C(HETATM    8  C   HET A   1)    1.37644657  *  120.5636690  *   -1.3629022  *     8     7     6
    10       C(HETATM    9  C   HET A   1)    1.42163008  *  120.4101379  *    0.8614827  *     9     8     7
    11       C(HETATM   10  C   HET A   1)    1.42038581  *  120.7841270  * -179.8148431  *    10     9     8
    12       C(HETATM   11  C   HET A   1)    1.37477057  *  120.5112270  * -179.3387441  *    11    10     9
    13       C(HETATM   12  C   HET A   1)    1.41331510  *  120.2173536  *    0.5557822  *    12    11    10
    14       C(HETATM   13  C   HET A   1)    1.37570790  *  120.2973125  *   -0.6360270  *    13    12    11
    15       C(HETATM   14  C   HET A   1)    1.41498999  *  119.9669683  *    0.3023494  *    10     9     8
    16       C(HETATM   15  C   HET A   1)    1.40625818  *  119.8806656  * -179.7580991  *     4     3     2
    17       C(HETATM   16  C   HET A   1)    1.38921019  *  119.6704584  *  173.4216705  *    16     4     3
    18       H(HETATM   17  H   HET A   1)    1.08908528  *  149.9304458  *   11.0389235  *     5     4     3
    19       C(HETATM   18  C   HET A   1)    1.39321661  *   90.1843007  * -168.8200057  *     5     4     3
    20       H(HETATM   19  H   HET A   1)    1.08940283  *  120.3941764  *    0.0232876  *     7     6     3
    21       H(HETATM   20  H   HET A   1)    1.08969731  *  118.8633993  *  179.2287300  *     8     7     6
    22       H(HETATM   21  H   HET A   1)    1.08760797  *  120.7330551  * -179.2531322  *     9     8     7
    23       H(HETATM   22  H   HET A   1)    1.08803774  *  118.7503350  *    0.5161017  *    11    10     9
    24       H(HETATM   23  H   HET A   1)    1.08825721  *  120.6724201  * -179.8963264  *    12    11    10
    25       H(HETATM   24  H   HET A   1)    1.08805401  *  119.1154097  *  178.9586794  *    13    12    11
    26       H(HETATM   25  H   HET A   1)    1.09201110  *  120.4214023  *  178.5325119  *    14    13    12
    27       H(HETATM   26  H   HET A   1)    1.08873002  *  119.8680446  *   -5.4280616  *    16     4     3
    28       H(HETATM   27  H   HET A   1)    1.07093165  *  100.6378667  *  -70.4580830  *     1     2     3
    29       H(HETATM   29  H   HET A   1)    2.15161666  *   56.2598303  *   11.3039805  *     5     4     3
    30       C(HETATM   30  C   HET A   1)    1.08700180  *   34.0596698  *    0.0323790  *    29     5     4
    31       H(HETATM   31  H   HET A   1)    1.08653905  *  120.1064129  * -179.8990060  *    19     5     4
    32       H(HETATM   32  H   HET A   1)    1.08936651  *  119.6656240  * -179.7908091  *    17    16     4
    33       H(HETATM   33  H   HET A   1)    1.06866079  *  103.7453861  *   49.4766068  *     1     2     3
    34       H(HETATM   34  H   HET A   1)    1.06918600  *  100.2848423  *  170.2602690  *     1     2     3

                             CARTESIAN COORDINATES

   1    C        0.000000000     0.000000000     0.000000000
   2    H        1.417370345     0.000000000     0.000000000
   3    N        2.600337737     0.396162853     0.000000000
   4    C        3.195246309     0.288262975    -1.276837141
   5    C        3.141894723    -0.568344207    -3.535591944
   6    C        2.705454668     1.602909297     0.710844271
   7    C        2.992886381     2.826268178     0.111803610
   8    C        3.072510211     3.998866323     0.885121908
   9    C        2.840158147     3.960048576     2.241260127
  10    C        2.533812420     2.729540263     2.883937077
  11    C        2.288809700     2.680951486     4.282189072
  12    C        2.006361978     1.485844059     4.900198487
  13    C        1.968428782     0.288655751     4.150024634
  14    C        2.200776169     0.311507320     2.794272182
  15    C        2.472702644     1.534090959     2.129375455
  16    C        4.531363251     0.685358446    -1.463032688
  17    C        5.154795947     0.451304001    -2.682235353
  18    H        2.603600580    -1.059978446    -4.344691403
  19    C        4.464079950    -0.170856012    -3.722358839
  20    H        3.150593240     2.889522696    -0.964266057
  21    H        3.311678927     4.939935087     0.390522950
  22    H        2.889120034     4.866865628     2.839738748
  23    H        2.331411414     3.605993983     4.853422464
  24    H        1.816578075     1.445833785     5.971032274
  25    H        1.759946717    -0.649453125     4.660268203
  26    H        2.195569078    -0.615229838     2.216674250
  27    H        5.075818507     1.156451875    -0.646348841
  28    H       -0.197694979     0.352066204     0.991897516
  29    H        1.468944565    -0.653743156    -2.185259003
  30    C        2.501356545    -0.342021684    -2.321377131
  31    H        4.957165097    -0.347974997    -4.674232261
  32    H        6.190898553     0.755866070    -2.825248408
  33    H       -0.253922002     0.674485432    -0.789068380
  34    H       -0.190894521    -1.036843438    -0.177970974


           Empirical Formula: C17 H16 N  =    34 atoms



      MOLECULAR POINT GROUP   :   C1  


          ALPHA EIGENVALUES  
 -35.94244 -30.98492 -30.27536 -29.24172 -26.75796 -26.09707 -25.69264 -25.12075
 -24.74290 -24.22024 -21.72958 -21.48830 -21.31440 -20.80788 -19.92101 -18.06094
 -17.70007 -17.03297 -16.84331 -16.33983 -15.71014 -15.18849 -14.90066 -14.68224
 -14.51877 -14.41788 -14.37251 -14.31371 -14.08361 -13.98304 -13.59556 -13.55327
 -13.02858 -12.50887 -12.31709 -12.06018 -11.95574 -11.74125 -11.42878 -10.68890
  -9.95706  -9.86529  -9.72903  -9.24501  -8.45505  -0.51804  -0.09627   0.18110
   0.25038   0.88495   1.67145   2.45914   2.59434   2.79422   3.75435   3.96498
   4.23523   4.34828   4.58576   4.59479   4.72109   4.81962   4.88659   4.92255
   5.01264   5.05976   5.20216   5.26727   5.38882   5.60352   5.63179   5.74588
   5.80795   5.87723   5.89145   5.93793   5.94862   5.98022   6.08055   6.08642
   6.09891   6.12959   6.19540   6.20503   6.26965   6.30912   6.32015   6.78922


           BETA EIGENVALUES 
 -35.29082 -30.97133 -30.24527 -29.22478 -26.73390 -26.06994 -25.67041 -25.09564
 -24.64351 -24.01920 -21.70001 -21.46181 -21.28644 -20.77142 -19.87834 -18.01957
 -17.61740 -16.97179 -16.80738 -16.07793 -15.65342 -15.15275 -14.86808 -14.57007
 -14.45943 -14.38694 -14.32528 -14.16839 -13.94451 -13.82415 -13.54996 -13.44548
 -12.97216 -12.44799 -12.21892 -12.00147 -11.85941 -11.70987 -11.25884 -10.41145
  -9.92006  -9.60681  -9.17010  -8.29864  -1.61757  -0.40604  -0.04749   0.19532
   0.31279   0.96067   1.75103   2.49081   2.82974   2.85405   3.75948   4.00417
   4.25292   4.38162   4.59377   4.61080   4.74420   4.83646   4.89784   4.93232
   5.02925   5.06785   5.22558   5.27704   5.44646   5.63923   5.74509   5.80826
   5.86371   5.88468   5.90262   5.99188   6.06565   6.06969   6.08701   6.09510
   6.14147   6.15542   6.19476   6.23064   6.28292   6.30470   6.32493   6.93983


              NET ATOMIC CHARGES AND DIPOLE CONTRIBUTIONS

  ATOM NO.                 TYPE                        CHARGE      No. of ELECS.   s-Pop       p-Pop       
    1          C(HETATM    1  C   HET A   1)          -0.524865        4.5249     1.11314     3.41172
    2          H(HETATM   28  H   HET A   1)           0.292433        0.7076     0.70757
    3          N(HETATM    2  N   HET A   1)          -0.445658        5.4457     1.68813     3.75753
    4          C(HETATM    3  C   HET A   1)           0.176016        3.8240     1.06204     2.76195
    5          C(HETATM    4  C   HET A   1)          -0.103531        4.1035     1.08351     3.02003
    6          C(HETATM    5  C   HET A   1)           0.141225        3.8588     1.06179     2.79698
    7          C(HETATM    6  C   HET A   1)          -0.217148        4.2171     1.08657     3.13057
    8          C(HETATM    7  C   HET A   1)          -0.119202        4.1192     1.08143     3.03777
    9          C(HETATM    8  C   HET A   1)          -0.172057        4.1721     1.08512     3.08694
   10          C(HETATM    9  C   HET A   1)           0.009107        3.9909     1.06333     2.92757
   11          C(HETATM   10  C   HET A   1)          -0.165294        4.1653     1.08472     3.08058
   12          C(HETATM   11  C   HET A   1)          -0.135382        4.1354     1.08418     3.05121
   13          C(HETATM   12  C   HET A   1)          -0.159023        4.1590     1.08311     3.07591
   14          C(HETATM   13  C   HET A   1)          -0.126093        4.1261     1.08752     3.03857
   15          C(HETATM   14  C   HET A   1)          -0.033939        4.0339     1.06419     2.96975
   16          C(HETATM   15  C   HET A   1)          -0.217514        4.2175     1.08171     3.13581
   17          C(HETATM   16  C   HET A   1)          -0.103775        4.1038     1.08386     3.01992
   18          H(HETATM   17  H   HET A   1)           0.147574        0.8524     0.85243
   19          C(HETATM   18  C   HET A   1)          -0.195390        4.1954     1.07934     3.11605
   20          H(HETATM   19  H   HET A   1)           0.168764        0.8312     0.83124
   21          H(HETATM   20  H   HET A   1)           0.155316        0.8447     0.84468
   22          H(HETATM   21  H   HET A   1)           0.155291        0.8447     0.84471
   23          H(HETATM   22  H   HET A   1)           0.152945        0.8471     0.84705
   24          H(HETATM   23  H   HET A   1)           0.149448        0.8506     0.85055
   25          H(HETATM   24  H   HET A   1)           0.152592        0.8474     0.84741
   26          H(HETATM   25  H   HET A   1)           0.171791        0.8282     0.82821
   27          H(HETATM   26  H   HET A   1)           0.169045        0.8310     0.83096
   28          H(HETATM   27  H   HET A   1)           0.152839        0.8472     0.84716
   29          H(HETATM   29  H   HET A   1)           0.160365        0.8396     0.83963
   30          C(HETATM   30  C   HET A   1)          -0.231717        4.2317     1.07991     3.15180
   31          H(HETATM   31  H   HET A   1)           0.150746        0.8493     0.84925
   32          H(HETATM   32  H   HET A   1)           0.149427        0.8506     0.85057
   33          H(HETATM   33  H   HET A   1)           0.146861        0.8531     0.85314
   34          H(HETATM   34  H   HET A   1)           0.148803        0.8512     0.85120

          NET CHARGE ON RESIDUES

      Residue         Charge  Anion or
                              Cation?
      HET A   1       +0.000
 


 DIPOLE           X         Y         Z       TOTAL
 POINT-CHG.    -0.389     0.550     0.027     0.674
 HYBRID        -0.339     0.229    -0.222     0.466
 SUM           -0.728     0.779    -0.195     1.084


          ATOMIC ORBITAL ELECTRON POPULATIONS

                   Atom                  s        px        py        pz   
   C(HETATM    1  C   HET A   1)   1.11314   1.08554   1.15889   1.16729
   H(HETATM   28  H   HET A   1)   0.70757
   N(HETATM    2  N   HET A   1)   1.68813   1.20362   1.33196   1.22195
   C(HETATM    3  C   HET A   1)   1.06204   0.95440   0.95655   0.85099
   C(HETATM    4  C   HET A   1)   1.08351   1.00471   0.98679   1.02853
   C(HETATM    5  C   HET A   1)   1.06179   0.98274   0.87433   0.93991
   C(HETATM    6  C   HET A   1)   1.08657   1.05561   0.98265   1.09232
   C(HETATM    7  C   HET A   1)   1.08143   0.98756   1.05036   0.99985
   C(HETATM    8  C   HET A   1)   1.08512   1.01881   1.04917   1.01896
   C(HETATM    9  C   HET A   1)   1.06333   0.97821   0.97264   0.97672
   C(HETATM   10  C   HET A   1)   1.08472   1.01487   1.05872   1.00700
   C(HETATM   11  C   HET A   1)   1.08418   0.99037   0.98637   1.07447
   C(HETATM   12  C   HET A   1)   1.08311   1.01319   1.05418   1.00854
   C(HETATM   13  C   HET A   1)   1.08752   0.97657   1.05284   1.00915
   C(HETATM   14  C   HET A   1)   1.06419   1.02106   0.98746   0.96124
   C(HETATM   15  C   HET A   1)   1.08171   1.00628   1.07340   1.05613
   C(HETATM   16  C   HET A   1)   1.08386   1.06442   0.97545   0.98005
   H(HETATM   17  H   HET A   1)   0.85243
   C(HETATM   18  C   HET A   1)   1.07934   1.01289   1.03705   1.06611
   H(HETATM   19  H   HET A   1)   0.83124
   H(HETATM   20  H   HET A   1)   0.84468
   H(HETATM   21  H   HET A   1)   0.84471
   H(HETATM   22  H   HET A   1)   0.84705
   H(HETATM   23  H   HET A   1)   0.85055
   H(HETATM   24  H   HET A   1)   0.84741
   H(HETATM   25  H   HET A   1)   0.82821
   H(HETATM   26  H   HET A   1)   0.83096
   H(HETATM   27  H   HET A   1)   0.84716
   H(HETATM   29  H   HET A   1)   0.83963
   C(HETATM   30  C   HET A   1)   1.07991   1.08518   1.07073   0.99589
   H(HETATM   31  H   HET A   1)   0.84925
   H(HETATM   32  H   HET A   1)   0.85057
   H(HETATM   33  H   HET A   1)   0.85314
   H(HETATM   34  H   HET A   1)   0.85120


                    (SZ)    =    0.500000
                    (S**2)  =    1.023301


          ATOMIC ORBITAL SPIN POPULATIONS

    Atom   Total    s     px     py     pz   
         Atomic
    1  C  0.6606  0.036  0.583  0.021  0.021
    2  H -0.1046 -0.105
    3  N  0.4028  0.010  0.322  0.026  0.045
    4  C -0.0642 -0.006 -0.012 -0.030 -0.017
    5  C -0.0375 -0.001 -0.005 -0.025 -0.006
    6  C -0.3051 -0.014 -0.242 -0.029 -0.021
    7  C  0.3225  0.010  0.273  0.023  0.017
    8  C -0.2452 -0.009 -0.200 -0.017 -0.019
    9  C  0.3009  0.009  0.253  0.019  0.020
   10  C -0.1992 -0.008 -0.158 -0.017 -0.016
   11  C  0.2048  0.007  0.171  0.012  0.015
   12  C -0.1885 -0.006 -0.156 -0.014 -0.012
   13  C  0.1961  0.006  0.164  0.011  0.014
   14  C -0.2017 -0.007 -0.169 -0.012 -0.015
   15  C  0.2112  0.009  0.170  0.015  0.017
   16  C  0.0574  0.004  0.008  0.037  0.008
   17  C -0.0363 -0.001 -0.004 -0.026 -0.005
   18  H  0.0012  0.001
   19  C  0.0419  0.001  0.006  0.029  0.005
   20  H -0.0097 -0.010
   21  H  0.0073  0.007
   22  H -0.0091 -0.009
   23  H -0.0062 -0.006
   24  H  0.0057  0.006
   25  H -0.0059 -0.006
   26  H  0.0061  0.006
   27  H -0.0018 -0.002
   28  H -0.0172 -0.017
   29  H -0.0013 -0.001
   30  C  0.0480  0.002  0.004  0.037  0.006
   31  H -0.0013 -0.001
   32  H  0.0016  0.002
   33  H -0.0172 -0.017
   34  H -0.0161 -0.016

 **********************
 *                    *
 * JOB ENDED NORMALLY *
 *                    *
 **********************



 TOTAL JOB TIME:             3.38 SECONDS

 == MOPAC DONE ==
