 *******************************************************************************
 ** Site#: 37037        For non-commercial use only           Version 21.153W **
 *******************************************************************************
 ** Cite this program as: MOPAC2016, Version: 21.153W, James J. P. Stewart,   **
 ** Stewart Computational Chemistry, web: HTTP://OpenMOPAC.net. Days left: 364**
 *******************************************************************************
 **                                                                           **
 **                                MOPAC2016                                  **
 **                                                                           **
 *******************************************************************************

                              PM7 CALCULATION RESULTS

 *******************************************************************************
 *  CALCULATION DONE:                                Thu Jun  3 09:21:07 2021  *
 *  T=         - A TIME OF 172800.0 SECONDS REQUESTED
 *  DUMP=N     - RESTART FILE WRITTEN EVERY 7200.0 SECONDS REQUESTED
 *  NOTXT      - DO NOT PRINT TEXT ASSOCIATED WITH AN ATOM
 *  HTML       - WRITE HTML SCRIPT TO READ PDB FILE USING JSMOL
 *******************************************************************************
 html notxt
 bicyclo[2,2,1]heptene

   ATOM   CHEMICAL          X               Y               Z
  NUMBER   SYMBOL      (ANGSTROMS)     (ANGSTROMS)     (ANGSTROMS)
 
     1       C         -0.54777829  *  -1.01620023  *  -0.26707396  *
     2       C          0.95424815  *  -1.03575511  *  -0.53074149  *
     3       C          1.38819693  *   0.23819202  *  -0.53169100  *
     4       C          0.18612717  *   1.13924980  *  -0.26647580  *
     5       C         -0.93324652  *   0.31752126  *  -0.99093843  *
     6       C         -0.70014522  *  -0.58394524  *   1.22649838  *
     7       C         -0.19828925  *   0.88995372  *   1.22666559  *
     8       H         -1.10522082  *  -1.90657285  *  -0.54997600  *
     9       H          1.49640542  *  -1.94519048  *  -0.66111747  *
    10       H          2.37265569  *   0.62778503  *  -0.66089507  *
    11       H          0.28774487  *   2.18477454  *  -0.55061057  *
    12       H         -0.80980061  *   0.27551281  *  -2.07630270  *
    13       H         -1.94688098  *   0.66256409  *  -0.77692956  *
    14       H         -1.74538139  *  -0.65701851  *   1.55270038  *
    15       H         -0.10549026  *  -1.22144444  *   1.89319653  *
    16       H          0.66178755  *   1.03210423  *   1.89284050  *
    17       H         -0.98183799  *   1.58560388  *   1.55254001  *
 


          CARTESIAN COORDINATES 

    NO.       ATOM           X           Y           Z

     1         C         -0.5478     -1.0162     -0.2671
     2         C          0.9542     -1.0358     -0.5307
     3         C          1.3882      0.2382     -0.5317
     4         C          0.1861      1.1392     -0.2665
     5         C         -0.9332      0.3175     -0.9909
     6         C         -0.7001     -0.5839      1.2265
     7         C         -0.1983      0.8900      1.2267
     8         H         -1.1052     -1.9066     -0.5500
     9         H          1.4964     -1.9452     -0.6611
    10         H          2.3727      0.6278     -0.6609
    11         H          0.2877      2.1848     -0.5506
    12         H         -0.8098      0.2755     -2.0763
    13         H         -1.9469      0.6626     -0.7769
    14         H         -1.7454     -0.6570      1.5527
    15         H         -0.1055     -1.2214      1.8932
    16         H          0.6618      1.0321      1.8928
    17         H         -0.9818      1.5856      1.5525

 General Reference for PM7:
 "Optimization of Parameters for Semiempirical Methods VI: More Modifications to the 
 NDDO Approximations and Re-optimization of Parameters", J. J. P. Stewart, J. Mol. Mod., 1:32, 19 (2013)
 https://link.springer.com/article/10.1007/s00894-012-1667-x

           Empirical Formula: C7 H10  =    17 atoms



      MOLECULAR POINT GROUP   :   Cs  


      RHF CALCULATION, NO. OF DOUBLY OCCUPIED LEVELS = 19


          Geometry optimization using EF

     GRADIENT =  0.94758 IS LESS THAN CUTOFF =  1.00000



 -------------------------------------------------------------------------------
 html notxt
 bicyclo[2,2,1]heptene



     GRADIENTS WERE INITIALLY ACCEPTABLY SMALL                
     SCF FIELD WAS ACHIEVED                                   


                              PM7 CALCULATION
                                                       MOPAC2016 (Version: 21.153W)
                                                       Thu Jun  3 09:21:07 2021
                                                       No. of days remaining = 364




          FINAL HEAT OF FORMATION =         23.94535 KCAL/MOL =     100.18736 KJ/MOL


          TOTAL ENERGY            =       -993.92493 EV
          ELECTRONIC ENERGY       =      -4881.37602 EV  POINT GROUP:     Cs  
          CORE-CORE REPULSION     =       3887.45109 EV
          COSMO AREA              =        133.93 SQUARE ANGSTROMS
          COSMO VOLUME            =        130.05 CUBIC ANGSTROMS

          GRADIENT NORM           =          0.94758 = 0.22982 PER ATOM
          IONIZATION POTENTIAL    =          9.665534 EV
          HOMO LUMO ENERGIES (EV) =         -9.666  1.097
          NO. OF FILLED LEVELS    =         19
          MOLECULAR WEIGHT        =         94.1560

          MOLECULAR DIMENSIONS (Angstroms)

            Atom       Atom       Distance
            H    14    H    10     4.84860
            H    17    H     9     4.33090
            H    15    H    12     3.96676


          SCF CALCULATIONS        =          1
 
          WALL-CLOCK TIME         =          0.031 SECONDS
          COMPUTATION TIME        =          0.094 SECONDS




   ATOM   CHEMICAL          X               Y               Z
  NUMBER   SYMBOL      (ANGSTROMS)     (ANGSTROMS)     (ANGSTROMS)
 
     1       C         -0.54777829  *  -1.01620023  *  -0.26707396  *
     2       C          0.95424815  *  -1.03575511  *  -0.53074149  *
     3       C          1.38819693  *   0.23819202  *  -0.53169100  *
     4       C          0.18612717  *   1.13924980  *  -0.26647580  *
     5       C         -0.93324652  *   0.31752126  *  -0.99093843  *
     6       C         -0.70014522  *  -0.58394524  *   1.22649838  *
     7       C         -0.19828925  *   0.88995372  *   1.22666559  *
     8       H         -1.10522082  *  -1.90657285  *  -0.54997600  *
     9       H          1.49640542  *  -1.94519048  *  -0.66111747  *
    10       H          2.37265569  *   0.62778503  *  -0.66089507  *
    11       H          0.28774487  *   2.18477454  *  -0.55061057  *
    12       H         -0.80980061  *   0.27551281  *  -2.07630270  *
    13       H         -1.94688098  *   0.66256409  *  -0.77692956  *
    14       H         -1.74538139  *  -0.65701851  *   1.55270038  *
    15       H         -0.10549026  *  -1.22144444  *   1.89319653  *
    16       H          0.66178755  *   1.03210423  *   1.89284050  *
    17       H         -0.98183799  *   1.58560388  *   1.55254001  *

                             CARTESIAN COORDINATES

   1    C       -0.547778290    -1.016200230    -0.267073960
   2    C        0.954248150    -1.035755110    -0.530741490
   3    C        1.388196930     0.238192020    -0.531691000
   4    C        0.186127170     1.139249800    -0.266475800
   5    C       -0.933246520     0.317521260    -0.990938430
   6    C       -0.700145220    -0.583945240     1.226498380
   7    C       -0.198289250     0.889953720     1.226665590
   8    H       -1.105220820    -1.906572850    -0.549976000
   9    H        1.496405420    -1.945190480    -0.661117470
  10    H        2.372655690     0.627785030    -0.660895070
  11    H        0.287744870     2.184774540    -0.550610570
  12    H       -0.809800610     0.275512810    -2.076302700
  13    H       -1.946880980     0.662564090    -0.776929560
  14    H       -1.745381390    -0.657018510     1.552700380
  15    H       -0.105490260    -1.221444440     1.893196530
  16    H        0.661787550     1.032104230     1.892840500
  17    H       -0.981837990     1.585603880     1.552540010


           Empirical Formula: C7 H10  =    17 atoms



      MOLECULAR POINT GROUP   :   Cs  


                  EIGENVALUES  
 -31.93845 -25.66842 -24.63061 -23.89658 -19.91461 -19.16989 -17.52053 -17.51791
 -16.15626 -14.96206 -13.61108 -13.09873 -12.24128 -12.11164 -12.03858 -11.95453
 -11.70140 -10.95438  -9.66553   1.09725   3.56925   3.66747   3.77963   3.96208
   4.41769   5.11080   5.20605   5.55499   5.96444   6.04212   6.09861   6.15789
   6.41409   6.41928   6.51545   6.51974   6.65217   6.65290


              NET ATOMIC CHARGES AND DIPOLE CONTRIBUTIONS

  ATOM NO.   TYPE          CHARGE      No. of ELECS.   s-Pop       p-Pop       
    1          C          -0.102084        4.1021     1.07524     3.02684
    2          C          -0.172341        4.1723     1.10204     3.07030
    3          C          -0.172532        4.1725     1.10210     3.07043
    4          C          -0.101987        4.1020     1.07537     3.02662
    5          C          -0.280861        4.2809     1.08030     3.20056
    6          C          -0.272286        4.2723     1.07075     3.20153
    7          C          -0.272345        4.2723     1.07062     3.20172
    8          H           0.133541        0.8665     0.86646
    9          H           0.145364        0.8546     0.85464
   10          H           0.145376        0.8546     0.85462
   11          H           0.133525        0.8665     0.86647
   12          H           0.138347        0.8617     0.86165
   13          H           0.136557        0.8634     0.86344
   14          H           0.133690        0.8663     0.86631
   15          H           0.137145        0.8629     0.86286
   16          H           0.137154        0.8628     0.86285
   17          H           0.133737        0.8663     0.86626
 DIPOLE           X         Y         Z       TOTAL
 POINT-CHG.    -0.352     0.119     0.240     0.442
 HYBRID        -0.013     0.004     0.094     0.095
 SUM           -0.365     0.124     0.333     0.510


          ATOMIC ORBITAL ELECTRON POPULATIONS

                  Atom                 s        px        py        pz   
   C(HETATM    1  C   HET A   1)   1.07524   1.00342   1.03573   0.98770
   C(HETATM    2  C   HET A   1)   1.10204   1.01671   1.04404   1.00955
   C(HETATM    3  C   HET A   1)   1.10210   1.05032   1.01041   1.00970
   C(HETATM    4  C   HET A   1)   1.07537   0.98325   1.05578   0.98759
   C(HETATM    5  C   HET A   1)   1.08030   1.08399   1.01346   1.10310
   C(HETATM    6  C   HET A   1)   1.07075   1.13799   1.02852   1.03502
   C(HETATM    7  C   HET A   1)   1.07062   1.13367   1.03292   1.03513
   H(HETATM    8  H   HET A   1)   0.86646
   H(HETATM    9  H   HET A   1)   0.85464
   H(HETATM   10  H   HET A   1)   0.85462
   H(HETATM   11  H   HET A   1)   0.86647
   H(HETATM   12  H   HET A   1)   0.86165
   H(HETATM   13  H   HET A   1)   0.86344
   H(HETATM   14  H   HET A   1)   0.86631
   H(HETATM   15  H   HET A   1)   0.86286
   H(HETATM   16  H   HET A   1)   0.86285
   H(HETATM   17  H   HET A   1)   0.86626

 **********************
 *                    *
 * JOB ENDED NORMALLY *
 *                    *
 **********************



 TOTAL JOB TIME:             0.06 SECONDS

 == MOPAC DONE ==
