 *******************************************************************************
 ** Site#: 29054        For non-commercial use only    Version 18.025W 64BITS **
 *******************************************************************************
 ** Cite this program as: MOPAC2016, Version: 18.025W, James J. P. Stewart,   **
 ** Stewart Computational Chemistry, web: HTTP://OpenMOPAC.net. Days left: 365**
 *******************************************************************************
 **                                                                           **
 **                                MOPAC2016                                  **
 **                                                                           **
 *******************************************************************************

                              PM7 CALCULATION RESULTS


 *******************************************************************************
 *  CALCULATION DONE:                                Thu Jan 25 10:26:56 2018  *
 *  OPT        - OPTIMIZE COORDINATES OF ALL ATOMS
 *  TS         - USE EF ROUTINE FOR TS SEARCH
 *  T=         - A TIME OF 172800.0 SECONDS REQUESTED
 *  DUMP=N     - RESTART FILE WRITTEN EVERY  7200.000 SECONDS
 *******************************************************************************
  TS opt
       Cyclopentadiene plus ethylene
      Path to find the transition state
  ATOM               CHEMICAL                 BOND LENGTH      BOND ANGLE     TWIST ANGLE 
 NUMBER               SYMBOL                  (ANGSTROMS)      (DEGREES)       (DEGREES) 
   (I)                                           NA:I           NB:NA:I       NC:NB:NA:I       NA    NB    NC 
     1       C(HETATM    1  C1  HET A   1)    0.00000000       0.0000000       0.0000000   
     2       C(HETATM    2  C2  HET A   1)    1.40480665  *    0.0000000       0.0000000        1     0     0
     3       C(HETATM    3  C3  HET A   1)    1.40697464  *  108.8183226  *    0.0000000        2     1     0
     4       C(HETATM    4  C4  HET A   1)    1.40486362  *  108.7916730  *    0.0788865  *     3     2     1
     5       C(HETATM    5  C5  HET A   1)    1.52099590  *  107.3158157  *  -18.7328970  *     4     3     2
     6       C(HETATM    6  C1  HET B   2)    2.11000000  *   96.2947194  *  -74.3634803  *     1     2     3
     7       C(HETATM    7  C2  HET B   2)    2.11000000  *   96.4033747  *   74.2297960  *     4     3     2
     8       H(HETATM    8  H1  HET A   1)    1.07000647  *  126.5785904  * -109.4592869  *     1     2     6
     9       H(HETATM    9  H2  HET A   1)    1.07176477  *  125.6198566  *  174.8237618  *     2     1     3
    10       H(HETATM   10  H3  HET A   1)    1.07170920  *  125.3483873  *  174.7278351  *     3     2     4
    11       H(HETATM   11  H4  HET A   1)    1.07008575  *  126.5581664  * -157.5105615  *     4     3     5
    12       H(HETATM   12 1H5  HET A   1)    1.10832303  *  110.7178158  *  -88.4061135  *     5     4     3
    13       H(HETATM   13 2H5  HET A   1)    1.09657219  *  115.1308471  * -120.5181329  *     5     4    12
    14       H(HETATM   14 1H1  HET B   2)    1.07978026  *   92.0252644  *  122.8688789  *     6     1     7
    15       H(HETATM   15 2H1  HET B   2)    1.07991581  *   94.8699118  *  113.6857640  *     6     1    14
    16       H(HETATM   16 1H2  HET B   2)    1.07993732  *  121.1414962  * -103.9351997  *     7     6     1
    17       H(HETATM   17 2H2  HET B   2)    1.07985691  *  121.4096442  * -155.6954606  *     7     6    16
 

 General Reference for PM7:
 "Optimization of Parameters for Semiempirical Methods VI: More Modifications to the 
 NDDO Approximations and Re-optimization of Parameters", J. J. P. Stewart, J. Mol. Mod., 1:32, 19 (2013)
 http://www.springerlink.com/openurl.asp?genre=article&id=doi:10.1007/s00894-012-1667-x

           Empirical Formula: C7 H10  =    17 atoms



      MOLECULAR POINT GROUP   :   Cs  


      RHF CALCULATION, NO. OF DOUBLY OCCUPIED LEVELS = 19


          Transition state refinement using EF

          HESSIAN CALCULATED NUMERICALLY

 CYCLE:     1 TIME:   0.188 TIME LEFT:  2.00D  GRAD.:     1.397 HEAT:  69.14675
 CYCLE:     2 TIME:   0.000 TIME LEFT:  2.00D  GRAD.:     0.150 HEAT:  69.14767

     GRADIENT =  0.15044  IS LESS THAN CUTOFF =  1.00000



 -------------------------------------------------------------------------------
 TS opt
       Cyclopentadiene plus ethylene
      Path to find the transition state


     GEOMETRY OPTIMISED USING EIGENVECTOR FOLLOWING (TS).     
     SCF FIELD WAS ACHIEVED                                   


                              PM7 CALCULATION
                                                       MOPAC2016 (Version: 18.025W)
                                                       Thu Jan 25 10:26:56 2018
                                                       No. of days remaining = 365




          FINAL HEAT OF FORMATION =         69.14767 KCAL/MOL =     289.31386 KJ/MOL


          TOTAL ENERGY            =       -991.95670 EV
          ELECTRONIC ENERGY       =      -4796.43470 EV  POINT GROUP:     Cs  
          CORE-CORE REPULSION     =       3804.47800 EV
          COSMO AREA              =        136.56 SQUARE ANGSTROMS
          COSMO VOLUME            =        134.05 CUBIC ANGSTROMS

          GRADIENT NORM           =          0.15044
          IONIZATION POTENTIAL    =          8.912149 EV
          HOMO LUMO ENERGIES (EV) =         -8.912  0.490
          NO. OF FILLED LEVELS    =         19
          MOLECULAR WEIGHT        =         94.1560

          MOLECULAR DIMENSIONS (Angstroms)

            Atom       Atom       Distance
            H    14    H    10     4.77286
            H    16    H    12     4.39864
            H     9    H    11     4.31579


          SCF CALCULATIONS        =         48
 
          WALL-CLOCK TIME         =          0.203 SECONDS
          COMPUTATION TIME        =          0.718 SECONDS




  ATOM               CHEMICAL                 BOND LENGTH      BOND ANGLE     TWIST ANGLE 
 NUMBER               SYMBOL                  (ANGSTROMS)      (DEGREES)       (DEGREES) 
   (I)                                           NA:I           NB:NA:I       NC:NB:NA:I       NA    NB    NC 
     1       C(HETATM    1  C1  HET A   1)    0.00000000       0.0000000       0.0000000   
     2       C(HETATM    2  C2  HET A   1)    1.40393397  *    0.0000000       0.0000000        1     0     0
     3       C(HETATM    3  C3  HET A   1)    1.40786865  *  108.8055980  *    0.0000000        2     1     0
     4       C(HETATM    4  C4  HET A   1)    1.40385327  *  108.8094491  *   -0.0122440  *     3     2     1
     5       C(HETATM    5  C5  HET A   1)    1.52085172  *  107.3468556  *  -18.5552138  *     4     3     2
     6       C(HETATM    6  C1  HET B   2)    2.11148844  *   96.2992391  *  -74.3237281  *     1     2     3
     7       C(HETATM    7  C2  HET B   2)    2.11239535  *   96.2772594  *   74.3022495  *     4     3     2
     8       H(HETATM    8  H1  HET A   1)    1.06996945  *  126.5967495  * -109.4363794  *     1     2     6
     9       H(HETATM    9  H2  HET A   1)    1.07172996  *  125.6440575  *  174.7423262  *     2     1     3
    10       H(HETATM   10  H3  HET A   1)    1.07174303  *  125.3042777  *  174.7684487  *     3     2     4
    11       H(HETATM   11  H4  HET A   1)    1.06999757  *  126.6092822  * -157.7430912  *     4     3     5
    12       H(HETATM   12 1H5  HET A   1)    1.10838444  *  110.6955726  *  -88.6190136  *     5     4     3
    13       H(HETATM   13 2H5  HET A   1)    1.09662068  *  115.1130185  * -120.4531307  *     5     4    12
    14       H(HETATM   14 1H1  HET B   2)    1.07979262  *   91.9631743  *  122.8846439  *     6     1     7
    15       H(HETATM   15 2H1  HET B   2)    1.07992403  *   94.7962074  *  113.6546306  *     6     1    14
    16       H(HETATM   16 1H2  HET B   2)    1.07992528  *  121.1644399  * -103.6417305  *     7     6     1
    17       H(HETATM   17 2H2  HET B   2)    1.07975614  *  121.4619096  * -156.0868493  *     7     6    16

                             CARTESIAN COORDINATES

   1    C        0.000000000     0.000000000     0.000000000
   2    C        1.403933969     0.000000000     0.000000000
   3    C        1.857771950     1.332713478     0.000000000
   4    C        0.745738556     2.189559827    -0.000283979
   5    C       -0.453337993     1.376150784    -0.462421531
   6    C       -0.231674857     0.567083241     2.020674839
   7    C        0.215625500     1.880656161     2.021045478
   8    H       -0.637893671    -0.857177199    -0.056334226
   9    H        2.028482491    -0.867280098     0.079808986
  10    H        2.881922208     1.638261267     0.079936979
  11    H        0.763437742     3.257969280    -0.055806762
  12    H       -0.546059577     1.407716467    -1.566469708
  13    H       -1.420564438     1.705566631    -0.064256838
  14    H       -1.285100134     0.330439188     2.004962263
  15    H        0.381274976    -0.232420413     2.409676535
  16    H        1.189194325     2.139394626     2.410219939
  17    H       -0.474440183     2.710979787     2.005381837


           Empirical Formula: C7 H10  =    17 atoms



      MOLECULAR POINT GROUP   :   Cs  


                  EIGENVALUES  
 -31.20037 -25.89554 -24.27623 -24.21825 -19.90937 -19.08357 -17.99239 -17.46301
 -15.86768 -14.96483 -13.94186 -13.04589 -12.98077 -12.64839 -12.45708 -11.78327
 -11.43821  -8.92112  -8.91215   0.48951   0.73204   2.46618   3.83670   4.31520
   4.94888   5.43641   5.65580   5.77198   5.78774   6.01158   6.09073   6.25525
   6.43711   6.51103   6.54079   6.63276   6.73553   6.76446


              NET ATOMIC CHARGES AND DIPOLE CONTRIBUTIONS

  ATOM NO.                 TYPE                        CHARGE      No. of ELECS.   s-Pop       p-Pop       
    1          C(HETATM    1  C1  HET A   1)          -0.099197        4.0992     1.10838     2.99082
    2          C(HETATM    2  C2  HET A   1)          -0.190378        4.1904     1.08726     3.10312
    3          C(HETATM    3  C3  HET A   1)          -0.190221        4.1902     1.08725     3.10297
    4          C(HETATM    4  C4  HET A   1)          -0.099304        4.0993     1.10836     2.99094
    5          C(HETATM    5  C5  HET A   1)          -0.292837        4.2928     1.06590     3.22694
    6          C(HETATM    6  C1  HET B   2)          -0.282836        4.2828     1.09631     3.18652
    7          C(HETATM    7  C2  HET B   2)          -0.282883        4.2829     1.09635     3.18653
    8          H(HETATM    8  H1  HET A   1)           0.138069        0.8619     0.86193
    9          H(HETATM    9  H2  HET A   1)           0.148387        0.8516     0.85161
   10          H(HETATM   10  H3  HET A   1)           0.148387        0.8516     0.85161
   11          H(HETATM   11  H4  HET A   1)           0.138101        0.8619     0.86190
   12          H(HETATM   12 1H5  HET A   1)           0.162045        0.8380     0.83796
   13          H(HETATM   13 2H5  HET A   1)           0.153553        0.8464     0.84645
   14          H(HETATM   14 1H1  HET B   2)           0.135474        0.8645     0.86453
   15          H(HETATM   15 2H1  HET B   2)           0.139079        0.8609     0.86092
   16          H(HETATM   16 1H2  HET B   2)           0.139084        0.8609     0.86092
   17          H(HETATM   17 2H2  HET B   2)           0.135477        0.8645     0.86452

          NET CHARGE ON RESIDUES

      Residue         Charge  Anion or
                              Cation?
      HET A   1       +0.017
      HET B   2       -0.017
 


 DIPOLE           X         Y         Z       TOTAL
 POINT-CHG.    -0.663     0.225    -0.238     0.740
 HYBRID        -0.074     0.025    -0.050     0.093
 SUM           -0.737     0.250    -0.289     0.830


          ATOMIC ORBITAL ELECTRON POPULATIONS

                   Atom                  s        px        py        pz   
   C(HETATM    1  C1  HET A   1)   1.10838   1.01279   1.02013   0.95790
   C(HETATM    2  C2  HET A   1)   1.08726   1.01451   1.04243   1.04618
   C(HETATM    3  C3  HET A   1)   1.08725   1.05569   1.00124   1.04604
   C(HETATM    4  C4  HET A   1)   1.10836   0.98347   1.04946   0.95801
   C(HETATM    5  C5  HET A   1)   1.06590   1.07946   1.02043   1.12704
   C(HETATM    6  C1  HET B   2)   1.09631   1.11980   1.04432   1.02240
   C(HETATM    7  C2  HET B   2)   1.09635   1.12085   1.04322   1.02247
   H(HETATM    8  H1  HET A   1)   0.86193
   H(HETATM    9  H2  HET A   1)   0.85161
   H(HETATM   10  H3  HET A   1)   0.85161
   H(HETATM   11  H4  HET A   1)   0.86190
   H(HETATM   12 1H5  HET A   1)   0.83796
   H(HETATM   13 2H5  HET A   1)   0.84645
   H(HETATM   14 1H1  HET B   2)   0.86453
   H(HETATM   15 2H1  HET B   2)   0.86092
   H(HETATM   16 1H2  HET B   2)   0.86092
   H(HETATM   17 2H2  HET B   2)   0.86452
 *******************************************************************************
 ** Site#: 29054        For non-commercial use only    Version 18.025W 64BITS **
 *******************************************************************************
 ** Cite this program as: MOPAC2016, Version: 18.025W, James J. P. Stewart,   **
 ** Stewart Computational Chemistry, web: HTTP://OpenMOPAC.net. Days left: 365**
 *******************************************************************************
 **                                                                           **
 **                                MOPAC2016                                  **
 **                                                                           **
 *******************************************************************************

                              PM7 CALCULATION RESULTS


 *******************************************************************************
 *  CALCULATION DONE:                                Thu Jan 25 10:26:56 2018  *
 *  OLDGEO     - PREVIOUS GEOMETRY TO BE USED
 *  FORCE      - FORCE CALCULATION SPECIFIED
 *  T=         - A TIME OF 172800.0 SECONDS REQUESTED
 *  DUMP=N     - RESTART FILE WRITTEN EVERY  7200.000 SECONDS
 *  ISOTOPE    - FORCE MATRIX WRITTEN TO DISK (CHAN. 9 )
 *******************************************************************************
oldgeo FORCE isotope
       Cyclopentadiene plus ethylene
      Path to find the transition state
  ATOM               CHEMICAL                 BOND LENGTH      BOND ANGLE     TWIST ANGLE 
 NUMBER               SYMBOL                  (ANGSTROMS)      (DEGREES)       (DEGREES) 
   (I)                                           NA:I           NB:NA:I       NC:NB:NA:I       NA    NB    NC 
     1       C(HETATM    1  C1  HET A   1)    0.00000000       0.0000000       0.0000000   
     2       C(HETATM    2  C2  HET A   1)    1.40393397  *    0.0000000       0.0000000        1     0     0
     3       C(HETATM    3  C3  HET A   1)    1.40786865  *  108.8055980  *    0.0000000        2     1     0
     4       C(HETATM    4  C4  HET A   1)    1.40385327  *  108.8094491  *   -0.0122440  *     3     2     1
     5       C(HETATM    5  C5  HET A   1)    1.52085172  *  107.3468556  *  -18.5552138  *     4     3     2
     6       C(HETATM    6  C1  HET B   2)    2.11148844  *   96.2992391  *  -74.3237281  *     1     2     3
     7       C(HETATM    7  C2  HET B   2)    2.11239535  *   96.2772594  *   74.3022495  *     4     3     2
     8       H(HETATM    8  H1  HET A   1)    1.06996945  *  126.5967495  * -109.4363794  *     1     2     6
     9       H(HETATM    9  H2  HET A   1)    1.07172996  *  125.6440575  *  174.7423262  *     2     1     3
    10       H(HETATM   10  H3  HET A   1)    1.07174303  *  125.3042777  *  174.7684487  *     3     2     4
    11       H(HETATM   11  H4  HET A   1)    1.06999757  *  126.6092822  * -157.7430912  *     4     3     5
    12       H(HETATM   12 1H5  HET A   1)    1.10838444  *  110.6955726  *  -88.6190136  *     5     4     3
    13       H(HETATM   13 2H5  HET A   1)    1.09662068  *  115.1130185  * -120.4531307  *     5     4    12
    14       H(HETATM   14 1H1  HET B   2)    1.07979262  *   91.9631743  *  122.8846439  *     6     1     7
    15       H(HETATM   15 2H1  HET B   2)    1.07992403  *   94.7962074  *  113.6546306  *     6     1    14
    16       H(HETATM   16 1H2  HET B   2)    1.07992528  *  121.1644399  * -103.6417305  *     7     6     1
    17       H(HETATM   17 2H2  HET B   2)    1.07975614  *  121.4619096  * -156.0868493  *     7     6    16
 

 General Reference for PM7:
 "Optimization of Parameters for Semiempirical Methods VI: More Modifications to the 
 NDDO Approximations and Re-optimization of Parameters", J. J. P. Stewart, J. Mol. Mod., 1:32, 19 (2013)
 http://www.springerlink.com/openurl.asp?genre=article&id=doi:10.1007/s00894-012-1667-x

           Empirical Formula: C7 H10  =    17 atoms



      MOLECULAR POINT GROUP   :   Cs  


      RHF CALCULATION, NO. OF DOUBLY OCCUPIED LEVELS = 19



          HEAT OF FORMATION =      69.147672 KCALS/MOLE


          CARTESIAN COORDINATE DERIVATIVES

   NUMBER  ATOM         X            Y            Z

     1       C     -0.056348     0.035636     0.117124
     2       C      0.045008    -0.006199    -0.041957
     3       C     -0.010939     0.028912    -0.030653
     4       C     -0.030731    -0.023615    -0.021550
     5       C      0.010610    -0.014097    -0.030073
     6       C      0.011016    -0.051479    -0.020643
     7       C      0.007433     0.085470    -0.021184
     8       H      0.043110     0.029015    -0.015973
     9       H     -0.023611    -0.013160     0.011586
    10       H     -0.002513    -0.006943     0.013905
    11       H      0.012587    -0.014762     0.008986
    12       H      0.011125     0.009523     0.018262
    13       H      0.002687    -0.006834     0.007663
    14       H      0.016466     0.006155    -0.002894
    15       H     -0.028280    -0.022889    -0.006505
    16       H      0.004897    -0.005997     0.015216
    17       H     -0.012522    -0.028743    -0.001313
 


          GRADIENT NORM =   0.21498

          MOLECULAR WEIGHT =   94.16



          ROTATIONAL CONSTANTS IN CM(-1)

          A =    0.12510471   B =    0.09988443   C =    0.09160204



           PRINCIPAL MOMENTS OF INERTIA IN UNITS OF 10**(-40)*GRAM-CM**2

          A =      223.7548   B =      280.2516   C =      305.5912


          ORIENTATION OF MOLECULE IN FORCE CALCULATION

    NO.       ATOM         X         Y         Z

     1          C      -0.4822   -1.0574   -0.5341
     2          C       0.9218   -1.0574   -0.5341
     3          C       1.3756    0.2754   -0.5341
     4          C       0.2636    1.1322   -0.5344
     5          C      -0.9355    0.3188   -0.9966
     6          C      -0.7138   -0.4903    1.4865
     7          C      -0.2665    0.8233    1.4869
     8          H      -1.1201   -1.9145   -0.5905
     9          H       1.5463   -1.9246   -0.4543
    10          H       2.3998    0.5809   -0.4542
    11          H       0.2813    2.2006   -0.5899
    12          H      -1.0282    0.3504   -2.1006
    13          H      -1.9027    0.6482   -0.5984
    14          H      -1.7673   -0.7269    1.4708
    15          H      -0.1009   -1.2898    1.8755
    16          H       0.7070    1.0820    1.8761
    17          H      -0.9566    1.6536    1.4712


    FIRST DERIVATIVES WILL BE USED IN THE CALCULATION OF SECOND DERIVATIVES

    FOR POINT-GROUP Cs   THERE ARE   2 UNIQUE SYMMETRY FUNCTIONS.

 STEP:   1 TIME =     0.00 SECS, INTEGRAL =      0.00 TIME LEFT: 172800.00
 STEP:   2 TIME =     0.02 SECS, INTEGRAL =      0.02 TIME LEFT: 172799.98
 STEP:   3 TIME =     0.02 SECS, INTEGRAL =      0.03 TIME LEFT: 172799.97
 STEP:   4 TIME =     0.00 SECS, INTEGRAL =      0.03 TIME LEFT: 172799.97
 STEP:   5 TIME =     0.02 SECS, INTEGRAL =      0.05 TIME LEFT: 172799.95
 STEP:   6 TIME =     0.02 SECS, INTEGRAL =      0.06 TIME LEFT: 172799.94
 STEP:   7                       INTEGRAL =      0.06 TIME LEFT: 172799.94
 STEP:   8                       INTEGRAL =      0.06 TIME LEFT: 172799.94
 STEP:   9                       INTEGRAL =      0.06 TIME LEFT: 172799.94
 STEP:  10                       INTEGRAL =      0.06 TIME LEFT: 172799.94
 STEP:  11                       INTEGRAL =      0.06 TIME LEFT: 172799.94
 STEP:  12                       INTEGRAL =      0.06 TIME LEFT: 172799.94
 STEP:  13 TIME =     0.02 SECS, INTEGRAL =      0.08 TIME LEFT: 172799.92
 STEP:  14 TIME =     0.00 SECS, INTEGRAL =      0.08 TIME LEFT: 172799.92
 STEP:  15 TIME =     0.02 SECS, INTEGRAL =      0.09 TIME LEFT: 172799.91
 STEP:  16 TIME =     0.02 SECS, INTEGRAL =      0.11 TIME LEFT: 172799.89
 STEP:  17 TIME =     0.00 SECS, INTEGRAL =      0.11 TIME LEFT: 172799.89
 STEP:  18 TIME =     0.02 SECS, INTEGRAL =      0.12 TIME LEFT: 172799.88
 STEP:  19                       INTEGRAL =      0.12 TIME LEFT: 172799.88
 STEP:  20                       INTEGRAL =      0.12 TIME LEFT: 172799.88
 STEP:  21                       INTEGRAL =      0.12 TIME LEFT: 172799.88
 STEP:  22 TIME =     0.02 SECS, INTEGRAL =      0.14 TIME LEFT: 172799.86
 STEP:  23 TIME =     0.02 SECS, INTEGRAL =      0.16 TIME LEFT: 172799.84
 STEP:  24 TIME =     0.00 SECS, INTEGRAL =      0.16 TIME LEFT: 172799.84
 STEP:  25 TIME =     0.02 SECS, INTEGRAL =      0.17 TIME LEFT: 172799.83
 STEP:  26 TIME =     0.02 SECS, INTEGRAL =      0.19 TIME LEFT: 172799.81
 STEP:  27 TIME =     0.00 SECS, INTEGRAL =      0.19 TIME LEFT: 172799.81
 STEP:  28                       INTEGRAL =      0.19 TIME LEFT: 172799.81
 STEP:  29                       INTEGRAL =      0.19 TIME LEFT: 172799.81
 STEP:  30                       INTEGRAL =      0.19 TIME LEFT: 172799.81
 STEP:  31                       INTEGRAL =      0.19 TIME LEFT: 172799.81
 STEP:  32                       INTEGRAL =      0.19 TIME LEFT: 172799.81
 STEP:  33                       INTEGRAL =      0.19 TIME LEFT: 172799.81
 STEP:  34 TIME =     0.02 SECS, INTEGRAL =      0.20 TIME LEFT: 172799.80
 STEP:  35 TIME =     0.00 SECS, INTEGRAL =      0.20 TIME LEFT: 172799.80
 STEP:  36 TIME =     0.02 SECS, INTEGRAL =      0.22 TIME LEFT: 172799.78
 STEP:  37 TIME =     0.00 SECS, INTEGRAL =      0.22 TIME LEFT: 172799.78
 STEP:  38 TIME =     0.02 SECS, INTEGRAL =      0.23 TIME LEFT: 172799.77
 STEP:  39 TIME =     0.00 SECS, INTEGRAL =      0.23 TIME LEFT: 172799.77
 STEP:  40 TIME =     0.02 SECS, INTEGRAL =      0.25 TIME LEFT: 172799.75
 STEP:  41 TIME =     0.00 SECS, INTEGRAL =      0.25 TIME LEFT: 172799.75
 STEP:  42 TIME =     0.02 SECS, INTEGRAL =      0.27 TIME LEFT: 172799.73
 STEP:  43 TIME =     0.00 SECS, INTEGRAL =      0.27 TIME LEFT: 172799.73
 STEP:  44 TIME =     0.02 SECS, INTEGRAL =      0.28 TIME LEFT: 172799.72
 STEP:  45 TIME =     0.00 SECS, INTEGRAL =      0.28 TIME LEFT: 172799.72
 STEP:  46                       INTEGRAL =      0.28 TIME LEFT: 172799.72
 STEP:  47                       INTEGRAL =      0.28 TIME LEFT: 172799.72
 STEP:  48                       INTEGRAL =      0.28 TIME LEFT: 172799.72
 STEP:  49                       INTEGRAL =      0.28 TIME LEFT: 172799.72
 STEP:  50                       INTEGRAL =      0.28 TIME LEFT: 172799.72
 STEP:  51                       INTEGRAL =      0.28 TIME LEFT: 172799.72

(To convert to Hartree/Bohr^2, multiply by (10^(-21) x N x a0^2)/(4.184 x 627.51) =  0.0642)


           FORCE MATRIX IN MILLIDYNES/ANGSTROM


                  C  1       C  2       C  3       C  4       C  5       C  6
 ------------------------------------------------------------------------------
     C    1  13.450999
     C    2   6.106915  14.833001
     C    3   2.417786   5.799569  14.833001
     C    4   1.989928   2.417167   6.106915  13.450999
     C    5   2.982895   1.116964   1.117052   2.983646  11.907950
     C    6   2.255800   1.846231   1.555809   1.961050   0.677730  12.742355
     C    7   1.960531   1.554506   1.845368   2.254994   0.675149   6.913191
     H    8   3.587793   0.661406   0.117666   0.093638   0.540209   0.269617
     H    9   0.669323   3.599575   0.668044   0.089917   0.068931   0.030482
     H   10   0.091714   0.668836   3.599102   0.671386   0.068833   0.026958
     H   11   0.095673   0.118960   0.659824   3.587896   0.540328   0.106944
     H   12   0.650972   0.025872   0.025624   0.651771   3.242329   0.041809
     H   13   0.609573   0.043251   0.043293   0.609931   3.388782   0.038882
     H   14   0.428284   0.141211   0.130530   0.152006   0.025891   3.521609
     H   15   0.343772   0.102836   0.098018   0.130634   0.020649   3.535245
     H   16   0.134629   0.101916   0.106024   0.347770   0.021069   0.788834
     H   17   0.154359   0.132516   0.143443   0.430411   0.026205   0.795687


                  C  7       H  8       H  9       H 10       H 11       H 12
 ------------------------------------------------------------------------------
     C    7  12.742355
     H    8   0.104677   4.392011
     H    9   0.025297   0.020482   4.439591
     H   10   0.032414   0.007488   0.018694   4.439591
     H   11   0.272116   0.011374   0.007374   0.020482   4.392011
     H   12   0.040983   0.011570   0.009209   0.009152   0.011610   4.199162
     H   13   0.038899   0.009439   0.008598   0.008516   0.009552   0.454823
     H   14   0.794655   0.021443   0.002946   0.004455   0.008503   0.004001
     H   15   0.787702   0.009808   0.005576   0.004947   0.007527   0.002485
     H   16   3.535660   0.007704   0.004967   0.005513   0.009842   0.002472
     H   17   3.521462   0.008520   0.004472   0.002840   0.021412   0.003549


                  H 13       H 14       H 15       H 16       H 17
 ------------------------------------------------------------------
     H   13   4.285125
     H   14   0.021613   4.294424
     H   15   0.004098   0.454058   4.300145
     H   16   0.003993   0.077240   0.050160   4.300145
     H   17   0.021495   0.055677   0.077083   0.454058   4.294424


          HEAT OF FORMATION =      69.147672 KCALS/MOLE

          ZERO POINT ENERGY      87.530 KCAL/MOL

         NOTE: SYSTEM IS NOT A GROUND STATE, THEREFORE ZERO POINT
         ENERGY IS NOT MEANINGFULL. ZERO POINT ENERGY PRINTED
         DOES NOT INCLUDE THE  1 IMAGINARY FREQUENCIES


           NORMAL COORDINATE ANALYSIS (Total motion = 1 Angstrom)


   Root No.       1         2         3         4         5         6         7         8

                 1 A'      1 A"      2 A"      2 A'      3 A'      3 A"      4 A"      4 A'  

                -826.2     193.1     279.7     290.0     432.6     504.2     519.6     702.9
  
           1    0.0348   -0.0140   -0.0102   -0.0227    0.0099    0.0009   -0.0043    0.0045
           2   -0.0263    0.0063    0.0340    0.0076   -0.0053    0.0079    0.0017    0.0060
           3   -0.1089   -0.0123    0.0626   -0.0215   -0.0235    0.0217    0.0431   -0.0033
           4   -0.0320   -0.0149   -0.0056   -0.0234    0.0080    0.0022    0.0007    0.0112
           5   -0.0228   -0.0139    0.0158    0.0077   -0.0022    0.0067   -0.0058   -0.0018
           6   -0.0017   -0.0095    0.0409    0.0516    0.0247   -0.0491   -0.0324    0.0021
           7   -0.0115    0.0034    0.0141   -0.0233    0.0077    0.0023   -0.0041    0.0100
           8    0.0376   -0.0201    0.0091    0.0082   -0.0031    0.0066   -0.0042   -0.0054
           9   -0.0017    0.0095   -0.0408    0.0516    0.0247    0.0491    0.0323    0.0021
          10    0.0437    0.0149    0.0288   -0.0226    0.0111    0.0041    0.0044   -0.0001
          11   -0.0002   -0.0035    0.0208    0.0079   -0.0018    0.0068   -0.0012   -0.0075
          12   -0.1089    0.0123   -0.0626   -0.0215   -0.0234   -0.0217   -0.0431   -0.0033
          13    0.0065    0.0054    0.0086   -0.0077   -0.0282    0.0006   -0.0036    0.0023
          14   -0.0022    0.0160    0.0253    0.0026    0.0096    0.0017   -0.0105   -0.0008
          15    0.0079    0.0000    0.0000   -0.0471    0.0602   -0.0000   -0.0000   -0.0043
          16   -0.0085    0.0569   -0.0066    0.0456   -0.0001   -0.0162    0.0169   -0.0199
          17    0.0459   -0.0123   -0.0521   -0.0156   -0.0010   -0.0101    0.0077    0.0057
          18    0.1096    0.0122    0.0000   -0.0074   -0.0363    0.0479   -0.0643   -0.0000
          19   -0.0347   -0.0526   -0.0266    0.0457    0.0006    0.0067   -0.0087   -0.0192
          20   -0.0313    0.0250   -0.0453   -0.0155    0.0009   -0.0178    0.0164    0.0076
          21    0.1095   -0.0122   -0.0001   -0.0074   -0.0362   -0.0479    0.0643   -0.0000
          22   -0.0108   -0.0286   -0.0155   -0.0244    0.0212   -0.0027   -0.0017    0.0063
          23    0.0014    0.0176    0.0361    0.0096   -0.0122    0.0092   -0.0037    0.0053
          24    0.0111   -0.0133    0.0553   -0.0342   -0.0630    0.0465    0.0496   -0.0049
          25    0.0056   -0.0275   -0.0188   -0.0285    0.0055    0.0049    0.0007    0.0044
          26    0.0083   -0.0241    0.0107    0.0098   -0.0019   -0.0001   -0.0122   -0.0067
          27    0.0413   -0.0190    0.0802    0.1112    0.0536   -0.1526   -0.1157    0.0028
          28   -0.0006    0.0071    0.0215   -0.0286    0.0055   -0.0040   -0.0080    0.0076
          29   -0.0100   -0.0359   -0.0029    0.0096   -0.0019    0.0027   -0.0093    0.0026
          30    0.0413    0.0189   -0.0801    0.1112    0.0536    0.1526    0.1156    0.0028
          31   -0.0094    0.0334    0.0343   -0.0253    0.0243    0.0077   -0.0009    0.0018
          32    0.0054   -0.0035    0.0192    0.0073   -0.0032    0.0057   -0.0039   -0.0080
          33    0.0110    0.0133   -0.0553   -0.0341   -0.0630   -0.0465   -0.0496   -0.0049
          34   -0.0386    0.0096   -0.0118    0.0211   -0.1725   -0.0115   -0.0230   -0.0218
          35    0.0131    0.0282   -0.0348   -0.0071    0.0586   -0.0337   -0.0677    0.0074
          36    0.0032    0.0000   -0.0000   -0.0498    0.0780   -0.0000   -0.0000   -0.0008
          37    0.0223    0.0075    0.0223   -0.0158    0.0130    0.0063    0.0073    0.0089
          38   -0.0076    0.0222    0.0656    0.0054   -0.0045    0.0185    0.0215   -0.0030
          39    0.0425    0.0000    0.0000   -0.0685    0.1846    0.0000    0.0000    0.0195
          40    0.0096    0.0781   -0.0071    0.0459    0.0009   -0.0178    0.0135   -0.0155
          41   -0.0203   -0.1054   -0.0630   -0.0155   -0.0052    0.0015    0.0060   -0.0084
          42   -0.0681    0.0442    0.0301    0.0200   -0.0419    0.0754   -0.0635    0.2162
          43    0.0075    0.1405    0.0021    0.0554   -0.0039   -0.0191    0.0166    0.0783
          44   -0.0152    0.0448   -0.0383   -0.0187    0.0030   -0.0015   -0.0002   -0.0129
          45   -0.0412   -0.0018    0.0213   -0.0279   -0.0222    0.0670   -0.0711   -0.1835
          46    0.0153   -0.0842   -0.0251    0.0553   -0.0049    0.0143   -0.0133    0.0700
          47    0.0076    0.1211   -0.0291   -0.0189   -0.0000   -0.0128    0.0099   -0.0373
          48   -0.0412    0.0018   -0.0213   -0.0278   -0.0222   -0.0670    0.0711   -0.1835
          49    0.0200   -0.1261   -0.0328    0.0458    0.0040    0.0150   -0.0070   -0.0072
          50    0.0103   -0.0360   -0.0542   -0.0157    0.0036   -0.0096    0.0129    0.0159
          51   -0.0681   -0.0443   -0.0302    0.0200   -0.0419   -0.0754    0.0635    0.2162


   Root No.       9        10        11        12        13        14        15        16

                 5 A'      5 A"      6 A'      7 A'      6 A"      8 A'      9 A'      7 A"  

                 748.0     784.6     846.5     883.4     908.8     923.1     933.0     938.4
  
           1   -0.0250   -0.0666    0.0044   -0.0003    0.0020   -0.0025    0.0100    0.0009
           2   -0.0716   -0.0192   -0.0025    0.0007    0.0062    0.0047    0.0158    0.0002
           3    0.0034   -0.0110    0.0057   -0.0026   -0.0155    0.0001   -0.0042    0.0056
           4   -0.0457   -0.0578   -0.0030    0.0017   -0.0005    0.0070    0.0028    0.0057
           5    0.0043    0.0968   -0.0037    0.0002    0.0018    0.0024   -0.0065   -0.0041
           6    0.0003   -0.0044   -0.0224    0.0033   -0.0136   -0.0233    0.0095    0.0051
           7   -0.0388    0.1048   -0.0001    0.0012    0.0015    0.0041    0.0062   -0.0070
           8    0.0244    0.0415    0.0047   -0.0012    0.0011   -0.0062    0.0034    0.0002
           9    0.0003    0.0045   -0.0224    0.0033    0.0136   -0.0233    0.0095   -0.0051
          10    0.0237    0.0411    0.0050   -0.0007    0.0022   -0.0049   -0.0017   -0.0006
          11    0.0720   -0.0558   -0.0006   -0.0004    0.0062   -0.0022   -0.0186    0.0007
          12    0.0035    0.0109    0.0057   -0.0026    0.0155    0.0001   -0.0042   -0.0056
          13    0.0680   -0.0203    0.0011   -0.0009   -0.0030   -0.0076   -0.0280    0.0003
          14   -0.0231   -0.0598   -0.0004    0.0003   -0.0088    0.0026    0.0095    0.0008
          15    0.0535   -0.0000   -0.0065    0.0060   -0.0000    0.0294    0.0378    0.0000
          16    0.0015   -0.0005    0.0029    0.0145   -0.0042   -0.0036    0.0033   -0.0132
          17    0.0029    0.0024    0.0025   -0.0056   -0.0026   -0.0035    0.0091    0.0057
          18   -0.0242   -0.0022   -0.0087    0.0046   -0.0029    0.0069   -0.0095   -0.0032
          19   -0.0006    0.0019    0.0008    0.0149    0.0018   -0.0007   -0.0030    0.0139
          20   -0.0032    0.0016   -0.0038   -0.0044   -0.0046    0.0049   -0.0093   -0.0036
          21   -0.0242    0.0022   -0.0087    0.0046    0.0029    0.0069   -0.0095    0.0032
          22   -0.0458    0.0117   -0.0270    0.0024   -0.0311    0.0274   -0.0031    0.0103
          23   -0.0534   -0.0770    0.0115    0.0003    0.0179   -0.0101    0.0194   -0.0020
          24    0.0009   -0.0224    0.1712   -0.0286    0.2075   -0.1406    0.0773   -0.0761
          25    0.0135   -0.0921    0.0014    0.0000   -0.0070   -0.0084   -0.0086    0.0143
          26    0.0435    0.0650    0.0168   -0.0030    0.0041    0.0058   -0.0172    0.0017
          27   -0.0171   -0.0048    0.1810   -0.0205    0.0682    0.1479   -0.0330   -0.0126
          28   -0.0158    0.1127   -0.0091    0.0019    0.0081   -0.0102    0.0036   -0.0103
          29   -0.0427   -0.0046   -0.0143    0.0024   -0.0010    0.0004    0.0189    0.0101
          30   -0.0172    0.0048    0.1809   -0.0205   -0.0682    0.1478   -0.0330    0.0126
          31   -0.0038   -0.0562   -0.0285    0.0018    0.0356    0.0280   -0.0143   -0.0094
          32    0.0702   -0.0540    0.0072   -0.0017   -0.0046   -0.0086   -0.0136    0.0046
          33    0.0009    0.0223    0.1712   -0.0286   -0.2075   -0.1406    0.0773    0.0761
          34    0.1471   -0.0162   -0.0410    0.0140    0.0257    0.1083    0.1367   -0.0069
          35   -0.0500   -0.0475    0.0139   -0.0048    0.0757   -0.0368   -0.0464   -0.0203
          36    0.0368   -0.0000    0.0031    0.0020    0.0000    0.0052    0.0039   -0.0000
          37    0.0482    0.0078    0.0150   -0.0069   -0.0200   -0.0407   -0.0762   -0.0009
          38   -0.0164    0.0229   -0.0051    0.0023   -0.0587    0.0139    0.0260   -0.0026
          39   -0.0103    0.0000    0.0372   -0.0143   -0.0000   -0.0819   -0.1276   -0.0000
          40    0.0033   -0.0010   -0.0052   -0.0462   -0.0045   -0.0024    0.0103   -0.0149
          41   -0.0051    0.0021    0.0266    0.1989    0.0019   -0.0055   -0.0181    0.0186
          42    0.0011    0.0177   -0.0089    0.0155    0.0396    0.0251   -0.0718    0.1900
          43    0.0256    0.0122   -0.0149   -0.1414    0.0138   -0.0004    0.0270    0.0532
          44   -0.0042   -0.0027   -0.0157   -0.1359   -0.0190    0.0077   -0.0116   -0.0252
          45   -0.0736   -0.0308   -0.0219   -0.0583   -0.0648    0.0242   -0.0862   -0.1606
          46    0.0229   -0.0113   -0.0023   -0.0293   -0.0225   -0.0050    0.0285   -0.0575
          47   -0.0121    0.0052    0.0215    0.1940   -0.0067   -0.0058   -0.0072    0.0123
          48   -0.0737    0.0307   -0.0219   -0.0581    0.0648    0.0242   -0.0862    0.1606
          49    0.0057    0.0021   -0.0204   -0.1578    0.0047    0.0014    0.0192    0.0232
          50    0.0021    0.0011   -0.0179   -0.1296   -0.0012    0.0058    0.0081    0.0058
          51    0.0011   -0.0177   -0.0089    0.0153   -0.0396    0.0251   -0.0718   -0.1900


   Root No.      17        18        19        20        21        22        23        24

                 8 A"      9 A"     10 A'     10 A"     11 A'     11 A"     12 A"     12 A'  

                 999.5    1055.2    1058.3    1074.4    1110.0    1141.5    1156.2    1163.6
  
           1   -0.0002   -0.0041   -0.0072   -0.0125   -0.0012    0.0019   -0.0026   -0.0069
           2   -0.0019   -0.0297    0.0409   -0.0379   -0.0034    0.0078   -0.0027    0.0043
           3    0.0096   -0.0130   -0.0041    0.0188   -0.0289   -0.0219    0.0002   -0.0061
           4    0.0036    0.0057    0.0002    0.0010    0.0067    0.0034   -0.0010   -0.0024
           5   -0.0035    0.0026   -0.0106    0.0061   -0.0029   -0.0007    0.0049    0.0064
           6   -0.0544    0.0118   -0.0030   -0.0082    0.0058    0.0063   -0.0002   -0.0015
           7   -0.0050   -0.0029    0.0066    0.0029    0.0071   -0.0031    0.0038   -0.0058
           8   -0.0006    0.0056    0.0084    0.0054   -0.0018    0.0015    0.0033   -0.0036
           9    0.0544   -0.0118   -0.0030    0.0082    0.0058   -0.0063    0.0002   -0.0015
          10   -0.0010   -0.0148   -0.0307   -0.0132    0.0011    0.0032    0.0004   -0.0081
          11   -0.0016   -0.0261   -0.0280   -0.0377    0.0035    0.0074   -0.0038    0.0008
          12   -0.0096    0.0129   -0.0041   -0.0189   -0.0289    0.0219   -0.0002   -0.0061
          13    0.0014    0.0103    0.0634    0.0119   -0.0050   -0.0034   -0.0012    0.0178
          14    0.0041    0.0302   -0.0216    0.0351    0.0017   -0.0099   -0.0035   -0.0061
          15    0.0000    0.0000    0.0229    0.0000    0.0206   -0.0000    0.0000    0.0042
          16    0.0004   -0.0010    0.0004    0.0029    0.0005    0.0076    0.0181    0.0002
          17    0.0008    0.0009    0.0009   -0.0021   -0.0059   -0.0079   -0.0055   -0.0006
          18    0.0002    0.0069   -0.0015   -0.0149   -0.0118   -0.0316    0.0061   -0.0001
          19    0.0002    0.0013   -0.0002   -0.0035    0.0040   -0.0108   -0.0177    0.0005
          20    0.0009    0.0001   -0.0009    0.0001    0.0044   -0.0017    0.0066    0.0004
          21   -0.0002   -0.0069   -0.0015    0.0149   -0.0118    0.0316   -0.0061   -0.0001
          22    0.0085   -0.0363   -0.1438   -0.0291   -0.0387   -0.0112   -0.1391    0.1451
          23   -0.0043   -0.0043    0.1430   -0.0173    0.0205    0.0135    0.1027   -0.1136
          24   -0.0634    0.0744   -0.0382   -0.0142    0.0688    0.0272   -0.0324    0.0458
          25    0.0012    0.0714   -0.0845    0.0741   -0.0041   -0.0085    0.0518   -0.2129
          26    0.0193    0.0455   -0.0658    0.0601   -0.0128   -0.0099    0.0427   -0.1445
          27    0.2326   -0.0333    0.0060    0.0193   -0.0210   -0.0143   -0.0010    0.0026
          28    0.0108   -0.0289   -0.0269   -0.0222    0.0045    0.0007   -0.0150   -0.0808
          29    0.0162    0.0795    0.1037    0.0928    0.0127   -0.0130    0.0654    0.2443
          30   -0.2326    0.0333    0.0060   -0.0192   -0.0210    0.0143    0.0010    0.0028
          31   -0.0093    0.0262   -0.2012    0.0126   -0.0432    0.0171    0.1729    0.1843
          32    0.0017   -0.0255   -0.0258   -0.0315    0.0073    0.0039   -0.0033    0.0017
          33    0.0634   -0.0745   -0.0383    0.0142    0.0688   -0.0272    0.0324    0.0459
          34   -0.0414   -0.0387   -0.0036    0.0776    0.0577   -0.0353   -0.0264    0.0053
          35   -0.1220   -0.1139    0.0012    0.2283   -0.0196   -0.1038   -0.0777   -0.0018
          36   -0.0001   -0.0001    0.0206    0.0001    0.0039   -0.0001   -0.0000    0.0028
          37    0.0320    0.0796    0.0610   -0.0096   -0.0224    0.0150   -0.0383    0.0197
          38    0.0941    0.2342   -0.0208   -0.0283    0.0076    0.0441   -0.1127   -0.0067
          39    0.0000    0.0001    0.0564   -0.0000   -0.0397    0.0000   -0.0001    0.0184
          40   -0.0006    0.0013    0.0028   -0.0044   -0.0102   -0.0087   -0.0022   -0.0007
          41    0.0038   -0.0022   -0.0089    0.0176    0.0346    0.0395    0.0589    0.0029
          42    0.0057   -0.0248   -0.0293    0.0651    0.1296    0.1439   -0.0127    0.0033
          43   -0.0008    0.0119   -0.0009   -0.0126   -0.0247   -0.0406   -0.0364   -0.0011
          44    0.0061   -0.0131   -0.0046    0.0244    0.0453    0.0369   -0.0511    0.0007
          45    0.0126   -0.0451   -0.0114    0.0693    0.1335    0.1413   -0.0190    0.0037
          46    0.0043   -0.0174    0.0021    0.0249   -0.0472    0.0547   -0.0023   -0.0013
          47    0.0044   -0.0032    0.0042    0.0117   -0.0210    0.0046   -0.0627    0.0001
          48   -0.0126    0.0451   -0.0114   -0.0693    0.1334   -0.1413    0.0189    0.0037
          49    0.0028   -0.0024    0.0077    0.0142   -0.0292    0.0310    0.0376   -0.0023
          50    0.0026   -0.0010    0.0054    0.0113   -0.0213    0.0261    0.0454   -0.0018
          51   -0.0057    0.0248   -0.0293   -0.0651    0.1295   -0.1438    0.0128    0.0032


   Root No.      25        26        27        28        29        30        31        32

                13 A"     13 A'     14 A"     15 A"     14 A'     15 A'     16 A"     16 A'  

                1164.0    1235.9    1243.4    1308.2    1325.5    1351.7    1382.3    1404.9
  
           1    0.0017   -0.0044    0.0215   -0.0199    0.0111    0.0143   -0.0010   -0.0510
           2    0.0007    0.0528   -0.0348    0.0176    0.0060    0.0064    0.0021   -0.0100
           3    0.0016   -0.0170    0.0019   -0.0064    0.0003    0.0087   -0.0010   -0.0184
           4    0.0002   -0.0144   -0.0109   -0.0183   -0.0079   -0.0157    0.0006    0.0539
           5   -0.0024    0.0336    0.0173   -0.0147    0.0030   -0.0053   -0.0005    0.0216
           6   -0.0003    0.0013   -0.0001    0.0004    0.0003   -0.0008    0.0007    0.0019
           7   -0.0016   -0.0320    0.0192    0.0055   -0.0081   -0.0093   -0.0008    0.0296
           8   -0.0018   -0.0178    0.0070   -0.0228    0.0024    0.0138   -0.0000   -0.0500
           9    0.0003    0.0013    0.0001   -0.0005    0.0003   -0.0008   -0.0007    0.0019
          10   -0.0009   -0.0357   -0.0383    0.0265    0.0052    0.0075    0.0020   -0.0343
          11    0.0016   -0.0391   -0.0145    0.0018   -0.0116   -0.0138    0.0010    0.0390
          12   -0.0016   -0.0170   -0.0019    0.0064    0.0002    0.0087    0.0010   -0.0184
          13    0.0008    0.0475    0.0252    0.0083   -0.0334   -0.0017   -0.0002   -0.0005
          14    0.0024   -0.0162    0.0742    0.0245    0.0114    0.0006   -0.0006    0.0002
          15   -0.0000    0.0228    0.0000    0.0000   -0.0214   -0.0044    0.0000    0.0028
          16    0.0375    0.0004   -0.0009    0.0014    0.0002    0.0071   -0.0107   -0.0121
          17   -0.0128   -0.0016    0.0001   -0.0001    0.0003    0.0189   -0.0289   -0.0243
          18    0.0097   -0.0017   -0.0025    0.0003   -0.0030   -0.0040    0.0019    0.0193
          19   -0.0375    0.0013    0.0007   -0.0012   -0.0000   -0.0059   -0.0091    0.0052
          20    0.0128    0.0011   -0.0004    0.0008   -0.0004   -0.0194   -0.0294    0.0266
          21   -0.0097   -0.0017    0.0025   -0.0003   -0.0030   -0.0040   -0.0019    0.0193
          22    0.0763    0.1356    0.0193    0.1040    0.0001    0.0159    0.0014   -0.0354
          23   -0.0561   -0.0566   -0.0258   -0.0790    0.0150    0.0060   -0.0002   -0.0208
          24    0.0077    0.0477    0.0310    0.0265   -0.0053   -0.0263    0.0004    0.0401
          25   -0.0322    0.1128   -0.1399    0.1318   -0.0078   -0.0049    0.0023    0.0251
          26   -0.0258    0.1278   -0.0805    0.0936    0.0023    0.0038    0.0009   -0.0030
          27    0.0015   -0.0084    0.0018   -0.0026   -0.0028    0.0001   -0.0006    0.0043
          28    0.0098    0.0116    0.0619   -0.0475   -0.0076   -0.0062   -0.0013    0.0217
          29   -0.0401   -0.1699   -0.1491    0.1545    0.0029   -0.0000    0.0021   -0.0129
          30   -0.0015   -0.0085   -0.0019    0.0028   -0.0028    0.0001    0.0006    0.0043
          31   -0.0946    0.1420   -0.0310   -0.1306   -0.0091    0.0090   -0.0012   -0.0154
          32    0.0020   -0.0378   -0.0087    0.0007   -0.0120   -0.0144    0.0007    0.0380
          33   -0.0077    0.0477   -0.0310   -0.0266   -0.0053   -0.0263   -0.0004    0.0402
          34    0.0176    0.0181   -0.0517   -0.0358    0.3207    0.0154   -0.0012    0.0478
          35    0.0517   -0.0062   -0.1521   -0.1053   -0.1089   -0.0052   -0.0034   -0.0162
          36    0.0000    0.0107   -0.0001   -0.0001   -0.0506   -0.0033   -0.0000   -0.0069
          37    0.0197    0.0356   -0.0598   -0.0465    0.1103    0.0120   -0.0028    0.0158
          38    0.0579   -0.0121   -0.1761   -0.1369   -0.0377   -0.0041   -0.0082   -0.0054
          39    0.0000    0.0209   -0.0001   -0.0001    0.3509    0.0296   -0.0000    0.0621
          40   -0.0076    0.0008   -0.0009    0.0013    0.0059   -0.0308   -0.0645   -0.0274
          41    0.1307   -0.0035    0.0029   -0.0014   -0.0321    0.1871    0.2099    0.0672
          42    0.0106    0.0050    0.0115   -0.0033    0.0116   -0.0207   -0.0563   -0.0840
          43   -0.0736   -0.0081    0.0033   -0.0062   -0.0328    0.1392    0.1906    0.0878
          44   -0.1001   -0.0011    0.0021   -0.0037   -0.0228    0.1284    0.1259    0.0308
          45   -0.0288    0.0115   -0.0038    0.0037    0.0025    0.0142    0.0057   -0.0377
          46   -0.0026   -0.0058   -0.0013    0.0027   -0.0122    0.0321   -0.0744    0.0509
          47   -0.1242    0.0058    0.0036   -0.0067    0.0381   -0.1866    0.2160   -0.0779
          48    0.0287    0.0115    0.0038   -0.0037    0.0025    0.0141   -0.0055   -0.0377
          49    0.0857    0.0027    0.0025   -0.0019    0.0242   -0.1385    0.1790   -0.0626
          50    0.0991    0.0023    0.0018   -0.0004    0.0218   -0.1296    0.1271   -0.0365
          51   -0.0105    0.0050   -0.0115    0.0033    0.0116   -0.0209    0.0564   -0.0840


   Root No.      33        34        35        36        37        38        39        40

                17 A'     17 A"     18 A'     19 A'     18 A"     20 A'     21 A'     22 A'  

                1493.1    1564.6    1573.6    2670.8    2697.9    2730.9    2753.8    2764.5
  
           1    0.0577   -0.0955    0.0378    0.0002    0.0000    0.0004   -0.0036    0.0024
           2   -0.0204    0.0032    0.0072    0.0005    0.0004    0.0004    0.0020    0.0039
           3   -0.0008   -0.0070   -0.0083   -0.0030    0.0001    0.0002   -0.0019    0.0004
           4   -0.0020    0.1093   -0.0500   -0.0002    0.0002    0.0002   -0.0001   -0.0008
           5    0.1102    0.0034   -0.0441    0.0002   -0.0001   -0.0002    0.0004    0.0012
           6    0.0000    0.0017    0.0007   -0.0002   -0.0001   -0.0001    0.0000   -0.0001
           7   -0.0687   -0.0846   -0.0128   -0.0003   -0.0002    0.0003   -0.0003   -0.0014
           8   -0.0862    0.0693    0.0654   -0.0000    0.0000    0.0000   -0.0002   -0.0004
           9   -0.0001   -0.0017    0.0008   -0.0002    0.0001   -0.0001    0.0000   -0.0001
          10    0.0582    0.0777    0.0256   -0.0002    0.0002    0.0001   -0.0041   -0.0005
          11   -0.0190   -0.0556   -0.0287   -0.0005    0.0003   -0.0006    0.0006   -0.0046
          12   -0.0008    0.0070   -0.0083   -0.0030   -0.0001    0.0002   -0.0019    0.0004
          13   -0.0063    0.0056   -0.0023    0.0219   -0.0000    0.0011   -0.0269   -0.0039
          14    0.0021    0.0166    0.0008   -0.0074   -0.0000   -0.0004    0.0091    0.0013
          15    0.0010    0.0000    0.0028   -0.0466   -0.0000    0.0014   -0.0092   -0.0013
          16   -0.0069    0.0010   -0.0504   -0.0010   -0.0255   -0.0272   -0.0006   -0.0048
          17   -0.0155    0.0020   -0.1401   -0.0001    0.0083    0.0086    0.0040   -0.0125
          18    0.0040    0.0052    0.0105    0.0001   -0.0061   -0.0064   -0.0016    0.0049
          19    0.0040    0.0004    0.0454   -0.0007    0.0253   -0.0268   -0.0029    0.0038
          20    0.0165    0.0022    0.1418    0.0007   -0.0090    0.0098   -0.0028    0.0128
          21    0.0040   -0.0052    0.0106    0.0001    0.0061   -0.0064   -0.0016    0.0049
          22   -0.0779   -0.0155    0.0270    0.0054   -0.0031   -0.0052    0.0125   -0.0318
          23    0.0954   -0.0543    0.0059    0.0062   -0.0042   -0.0069    0.0151   -0.0420
          24   -0.0011    0.0137    0.0198    0.0005   -0.0002   -0.0003    0.0013   -0.0019
          25   -0.1121   -0.0556    0.0026   -0.0001   -0.0013   -0.0018    0.0100    0.0093
          26    0.0214   -0.0967   -0.0014    0.0002    0.0017    0.0024   -0.0125   -0.0126
          27   -0.0033    0.0052   -0.0031   -0.0001   -0.0000    0.0000    0.0010    0.0010
          28   -0.1020   -0.0148    0.0029   -0.0002    0.0020   -0.0029    0.0155    0.0150
          29    0.0514   -0.1106   -0.0006   -0.0001    0.0005   -0.0008    0.0038    0.0044
          30   -0.0033   -0.0053   -0.0031   -0.0001    0.0000    0.0000    0.0010    0.0010
          31   -0.1199   -0.0208    0.0179    0.0005   -0.0002    0.0001    0.0007    0.0003
          32   -0.0282   -0.0525   -0.0212   -0.0082   -0.0052    0.0087   -0.0197    0.0527
          33   -0.0011   -0.0137    0.0198    0.0005    0.0002   -0.0003    0.0013   -0.0019
          34   -0.0205   -0.0185    0.0040    0.0762    0.0000   -0.0021    0.0231    0.0033
          35    0.0070   -0.0546   -0.0014   -0.0261    0.0000    0.0007   -0.0080   -0.0011
          36    0.0083   -0.0000    0.0007    0.5146   -0.0000   -0.0234    0.2912    0.0396
          37   -0.0106   -0.0348   -0.0044   -0.3374    0.0000   -0.0134    0.3554    0.0514
          38    0.0036   -0.1025    0.0015    0.1146    0.0000    0.0045   -0.1207   -0.0174
          39   -0.0478   -0.0000   -0.0206    0.1078   -0.0000    0.0068   -0.1460   -0.0207
          40   -0.0090    0.0028   -0.0761    0.0098    0.2273    0.2168   -0.0298    0.1716
          41    0.0058   -0.0067    0.0306    0.0030    0.0649    0.0640   -0.0056    0.0369
          42   -0.0088   -0.0208   -0.0465    0.0003   -0.0007    0.0003   -0.0013    0.0034
          43    0.0174   -0.0050    0.0934    0.0021    0.1182    0.1080    0.0349   -0.1059
          44   -0.0024   -0.0024   -0.0257   -0.0035   -0.1769   -0.1658   -0.0467    0.1362
          45   -0.0101    0.0006   -0.0119    0.0016    0.0823    0.0751    0.0220   -0.0657
          46    0.0153    0.0025    0.0898    0.0038   -0.2015    0.1866    0.0561   -0.1669
          47   -0.0087   -0.0050   -0.0365    0.0015   -0.0682    0.0657    0.0157   -0.0434
          48   -0.0101   -0.0006   -0.0119    0.0016   -0.0825    0.0752    0.0221   -0.0658
          49   -0.0108   -0.0063   -0.0789    0.0060   -0.1407    0.1330   -0.0202    0.1136
          50    0.0009   -0.0036    0.0222   -0.0083    0.1899   -0.1828    0.0226   -0.1338
          51   -0.0088    0.0208   -0.0465    0.0003    0.0009    0.0002   -0.0012    0.0033


   Root No.      41        42        43        44        45

                19 A"     23 A'     20 A"     21 A"     24 A'  

                2770.9    2779.2    2780.1    2788.6    2798.2
  
           1   -0.0112    0.0140   -0.0073   -0.0006    0.0049
           2   -0.0133    0.0174   -0.0085   -0.0037    0.0074
           3   -0.0011    0.0007    0.0003   -0.0003    0.0002
           4   -0.0019    0.0055   -0.0001    0.0150   -0.0151
           5    0.0022   -0.0041   -0.0006   -0.0239    0.0197
           6   -0.0004    0.0006    0.0001    0.0019   -0.0016
           7    0.0029    0.0069   -0.0003   -0.0265   -0.0240
           8    0.0006   -0.0001   -0.0005   -0.0098   -0.0064
           9    0.0004    0.0006   -0.0001   -0.0019   -0.0017
          10    0.0008    0.0006    0.0006   -0.0017   -0.0006
          11   -0.0174   -0.0223   -0.0112   -0.0033   -0.0088
          12    0.0010    0.0007   -0.0003    0.0003    0.0002
          13   -0.0006   -0.0008   -0.0004   -0.0000    0.0021
          14   -0.0018    0.0003   -0.0012   -0.0001   -0.0007
          15   -0.0000   -0.0011   -0.0000    0.0000    0.0004
          16    0.0029    0.0017   -0.0051    0.0011    0.0008
          17    0.0085    0.0027   -0.0134    0.0023    0.0018
          18   -0.0026   -0.0007    0.0032   -0.0005   -0.0008
          19    0.0029   -0.0003   -0.0041    0.0005   -0.0005
          20    0.0085   -0.0032   -0.0138    0.0024   -0.0019
          21    0.0026   -0.0007   -0.0033    0.0005   -0.0008
          22    0.1346   -0.1691    0.0875    0.0272   -0.0577
          23    0.1777   -0.2225    0.1154    0.0356   -0.0762
          24    0.0100   -0.0123    0.0062    0.0019   -0.0043
          25    0.0248   -0.0566   -0.0031   -0.2134    0.1751
          26   -0.0342    0.0786    0.0047    0.2962   -0.2431
          27    0.0029   -0.0069   -0.0005   -0.0251    0.0205
          28   -0.0405   -0.0928    0.0054    0.3497    0.2870
          29   -0.0120   -0.0279    0.0018    0.1048    0.0860
          30   -0.0030   -0.0069    0.0005    0.0253    0.0207
          31    0.0015    0.0015    0.0009    0.0001    0.0007
          32    0.2229    0.2795    0.1448    0.0448    0.0955
          33   -0.0098   -0.0121   -0.0061   -0.0018   -0.0042
          34   -0.0000    0.0018    0.0001    0.0001   -0.0005
          35   -0.0001   -0.0006    0.0002    0.0004    0.0002
          36   -0.0000    0.0137    0.0000    0.0000   -0.0103
          37   -0.0001    0.0060    0.0000    0.0001   -0.0161
          38   -0.0002   -0.0020    0.0000    0.0003    0.0055
          39   -0.0000   -0.0027    0.0000    0.0000    0.0062
          40   -0.0950   -0.0430    0.1557   -0.0270   -0.0254
          41   -0.0218   -0.0094    0.0359   -0.0063   -0.0054
          42   -0.0024    0.0001    0.0030   -0.0011   -0.0002
          43    0.0600    0.0207   -0.0920    0.0151    0.0153
          44   -0.0793   -0.0259    0.1209   -0.0197   -0.0197
          45    0.0373    0.0127   -0.0568    0.0092    0.0099
          46   -0.0958    0.0322    0.1465   -0.0240    0.0242
          47   -0.0263    0.0079    0.0398   -0.0064    0.0063
          48   -0.0374    0.0128    0.0569   -0.0092    0.0099
          49    0.0621   -0.0284   -0.1016    0.0176   -0.0168
          50   -0.0752    0.0337    0.1233   -0.0214    0.0198
          51    0.0024    0.0001   -0.0030    0.0011   -0.0002


           MASS-WEIGHTED COORDINATE ANALYSIS (NORMAL COORDINATES)


   Root No.       1         2         3         4         5         6         7         8

                 1 A'      1 A"      2 A"      2 A'      3 A'      3 A"      4 A"      4 A'  

                -826.2     193.1     279.7     290.0     432.6     504.2     519.6     702.9
  
           1    0.1409   -0.1082   -0.0658   -0.1606    0.0747    0.0065   -0.0303    0.0356
           2   -0.1067    0.0490    0.2191    0.0534   -0.0398    0.0596    0.0118    0.0476
           3   -0.4409   -0.0954    0.4035   -0.1519   -0.1764    0.1635    0.3064   -0.0259
           4   -0.1298   -0.1158   -0.0360   -0.1656    0.0600    0.0167    0.0048    0.0887
           5   -0.0925   -0.1074    0.1016    0.0543   -0.0167    0.0502   -0.0415   -0.0143
           6   -0.0071   -0.0740    0.2634    0.3645    0.1860   -0.3706   -0.2301    0.0166
           7   -0.0466    0.0264    0.0906   -0.1646    0.0578    0.0173   -0.0292    0.0791
           8    0.1524   -0.1558    0.0588    0.0578   -0.0235    0.0497   -0.0302   -0.0427
           9   -0.0070    0.0738   -0.2631    0.3646    0.1860    0.3707    0.2300    0.0165
          10    0.1768    0.1156    0.1858   -0.1599    0.0836    0.0312    0.0313   -0.0007
          11   -0.0009   -0.0272    0.1339    0.0558   -0.0138    0.0513   -0.0088   -0.0594
          12   -0.4410    0.0954   -0.4033   -0.1517   -0.1763   -0.1634   -0.3064   -0.0260
          13    0.0265    0.0421    0.0555   -0.0543   -0.2122    0.0044   -0.0254    0.0181
          14   -0.0091    0.1238    0.1631    0.0186    0.0720    0.0130   -0.0746   -0.0061
          15    0.0321    0.0001    0.0000   -0.3328    0.4532   -0.0000   -0.0000   -0.0338
          16   -0.0343    0.4413   -0.0422    0.3226   -0.0007   -0.1222    0.1204   -0.1570
          17    0.1860   -0.0950   -0.3357   -0.1099   -0.0077   -0.0764    0.0548    0.0451
          18    0.4437    0.0944    0.0003   -0.0524   -0.2727    0.3616   -0.4575   -0.0002
          19   -0.1406   -0.4078   -0.1712    0.3226    0.0043    0.0504   -0.0622   -0.1520
          20   -0.1269    0.1936   -0.2918   -0.1096    0.0066   -0.1347    0.1164    0.0599
          21    0.4434   -0.0943   -0.0006   -0.0523   -0.2727   -0.3618    0.4576   -0.0002
          22   -0.0126   -0.0642   -0.0289   -0.0500    0.0462   -0.0058   -0.0035    0.0144
          23    0.0016    0.0396    0.0673    0.0197   -0.0266    0.0201   -0.0076    0.0121
          24    0.0130   -0.0298    0.1032   -0.0699   -0.1373    0.1016    0.1021   -0.0112
          25    0.0065   -0.0618   -0.0351   -0.0583    0.0120    0.0106    0.0015    0.0102
          26    0.0097   -0.0541    0.0200    0.0200   -0.0041   -0.0003   -0.0251   -0.0153
          27    0.0485   -0.0426    0.1497    0.2277    0.1168   -0.3335   -0.2383    0.0064
          28   -0.0007    0.0160    0.0401   -0.0585    0.0120   -0.0087   -0.0166    0.0174
          29   -0.0117   -0.0806   -0.0054    0.0196   -0.0042    0.0059   -0.0191    0.0059
          30    0.0484    0.0425   -0.1496    0.2277    0.1168    0.3335    0.2383    0.0064
          31   -0.0110    0.0750    0.0640   -0.0517    0.0529    0.0169   -0.0019    0.0041
          32    0.0064   -0.0078    0.0359    0.0149   -0.0069    0.0125   -0.0081   -0.0184
          33    0.0129    0.0299   -0.1032   -0.0698   -0.1372   -0.1016   -0.1021   -0.0112
          34   -0.0452    0.0215   -0.0220    0.0432   -0.3760   -0.0250   -0.0474   -0.0499
          35    0.0153    0.0634   -0.0649   -0.0146    0.1277   -0.0737   -0.1395    0.0169
          36    0.0037    0.0000   -0.0001   -0.1019    0.1699   -0.0000   -0.0001   -0.0018
          37    0.0261    0.0169    0.0416   -0.0324    0.0284    0.0137    0.0150    0.0203
          38   -0.0089    0.0499    0.1225    0.0111   -0.0098    0.0403    0.0442   -0.0069
          39    0.0499    0.0000    0.0000   -0.1403    0.4023    0.0000    0.0000    0.0447
          40    0.0113    0.1753   -0.0132    0.0939    0.0021   -0.0389    0.0277   -0.0355
          41   -0.0238   -0.2368   -0.1176   -0.0317   -0.0114    0.0032    0.0123   -0.0193
          42   -0.0799    0.0993    0.0561    0.0409   -0.0913    0.1647   -0.1307    0.4952
          43    0.0088    0.3156    0.0039    0.1134   -0.0084   -0.0418    0.0342    0.1794
          44   -0.0179    0.1005   -0.0716   -0.0382    0.0065   -0.0033   -0.0004   -0.0295
          45   -0.0483   -0.0040    0.0397   -0.0570   -0.0484    0.1463   -0.1465   -0.4203
          46    0.0179   -0.1890   -0.0468    0.1132   -0.0106    0.0311   -0.0274    0.1604
          47    0.0089    0.2720   -0.0543   -0.0388   -0.0001   -0.0279    0.0204   -0.0855
          48   -0.0483    0.0042   -0.0398   -0.0570   -0.0483   -0.1464    0.1465   -0.4203
          49    0.0234   -0.2832   -0.0612    0.0937    0.0086    0.0328   -0.0145   -0.0165
          50    0.0121   -0.0809   -0.1012   -0.0322    0.0079   -0.0210    0.0266    0.0365
          51   -0.0799   -0.0995   -0.0563    0.0409   -0.0913   -0.1648    0.1308    0.4952


   Root No.       9        10        11        12        13        14        15        16

                 5 A'      5 A"      6 A'      7 A'      6 A"      8 A'      9 A'      7 A"  

                 748.0     784.6     846.5     883.4     908.8     923.1     933.0     938.4
  
           1   -0.1457   -0.3212    0.0389   -0.0024    0.0189   -0.0234    0.0955    0.0076
           2   -0.4162   -0.0926   -0.0226    0.0057    0.0588    0.0441    0.1507    0.0016
           3    0.0200   -0.0528    0.0507   -0.0216   -0.1459    0.0009   -0.0398    0.0492
           4   -0.2656   -0.2786   -0.0266    0.0136   -0.0044    0.0652    0.0268    0.0504
           5    0.0249    0.4664   -0.0327    0.0016    0.0168    0.0225   -0.0617   -0.0366
           6    0.0019   -0.0214   -0.1993    0.0272   -0.1283   -0.2167    0.0905    0.0450
           7   -0.2258    0.5050   -0.0011    0.0098    0.0137    0.0380    0.0588   -0.0622
           8    0.1420    0.2001    0.0423   -0.0096    0.0105   -0.0574    0.0325    0.0017
           9    0.0019    0.0215   -0.1993    0.0272    0.1284   -0.2168    0.0906   -0.0450
          10    0.1380    0.1982    0.0446   -0.0054    0.0208   -0.0454   -0.0161   -0.0051
          11    0.4187   -0.2691   -0.0058   -0.0030    0.0580   -0.0207   -0.1776    0.0059
          12    0.0203    0.0526    0.0507   -0.0216    0.1460    0.0008   -0.0399   -0.0492
          13    0.3954   -0.0979    0.0102   -0.0074   -0.0283   -0.0712   -0.2668    0.0023
          14   -0.1345   -0.2881   -0.0034    0.0025   -0.0832    0.0241    0.0905    0.0067
          15    0.3113   -0.0001   -0.0582    0.0490   -0.0000    0.2743    0.3609    0.0000
          16    0.0088   -0.0025    0.0260    0.1185   -0.0400   -0.0333    0.0315   -0.1169
          17    0.0170    0.0118    0.0227   -0.0454   -0.0241   -0.0325    0.0873    0.0501
          18   -0.1408   -0.0104   -0.0778    0.0373   -0.0274    0.0645   -0.0906   -0.0282
          19   -0.0033    0.0093    0.0067    0.1217    0.0170   -0.0066   -0.0282    0.1232
          20   -0.0186    0.0077   -0.0338   -0.0362   -0.0434    0.0460   -0.0884   -0.0316
          21   -0.1408    0.0104   -0.0778    0.0373    0.0274    0.0646   -0.0906    0.0282
          22   -0.0772    0.0163   -0.0698    0.0058   -0.0850    0.0741   -0.0086    0.0264
          23   -0.0899   -0.1075    0.0296    0.0007    0.0488   -0.0273    0.0537   -0.0052
          24    0.0015   -0.0312    0.4421   -0.0678    0.5667   -0.3797    0.2135   -0.1947
          25    0.0228   -0.1286    0.0037    0.0000   -0.0191   -0.0227   -0.0239    0.0367
          26    0.0732    0.0908    0.0433   -0.0072    0.0112    0.0157   -0.0475    0.0043
          27   -0.0288   -0.0067    0.4673   -0.0486    0.1861    0.3992   -0.0913   -0.0322
          28   -0.0266    0.1573   -0.0236    0.0044    0.0220   -0.0276    0.0100   -0.0265
          29   -0.0720   -0.0064   -0.0370    0.0057   -0.0026    0.0010    0.0523    0.0258
          30   -0.0289    0.0066    0.4673   -0.0486   -0.1861    0.3992   -0.0912    0.0322
          31   -0.0065   -0.0785   -0.0735    0.0042    0.0973    0.0755   -0.0396   -0.0242
          32    0.1183   -0.0753    0.0186   -0.0040   -0.0126   -0.0231   -0.0375    0.0118
          33    0.0015    0.0312    0.4421   -0.0678   -0.5667   -0.3797    0.2135    0.1947
          34    0.2479   -0.0226   -0.1060    0.0333    0.0702    0.2924    0.3778   -0.0177
          35   -0.0843   -0.0663    0.0360   -0.0113    0.2067   -0.0994   -0.1283   -0.0521
          36    0.0619   -0.0000    0.0080    0.0047    0.0001    0.0140    0.0108   -0.0000
          37    0.0812    0.0108    0.0387   -0.0163   -0.0545   -0.1098   -0.2106   -0.0023
          38   -0.0276    0.0319   -0.0132    0.0056   -0.1604    0.0374    0.0717   -0.0067
          39   -0.0173    0.0001    0.0960   -0.0340   -0.0001   -0.2210   -0.3525   -0.0000
          40    0.0055   -0.0014   -0.0134   -0.1096   -0.0122   -0.0065    0.0285   -0.0382
          41   -0.0086    0.0029    0.0688    0.4718    0.0052   -0.0148   -0.0500    0.0475
          42    0.0018    0.0247   -0.0229    0.0367    0.1081    0.0676   -0.1984    0.4864
          43    0.0431    0.0170   -0.0385   -0.3354    0.0376   -0.0011    0.0746    0.1361
          44   -0.0071   -0.0038   -0.0405   -0.3223   -0.0518    0.0207   -0.0320   -0.0644
          45   -0.1240   -0.0429   -0.0565   -0.1382   -0.1770    0.0654   -0.2382   -0.4111
          46    0.0386   -0.0158   -0.0058   -0.0696   -0.0614   -0.0135    0.0787   -0.1473
          47   -0.0204    0.0073    0.0556    0.4600   -0.0183   -0.0158   -0.0199    0.0315
          48   -0.1241    0.0429   -0.0565   -0.1378    0.1770    0.0653   -0.2382    0.4111
          49    0.0097    0.0029   -0.0526   -0.3743    0.0128    0.0039    0.0531    0.0594
          50    0.0035    0.0015   -0.0463   -0.3074   -0.0032    0.0156    0.0224    0.0148
          51    0.0018   -0.0247   -0.0229    0.0364   -0.1081    0.0677   -0.1983   -0.4864


   Root No.      17        18        19        20        21        22        23        24

                 8 A"      9 A"     10 A'     10 A"     11 A'     11 A"     12 A"     12 A'  

                 999.5    1055.2    1058.3    1074.4    1110.0    1141.5    1156.2    1163.6
  
           1   -0.0013   -0.0360   -0.0529   -0.1039   -0.0116    0.0172   -0.0265   -0.0515
           2   -0.0142   -0.2606    0.2995   -0.3157   -0.0326    0.0697   -0.0272    0.0322
           3    0.0710   -0.1137   -0.0298    0.1568   -0.2771   -0.1953    0.0023   -0.0454
           4    0.0270    0.0502    0.0012    0.0080    0.0642    0.0301   -0.0096   -0.0179
           5   -0.0260    0.0231   -0.0778    0.0505   -0.0279   -0.0062    0.0495    0.0477
           6   -0.4022    0.1034   -0.0218   -0.0685    0.0558    0.0557   -0.0016   -0.0113
           7   -0.0373   -0.0257    0.0484    0.0245    0.0679   -0.0276    0.0377   -0.0433
           8   -0.0046    0.0490    0.0611    0.0449   -0.0171    0.0134    0.0334   -0.0269
           9    0.4022   -0.1034   -0.0217    0.0686    0.0558   -0.0558    0.0016   -0.0113
          10   -0.0076   -0.1303   -0.2245   -0.1099    0.0108    0.0287    0.0044   -0.0605
          11   -0.0120   -0.2287   -0.2052   -0.3135    0.0332    0.0656   -0.0377    0.0058
          12   -0.0710    0.1134   -0.0300   -0.1571   -0.2770    0.1954   -0.0023   -0.0454
          13    0.0104    0.0900    0.4641    0.0993   -0.0484   -0.0301   -0.0120    0.1332
          14    0.0306    0.2647   -0.1578    0.2922    0.0164   -0.0887   -0.0353   -0.0453
          15    0.0000    0.0001    0.1676    0.0001    0.1980   -0.0000    0.0000    0.0315
          16    0.0027   -0.0088    0.0030    0.0237    0.0051    0.0677    0.1815    0.0015
          17    0.0061    0.0076    0.0062   -0.0171   -0.0569   -0.0703   -0.0555   -0.0045
          18    0.0018    0.0603   -0.0110   -0.1243   -0.1136   -0.2819    0.0608   -0.0005
          19    0.0015    0.0116   -0.0015   -0.0293    0.0388   -0.0965   -0.1777    0.0039
          20    0.0065    0.0007   -0.0068    0.0008    0.0421   -0.0148    0.0666    0.0027
          21   -0.0018   -0.0603   -0.0110    0.1243   -0.1136    0.2819   -0.0608   -0.0005
          22    0.0182   -0.0923   -0.3049   -0.0703   -0.1076   -0.0290   -0.4046    0.3141
          23   -0.0091   -0.0110    0.3032   -0.0417    0.0569    0.0348    0.2987   -0.2459
          24   -0.1359    0.1892   -0.0811   -0.0343    0.1912    0.0703   -0.0942    0.0992
          25    0.0027    0.1814   -0.1791    0.1788   -0.0115   -0.0219    0.1506   -0.4608
          26    0.0413    0.1156   -0.1396    0.1449   -0.0356   -0.0256    0.1243   -0.3126
          27    0.4985   -0.0846    0.0126    0.0466   -0.0585   -0.0370   -0.0028    0.0056
          28    0.0232   -0.0734   -0.0571   -0.0535    0.0126    0.0018   -0.0437   -0.1749
          29    0.0348    0.2021    0.2199    0.2239    0.0352   -0.0336    0.1904    0.5287
          30   -0.4985    0.0847    0.0128   -0.0463   -0.0584    0.0369    0.0029    0.0060
          31   -0.0200    0.0665   -0.4266    0.0304   -0.1201    0.0442    0.5028    0.3988
          32    0.0037   -0.0648   -0.0546   -0.0759    0.0203    0.0100   -0.0097    0.0036
          33    0.1359   -0.1892   -0.0812    0.0343    0.1912   -0.0703    0.0944    0.0993
          34   -0.0888   -0.0983   -0.0076    0.1872    0.1603   -0.0911   -0.0769    0.0114
          35   -0.2614   -0.2893    0.0025    0.5508   -0.0545   -0.2681   -0.2262   -0.0039
          36   -0.0001   -0.0001    0.0436    0.0003    0.0107   -0.0001   -0.0001    0.0060
          37    0.0685    0.2022    0.1294   -0.0232   -0.0622    0.0387   -0.1114    0.0425
          38    0.2016    0.5951   -0.0441   -0.0682    0.0212    0.1140   -0.3279   -0.0145
          39    0.0001    0.0003    0.1197   -0.0000   -0.1103    0.0001   -0.0002    0.0399
          40   -0.0013    0.0033    0.0060   -0.0107   -0.0283   -0.0226   -0.0063   -0.0015
          41    0.0081   -0.0056   -0.0189    0.0424    0.0961    0.1019    0.1713    0.0062
          42    0.0122   -0.0629   -0.0621    0.1570    0.3603    0.3717   -0.0370    0.0070
          43   -0.0017    0.0301   -0.0020   -0.0305   -0.0687   -0.1049   -0.1058   -0.0024
          44    0.0130   -0.0332   -0.0098    0.0588    0.1260    0.0952   -0.1487    0.0016
          45    0.0269   -0.1147   -0.0241    0.1672    0.3711    0.3651   -0.0553    0.0080
          46    0.0093   -0.0442    0.0044    0.0600   -0.1313    0.1413   -0.0067   -0.0029
          47    0.0093   -0.0081    0.0090    0.0282   -0.0584    0.0119   -0.1825    0.0002
          48   -0.0269    0.1147   -0.0241   -0.1671    0.3710   -0.3651    0.0551    0.0080
          49    0.0060   -0.0060    0.0162    0.0343   -0.0811    0.0801    0.1094   -0.0050
          50    0.0057   -0.0025    0.0114    0.0272   -0.0593    0.0674    0.1319   -0.0040
          51   -0.0121    0.0629   -0.0621   -0.1570    0.3602   -0.3716    0.0372    0.0070


   Root No.      25        26        27        28        29        30        31        32

                13 A"     13 A'     14 A"     15 A"     14 A'     15 A'     16 A"     16 A'  

                1164.0    1235.9    1243.4    1308.2    1325.5    1351.7    1382.3    1404.9
  
           1    0.0158   -0.0305    0.1515   -0.1719    0.0719    0.1190   -0.0071   -0.3601
           2    0.0063    0.3637   -0.2452    0.1518    0.0387    0.0530    0.0149   -0.0709
           3    0.0147   -0.1170    0.0133   -0.0555    0.0016    0.0723   -0.0068   -0.1301
           4    0.0017   -0.0996   -0.0770   -0.1578   -0.0508   -0.1305    0.0045    0.3809
           5   -0.0228    0.2319    0.1216   -0.1269    0.0196   -0.0436   -0.0035    0.1525
           6   -0.0032    0.0090   -0.0007    0.0037    0.0022   -0.0070    0.0047    0.0135
           7   -0.0152   -0.2203    0.1351    0.0478   -0.0523   -0.0769   -0.0057    0.2092
           8   -0.0170   -0.1229    0.0495   -0.1968    0.0154    0.1143   -0.0001   -0.3532
           9    0.0032    0.0089    0.0008   -0.0039    0.0022   -0.0069   -0.0047    0.0132
          10   -0.0086   -0.2459   -0.2695    0.2288    0.0334    0.0620    0.0147   -0.2421
          11    0.0146   -0.2697   -0.1021    0.0156   -0.0745   -0.1146    0.0075    0.2757
          12   -0.0147   -0.1172   -0.0135    0.0556    0.0016    0.0723    0.0069   -0.1299
          13    0.0077    0.3276    0.1776    0.0716   -0.2154   -0.0140   -0.0016   -0.0034
          14    0.0225   -0.1115    0.5225    0.2109    0.0732    0.0047   -0.0046    0.0012
          15   -0.0000    0.1573    0.0002    0.0001   -0.1383   -0.0363    0.0000    0.0198
          16    0.3523    0.0025   -0.0061    0.0123    0.0014    0.0592   -0.0769   -0.0855
          17   -0.1197   -0.0113    0.0008   -0.0005    0.0022    0.1571   -0.2077   -0.1716
          18    0.0910   -0.0119   -0.0173    0.0025   -0.0192   -0.0335    0.0134    0.1361
          19   -0.3523    0.0087    0.0053   -0.0100   -0.0003   -0.0489   -0.0655    0.0368
          20    0.1198    0.0073   -0.0031    0.0071   -0.0025   -0.1607   -0.2116    0.1881
          21   -0.0911   -0.0118    0.0173   -0.0025   -0.0192   -0.0336   -0.0136    0.1363
          22    0.2073    0.2709    0.0394    0.2599    0.0002    0.0382    0.0029   -0.0723
          23   -0.1524   -0.1130   -0.0527   -0.1975    0.0281    0.0143   -0.0004   -0.0425
          24    0.0209    0.0952    0.0632    0.0662   -0.0099   -0.0632    0.0008    0.0821
          25   -0.0876    0.2252   -0.2856    0.3293   -0.0145   -0.0117    0.0049    0.0512
          26   -0.0702    0.2551   -0.1643    0.2339    0.0043    0.0091    0.0019   -0.0061
          27    0.0041   -0.0168    0.0036   -0.0066   -0.0052    0.0003   -0.0013    0.0087
          28    0.0266    0.0231    0.1264   -0.1186   -0.0141   -0.0148   -0.0027    0.0444
          29   -0.1090   -0.3393   -0.3043    0.3861    0.0055   -0.0000    0.0044   -0.0265
          30   -0.0041   -0.0171   -0.0038    0.0069   -0.0052    0.0003    0.0013    0.0087
          31   -0.2573    0.2835   -0.0633   -0.3263   -0.0170    0.0215   -0.0026   -0.0314
          32    0.0054   -0.0755   -0.0178    0.0018   -0.0224   -0.0346    0.0015    0.0777
          33   -0.0210    0.0953   -0.0633   -0.0663   -0.0099   -0.0632   -0.0008    0.0822
          34    0.0478    0.0362   -0.1055   -0.0894    0.5993    0.0371   -0.0024    0.0977
          35    0.1407   -0.0123   -0.3104   -0.2631   -0.2036   -0.0126   -0.0071   -0.0332
          36    0.0001    0.0214   -0.0002   -0.0001   -0.0945   -0.0079   -0.0000   -0.0142
          37    0.0535    0.0712   -0.1221   -0.1162    0.2061    0.0290   -0.0058    0.0323
          38    0.1575   -0.0243   -0.3594   -0.3419   -0.0704   -0.0099   -0.0170   -0.0110
          39    0.0001    0.0418   -0.0002   -0.0002    0.6559    0.0711   -0.0000    0.1271
          40   -0.0206    0.0015   -0.0018    0.0032    0.0111   -0.0741   -0.1345   -0.0560
          41    0.3554   -0.0071    0.0060   -0.0036   -0.0600    0.4500    0.4375    0.1375
          42    0.0289    0.0099    0.0236   -0.0081    0.0216   -0.0498   -0.1173   -0.1718
          43   -0.2002   -0.0162    0.0067   -0.0154   -0.0614    0.3347    0.3973    0.1796
          44   -0.2720   -0.0021    0.0042   -0.0092   -0.0426    0.3087    0.2624    0.0631
          45   -0.0783    0.0229   -0.0078    0.0092    0.0047    0.0342    0.0118   -0.0771
          46   -0.0071   -0.0116   -0.0027    0.0067   -0.0227    0.0773   -0.1552    0.1041
          47   -0.3377    0.0116    0.0074   -0.0167    0.0712   -0.4487    0.4502   -0.1594
          48    0.0780    0.0229    0.0079   -0.0092    0.0047    0.0338   -0.0115   -0.0772
          49    0.2329    0.0054    0.0051   -0.0048    0.0453   -0.3330    0.3731   -0.1280
          50    0.2693    0.0046    0.0036   -0.0009    0.0408   -0.3117    0.2649   -0.0747
          51   -0.0286    0.0100   -0.0236    0.0082    0.0216   -0.0502    0.1177   -0.1719


   Root No.      33        34        35        36        37        38        39        40

                17 A'     17 A"     18 A'     19 A'     18 A"     20 A'     21 A'     22 A'  

                1493.1    1564.6    1573.6    2670.8    2697.9    2730.9    2753.8    2764.5
  
           1    0.2981   -0.4420    0.1544    0.0008    0.0002    0.0029   -0.0238    0.0221
           2   -0.1054    0.0150    0.0293    0.0027    0.0027    0.0031    0.0135    0.0353
           3   -0.0044   -0.0325   -0.0340   -0.0154    0.0005    0.0016   -0.0126    0.0033
           4   -0.0101    0.5061   -0.2041   -0.0013    0.0014    0.0015   -0.0007   -0.0073
           5    0.5689    0.0156   -0.1801    0.0011   -0.0008   -0.0013    0.0024    0.0107
           6    0.0001    0.0079    0.0029   -0.0009   -0.0004   -0.0011    0.0001   -0.0008
           7   -0.3546   -0.3918   -0.0521   -0.0016   -0.0016    0.0020   -0.0020   -0.0123
           8   -0.4447    0.3207    0.2671   -0.0001    0.0002    0.0001   -0.0014   -0.0039
           9   -0.0004   -0.0078    0.0031   -0.0008    0.0004   -0.0011    0.0002   -0.0008
          10    0.3004    0.3596    0.1047   -0.0010    0.0015    0.0004   -0.0271   -0.0041
          11   -0.0980   -0.2574   -0.1173   -0.0026    0.0023   -0.0042    0.0038   -0.0414
          12   -0.0043    0.0324   -0.0341   -0.0154   -0.0005    0.0016   -0.0126    0.0033
          13   -0.0327    0.0260   -0.0095    0.1137   -0.0001    0.0079   -0.1785   -0.0354
          14    0.0110    0.0767    0.0032   -0.0385   -0.0003   -0.0027    0.0607    0.0120
          15    0.0053    0.0001    0.0115   -0.2417   -0.0000    0.0104   -0.0609   -0.0117
          16   -0.0354    0.0048   -0.2058   -0.0051   -0.1824   -0.2031   -0.0041   -0.0430
          17   -0.0803    0.0092   -0.5726   -0.0007    0.0589    0.0641    0.0266   -0.1131
          18    0.0204    0.0241    0.0428    0.0007   -0.0437   -0.0477   -0.0105    0.0440
          19    0.0207    0.0018    0.1857   -0.0036    0.1804   -0.2001   -0.0194    0.0347
          20    0.0851    0.0102    0.5795    0.0037   -0.0644    0.0729   -0.0186    0.1159
          21    0.0205   -0.0241    0.0433    0.0007    0.0437   -0.0477   -0.0105    0.0441
          22   -0.1165   -0.0208    0.0320    0.0081   -0.0063   -0.0113    0.0241   -0.0831
          23    0.1426   -0.0728    0.0070    0.0093   -0.0088   -0.0150    0.0291   -0.1097
          24   -0.0016    0.0183    0.0234    0.0007   -0.0004   -0.0006    0.0025   -0.0050
          25   -0.1677   -0.0745    0.0031   -0.0001   -0.0026   -0.0039    0.0192    0.0242
          26    0.0320   -0.1297   -0.0016    0.0003    0.0034    0.0052   -0.0240   -0.0330
          27   -0.0049    0.0069   -0.0037   -0.0002   -0.0000    0.0000    0.0020    0.0026
          28   -0.1525   -0.0199    0.0034   -0.0002    0.0042   -0.0063    0.0299    0.0393
          29    0.0769   -0.1483   -0.0007   -0.0002    0.0011   -0.0017    0.0074    0.0115
          30   -0.0049   -0.0071   -0.0037   -0.0002    0.0000    0.0000    0.0020    0.0026
          31   -0.1794   -0.0279    0.0212    0.0008   -0.0003    0.0002    0.0014    0.0009
          32   -0.0421   -0.0704   -0.0251   -0.0123   -0.0108    0.0188   -0.0378    0.1376
          33   -0.0017   -0.0184    0.0234    0.0007    0.0003   -0.0006    0.0025   -0.0048
          34   -0.0307   -0.0249    0.0048    0.1145    0.0000   -0.0046    0.0445    0.0086
          35    0.0104   -0.0732   -0.0016   -0.0393    0.0000    0.0016   -0.0154   -0.0030
          36    0.0124   -0.0000    0.0008    0.7734   -0.0000   -0.0507    0.5604    0.1034
[...]
     17       H        4.189910        0.884850        0.438234
 *******************************************************************************
 ** Site#: 29054        For non-commercial use only    Version 18.025W 64BITS **
 *******************************************************************************
 ** Cite this program as: MOPAC2016, Version: 18.025W, James J. P. Stewart,   **
 ** Stewart Computational Chemistry, web: HTTP://OpenMOPAC.net. Days left: 365**
 *******************************************************************************
 **                                                                           **
 **                                MOPAC2016                                  **
 **                                                                           **
 *******************************************************************************

                              PM7 CALCULATION RESULTS


 *******************************************************************************
 *  CALCULATION DONE:                                Thu Jan 25 10:26:57 2018  *
 *  IRC=N      - INTRINSIC REACTION COORDINATE  1 DEFINED
 *  OLDGEO     - PREVIOUS GEOMETRY TO BE USED
 *  RESTART    - CALCULATION RESTARTED
 *  T=         - A TIME OF 172800.0 SECONDS REQUESTED
 *  DUMP=N     - RESTART FILE WRITTEN EVERY  7200.000 SECONDS
 *  CYCLES=    - DO A MAXIMUM OF   100 STEPS
 *  HTML       - WRITE HTML SCRIPT TO GENERATE ANIMATION USING JSMOL
 *             - TO DISPLAY IN PDB FORMAT, ADD "PDBOUT"
 *  X-PRIOR    - GEOMETRY CHANGES TAKE PRIORITY IN DRC
 *******************************************************************************
oldgeo IRC=1* restart x-priority=0.1 HTML cycles=100
       Cyclopentadiene plus ethylene
      Path to find the transition state
  ATOM               CHEMICAL                 BOND LENGTH      BOND ANGLE     TWIST ANGLE 
 NUMBER               SYMBOL                  (ANGSTROMS)      (DEGREES)       (DEGREES) 
   (I)                                           NA:I           NB:NA:I       NC:NB:NA:I       NA    NB    NC 
     1       C(HETATM    1  C1  HET A   1)    0.00000000       0.0000000       0.0000000   
     2       C(HETATM    2  C2  HET A   1)    1.40393397  *    0.0000000       0.0000000        1     0     0
     3       C(HETATM    3  C3  HET A   1)    1.40786865  *  108.8055980  *    0.0000000        2     1     0
     4       C(HETATM    4  C4  HET A   1)    1.40385327  *  108.8094491  *   -0.0122440  *     3     2     1
     5       C(HETATM    5  C5  HET A   1)    1.52085172  *  107.3468556  *  -18.5552138  *     4     3     2
     6       C(HETATM    6  C1  HET B   2)    2.11148844  *   96.2992391  *  -74.3237281  *     1     2     3
     7       C(HETATM    7  C2  HET B   2)    2.11239535  *   96.2772594  *   74.3022495  *     4     3     2
     8       H(HETATM    8  H1  HET A   1)    1.06996945  *  126.5967495  * -109.4363794  *     1     2     6
     9       H(HETATM    9  H2  HET A   1)    1.07172996  *  125.6440575  *  174.7423262  *     2     1     3
    10       H(HETATM   10  H3  HET A   1)    1.07174303  *  125.3042777  *  174.7684487  *     3     2     4
    11       H(HETATM   11  H4  HET A   1)    1.06999757  *  126.6092822  * -157.7430912  *     4     3     5
    12       H(HETATM   12 1H5  HET A   1)    1.10838444  *  110.6955726  *  -88.6190136  *     5     4     3
    13       H(HETATM   13 2H5  HET A   1)    1.09662068  *  115.1130185  * -120.4531307  *     5     4    12
    14       H(HETATM   14 1H1  HET B   2)    1.07979262  *   91.9631743  *  122.8846439  *     6     1     7
    15       H(HETATM   15 2H1  HET B   2)    1.07992403  *   94.7962074  *  113.6546306  *     6     1    14
    16       H(HETATM   16 1H2  HET B   2)    1.07992528  *  121.1644399  * -103.6417305  *     7     6     1
    17       H(HETATM   17 2H2  HET B   2)    1.07975614  *  121.4619096  * -156.0868493  *     7     6    16
 

 General Reference for PM7:
 "Optimization of Parameters for Semiempirical Methods VI: More Modifications to the 
 NDDO Approximations and Re-optimization of Parameters", J. J. P. Stewart, J. Mol. Mod., 1:32, 19 (2013)
 http://www.springerlink.com/openurl.asp?genre=article&id=doi:10.1007/s00894-012-1667-x

           Empirical Formula: C7 H10  =    17 atoms



      MOLECULAR POINT GROUP   :   Cs  


      RHF CALCULATION, NO. OF DOUBLY OCCUPIED LEVELS = 19


          MOLECULAR WEIGHT =   94.16


          TIME USED UP TO RESTART =                  0.28

    FOR POINT-GROUP Cs   THERE ARE   2 UNIQUE SYMMETRY FUNCTIONS.

           INITIAL VELOCITY IN DRC (Angstroms/Femtosecond)
         0.03479        -0.02634        -0.10888
        -0.03205        -0.02284        -0.00174
        -0.01150         0.03763        -0.00173
         0.04366        -0.00023        -0.10890
         0.00655        -0.00224         0.00792
        -0.00847         0.04593         0.10955
        -0.03473        -0.03132         0.10950
        -0.01077         0.00140         0.01108
         0.00557         0.00825         0.04131
        -0.00063        -0.00998         0.04128
        -0.00941         0.00543         0.01103
        -0.03855         0.01307         0.00316
         0.02226        -0.00759         0.04255
         0.00961        -0.02025        -0.06808
         0.00751        -0.01524        -0.04118
         0.01526         0.00759        -0.04120
         0.01998         0.01030        -0.06809

 GEOMETRY PRIORITY, STEP = 0.1000 ANGSTROMS



     POINT   POTENTIAL  +  ENERGY LOST   =   TOTAL      ERROR    REF%   MOVEMENT
       1      69.14767      0.00000         69.14767   0.00000     1   %  0.0000
       5      69.03467      0.14209         69.17676   0.04262     2   %  0.0806
       8      68.90404      0.44389         69.34793   0.21379     3   %  0.1098
      11      68.67930      0.80558         69.48487   0.35074     4   %  0.1513
      15      68.31291      1.27888         69.59180   0.45766     5   %  0.2058
      18      67.75760      1.90953         69.66714   0.53300     6   %  0.2700
      21      66.99061      2.72035         69.71097   0.57683     7   %  0.3451
      25      66.08229      3.64538         69.72767   0.59353     8   %  0.4269
      28      65.16582      4.56409         69.72991   0.59577     9   %  0.5030
      32      63.73809      5.99266         69.73075   0.59662    10   %  0.6192
      36      62.71591      7.01245         69.72837   0.59423    11   %  0.7014
      39      61.65591      8.07170         69.72761   0.59347    12   %  0.7880
      42      60.75772      8.96777         69.72549   0.59135    13   %  0.8644
      45      59.92284      9.80169         69.72453   0.59040    14   %  0.9416
      49      59.12831     10.59513         69.72344   0.58930    15   %  1.0239
      51      58.40469     11.31738         69.72207   0.58794    16   %  1.1057
      54      57.72366     11.99667         69.72032   0.58619    17   %  1.1890
      57      57.08235     12.63632         69.71867   0.58453    18   %  1.2745
      61      56.47136     13.24609         69.71745   0.58331    19   %  1.3644
      64      55.89783     13.81822         69.71606   0.58192    20   %  1.4572
      67      55.35369     14.36124         69.71493   0.58080    21   %  1.5523
      71      54.83432     14.87961         69.71393   0.57979    22   %  1.6490
      74      54.34208     15.37089         69.71297   0.57883    23   %  1.7459
      77      53.86998     15.84220         69.71218   0.57805    24   %  1.8439
      80      53.42398     16.28827         69.71225   0.57811    25   %  1.9411
      83      53.10064     16.61708         69.71772   0.58358    26   %  2.0146
      87      52.63507     17.12415         69.75922   0.62508    27   %  2.1253
      90      52.29497     17.52609         69.82106   0.68692    28   %  2.2097
      94      51.97863     17.91965         69.89828   0.76415    29   %  2.2913
      98      51.67951     18.30797         69.98748   0.85334    30   %  2.3712
     101      51.39650     18.68974         70.08624   0.95211    31   %  2.4495
     105      51.12713     19.06672         70.19385   1.05971    32   %  2.5265
     109      50.87325     19.43666         70.30990   1.17576    33   %  2.6016
     113      50.63328     19.80169         70.43497   1.30083    34   %  2.6749
     117      50.40713     20.16081         70.56794   1.43380    35   %  2.7462
     121      50.19392     20.51292         70.70684   1.57270    36   %  2.8154
     125      49.99291     20.85648         70.84939   1.71525    37   %  2.8827
     128      49.80431     21.19358         70.99788   1.86375    38   %  2.9475
     132      49.62698     21.52515         71.15213   2.01799    39   %  3.0102
     136      49.45899     21.84984         71.30883   2.17469    40   %  3.0712
     140      49.30123     22.16951         71.47075   2.33661    41   %  3.1301
     144      49.15140     22.48634         71.63775   2.50361    42   %  3.1871
     148      49.01038     22.79783         71.80821   2.67407    43   %  3.2423
     152      48.87551     23.10500         71.98051   2.84637    44   %  3.2963
     156      48.74734     23.40780         72.15514   3.02101    45   %  3.3488
     160      48.62495     23.70671         72.33166   3.19753    46   %  3.4001
     164      48.50852     24.00292         72.51144   3.37730    47   %  3.4500
     168      48.39736     24.29656         72.69392   3.55978    48   %  3.4987
     172      48.29141     24.58864         72.88005   3.74591    49   %  3.5461
     176      48.19004     24.87897         73.06901   3.93487    50   %  3.5923
     180      48.09284     25.16771         73.26056   4.12642    51   %  3.6375
     184      47.99968     25.45463         73.45431   4.32017    52   %  3.6818
     188      47.91005     25.74054         73.65059   4.51646    53   %  3.7251
     192      47.82395     26.02456         73.84851   4.71437    54   %  3.7677
     196      47.74160     26.30898         74.05059   4.91645    55   %  3.8093
     200      47.66189     26.59249         74.25438   5.12025    56   %  3.8501
     204      47.58520     26.87609         74.46129   5.32715    57   %  3.8902
     208      47.51129     27.15916         74.67044   5.53631    58   %  3.9296
     212      47.43957     27.44293         74.88251   5.74837    59   %  3.9681
     216      47.36962     27.72531         75.09492   5.96079    60   %  4.0063
     220      47.30286     28.00871         75.31157   6.17744    61   %  4.0438
     224      47.23739     28.29413         75.53152   6.39739    62   %  4.0809
     229      47.17444     28.58085         75.75529   6.62115    63   %  4.1176
     233      47.11329     28.86834         75.98164   6.84750    64   %  4.1542
     237      47.05367     29.15896         76.21263   7.07849    65   %  4.1905
     242      46.99444     29.45558         76.45002   7.31589    66   %  4.2259
     246      46.93610     29.75551         76.69160   7.55746    67   %  4.2612
     251      46.88088     30.06189         76.94276   7.80863    68   %  4.2971
     256      46.82553     30.37626         77.20179   8.06765    69   %  4.3330
     260      46.77029     30.69950         77.46979   8.33565    70   %  4.3679
     265      46.71654     31.03366         77.75019   8.61605    71   %  4.4051
     271      46.66258     31.37404         78.03662   8.90248    72   %  4.4402
     276      46.61199     31.70882         78.32080   9.18667    73   %  4.4758
     281      46.56414     32.03795         78.60209   9.46795    74   %  4.5088
     286      46.51961     32.36019         78.87980   9.74566    75   %  4.5418
     290      46.47636     32.67724         79.15360  10.01946    76   %  4.5711
     295      46.43665     32.98891         79.42555  10.29141    77   %  4.6014
     300      46.39876     33.29436         79.69312  10.55898    78   %  4.6304
     304      46.36115     33.59613         79.95728  10.82314    79   %  4.6569
     309      46.32616     33.89429         80.22044  11.08631    80   %  4.6842
     313      46.29255     34.19059         80.48314  11.34900    81   %  4.7115
     318      46.25961     34.48492         80.74453  11.61039    82   %  4.7370
     322      46.22728     34.77860         81.00588  11.87174    83   %  4.7612
     327      46.19666     35.07198         81.26864  12.13451    84   %  4.7855
     331      46.16798     35.36348         81.53146  12.39732    85   %  4.8110
     335      46.14001     35.65382         81.79384  12.65970    86   %  4.8355
     340      46.11051     35.94607         82.05658  12.92245    87   %  4.8580
     344      46.08264     36.23695         82.31960  13.18546    88   %  4.8803
     349      46.05627     36.52552         82.58179  13.44765    89   %  4.9033
     353      46.03098     36.81542         82.84640  13.71226    90   %  4.9267
     357      46.00596     37.10432         83.11028  13.97614    91   %  4.9493
     362      45.98100     37.39440         83.37539  14.24126    92   %  4.9699
     366      45.95708     37.68539         83.64247  14.50833    93   %  4.9906
     371      45.93388     37.97491         83.90879  14.77466    94   %  5.0126
     375      45.91204     38.26532         84.17736  15.04322    95   %  5.0345
     380      45.88957     38.55609         84.44566  15.31152    96   %  5.0550
     384      45.86636     38.84577         84.71213  15.57799    97   %  5.0742
     389      45.84542     39.13509         84.98051  15.84637    98   %  5.0942
     393      45.82543     39.42598         85.25141  16.11727    99   %  5.1154
     397      45.80521     39.71570         85.52090  16.38677   100   %  5.1357


           INITIAL VELOCITY IN DRC (Angstroms/Femtosecond)
        -0.03479         0.02634         0.10888
         0.03205         0.02284         0.00174
         0.01150        -0.03763         0.00173
        -0.04366         0.00023         0.10890
        -0.00655         0.00224        -0.00792
         0.00847        -0.04593        -0.10955
         0.03473         0.03132        -0.10950
         0.01077        -0.00140        -0.01108
        -0.00557        -0.00825        -0.04131
         0.00063         0.00998        -0.04128
         0.00941        -0.00543        -0.01103
         0.03855        -0.01307        -0.00316
        -0.02226         0.00759        -0.04255
        -0.00961         0.02025         0.06808
        -0.00751         0.01524         0.04118
        -0.01526        -0.00759         0.04120
        -0.01998        -0.01030         0.06809

 GEOMETRY PRIORITY, STEP = 0.1000 ANGSTROMS



     POINT   POTENTIAL  +  ENERGY LOST   =   TOTAL      ERROR    REF%   MOVEMENT
       1      69.14767      0.00000         69.14767   0.00000     1   %  0.0000
       5      69.00340      0.13856         69.14195   0.00707     2   %  0.0862
       8      68.75433      0.50422         69.25855   0.12366     3   %  0.1332
      12      68.28134      1.03734         69.31868   0.18380     4   %  0.1948
      15      67.43305      1.86805         69.30110   0.16622     5   %  0.2719
      19      65.71265      3.54458         69.25723   0.12234     6   %  0.3877
      22      63.82742      5.39130         69.21871   0.08383     7   %  0.4875
      26      61.63507      7.55836         69.19342   0.05854     8   %  0.5874
      29      59.20983      9.96977         69.17960   0.04471     9   %  0.6868
      33      56.73084     12.44193         69.17277   0.03788    10   %  0.7809
      36      53.83496     15.33327         69.16823   0.03334    11   %  0.8848
      40      51.01431     18.14761         69.16192   0.02704    12   %  0.9819
      44      48.20476     20.95267         69.15743   0.02254    13   %  1.0763
      47      45.35089     23.80637         69.15726   0.02237    14   %  1.1715
      51      42.79787     26.36074         69.15861   0.02372    15   %  1.2570
      54      40.58904     28.56759         69.15663   0.02175    16   %  1.3319
      58      37.74265     31.41040         69.15305   0.01816    17   %  1.4317
      62      35.08926     34.05906         69.14832   0.01343    18   %  1.5300
      65      32.84218     36.30064         69.14281   0.00793    19   %  1.6199
      69      30.85227     38.28467         69.13694   0.00205    20   %  1.7073
      72      29.09038     40.03944         69.12982  -0.00506    21   %  1.7945
      76      27.57424     41.54753         69.12178  -0.01311    22   %  1.8817
      79      26.32406     42.78905         69.11311  -0.02178    23   %  1.9687
      83      25.34048     43.76257         69.10305  -0.03184    24   %  2.0564
      87      24.63367     44.45899         69.09266  -0.04222    25   %  2.1439
      90      24.18812     44.89494         69.08306  -0.05183    26   %  2.2308
      94      23.95737     45.11767         69.07505  -0.05984    27   %  2.3169
      98      23.88217     45.19789         69.08006  -0.05483    28   %  2.3877
     102      23.87090     45.40541         69.27631   0.14143    29   %  2.4042
     106      23.86424     45.63953         69.50378   0.36889    30   %  2.4169
     110      23.86015     45.89807         69.75822   0.62334    31   %  2.4273
     115      23.85394     46.18923         70.04316   0.90828    32   %  2.4381
     120      23.85030     46.46008         70.31038   1.17550    33   %  2.4451
     126      23.84710     46.83294         70.68004   1.54515    34   %  2.4530
     132      23.84535     47.20744         71.05279   1.91790    35   %  2.4593
     138      23.84645     47.59546         71.44191   2.30702    36   %  2.4648
     144      23.84329     47.96038         71.80366   2.66878    37   %  2.4687
     150      23.84220     48.33653         72.17872   3.04384    38   %  2.4722
     156      23.84154     48.71525         72.55679   3.42191    39   %  2.4750
     163      23.85442     49.16537         73.01980   3.88491    40   %  2.4784
     169      23.85471     49.55617         73.41087   4.27599    41   %  2.4802
     175      23.85509     49.94547         73.80056   4.66567    42   %  2.4817
     181      23.85409     50.33292         74.18700   5.05211    43   %  2.4829
     188      23.84000     50.77702         74.61702   5.48213    44   %  2.4834
     194      23.83970     51.16339         75.00308   5.86819    45   %  2.4841
     200      23.83956     51.55199         75.39155   6.25666    46   %  2.4847
     207      23.85666     52.01330         75.86996   6.73508    47   %  2.4859
     213      23.85839     52.41244         76.27084   7.13595    48   %  2.4863
     219      23.86037     52.81562         76.67599   7.54111    49   %  2.4866
     226      23.83864     53.28560         77.12424   7.98935    50   %  2.4862
     232      23.83860     53.70061         77.53921   8.40433    51   %  2.4863
     238      23.83857     54.11445         77.95302   8.81814    52   %  2.4864
     245      23.86496     54.61302         78.47797   9.34309    53   %  2.4872
     251      23.86866     55.04869         78.91734   9.78246    54   %  2.4873
     257      23.87167     55.50153         79.37320  10.23831    55   %  2.4873
     263      23.87422     55.97001         79.84423  10.70934    56   %  2.4873
     270      23.83989     56.51965         80.35954  11.22466    57   %  2.4867
     276      23.84063     57.02592         80.86654  11.73165    58   %  2.4866


           POTENTIAL ENERGY HAS STOPPED DROPPING


 **********************
 *                    *
 * JOB ENDED NORMALLY *
 *                    *
 **********************



 TOTAL JOB TIME:             3.73 SECONDS

 == MOPAC DONE ==
