 *******************************************************************************
 ** Site#: 37037        For non-commercial use only           Version 21.153W **
 *******************************************************************************
 ** Cite this program as: MOPAC2016, Version: 21.153W, James J. P. Stewart,   **
 ** Stewart Computational Chemistry, web: HTTP://OpenMOPAC.net. Days left: 364**
 *******************************************************************************
 **                                                                           **
 **                                MOPAC2016                                  **
 **                                                                           **
 *******************************************************************************

                              PM7 CALCULATION RESULTS

 *******************************************************************************
 *  CALCULATION DONE:                                Thu Jun  3 15:30:38 2021  *
 *  GEO-OK     - OVERRIDE INTERATOMIC DISTANCE AND OTHER SAFETY CHECKS
 *  GEO_DAT    - DATA SET GEOMETRY IS IN FILE "Locate_TS_one_step bias=20.0 second.mop"
 *  GEO_REF    - REFERENCE GEOMETRY IS IN FILE "Locate_TS_one_step bias=20.0 first.mop"
 *               (NO BIAS TOWARDS THE REFERENCE GEOMETRY WILL BE APPLIED)
 *  SADDLE     - TRANSITION STATE TO BE OPTIMIZED
 *  T=         - A TIME OF 172800.0 SECONDS REQUESTED
 *  DUMP=N     - RESTART FILE WRITTEN EVERY 7200.0 SECONDS REQUESTED
 *  HTML       - WRITE HTML SCRIPT TO READ PDB FILE USING JSMOL
 *******************************************************************************
geo-ok geo_ref="Locate_TS_one_step bias=20.0 first.mop" geo_dat="Locate_TS_one_step bias=20.0 second.mop" saddle  HTML
 Transition state for Cyclopentadiene + ethylene <=> bicyclo[2,2,1]heptene

   ATOM                 CHEMICAL                   X               Y               Z
  NUMBER                 SYMBOL               (ANGSTROMS)     (ANGSTROMS)     (ANGSTROMS)
 
     1       C(HETATM    1  C1  HET A   1)   -0.54462446  *  -1.01855866  *  -0.29092842  *
     2       C(HETATM    2  C2  HET A   1)    0.95905870  *  -1.03747169  *  -0.51884811  *
     3       C(HETATM    3  C3  HET A   1)    1.39244007  *   0.23684323  *  -0.51881823  *
     4       C(HETATM    4  C4  HET A   1)    0.18916420  *   1.13894041  *  -0.28920272  *
     5       C(HETATM    5  C5  HET A   1)   -0.93522080  *   0.31784750  *  -1.00211571  *
     6       C(HETATM    6  C1  HET B   2)   -0.70786433  *  -0.58141461  *   1.22909264  *
     7       C(HETATM    7  C2  HET B   2)   -0.20496898  *   0.89288894  *   1.23094370  *
     8       H(HETATM    8  H1  HET A   1)   -1.09060752  *  -1.90636595  *  -0.61916127  *
     9       H(HETATM    9  H2  HET A   1)    1.51233044  *  -1.94626793  *  -0.58922635  *
    10       H(HETATM   10  H3  HET A   1)    2.38497959  *   0.61987195  *  -0.58701341  *
    11       H(HETATM   11  H4  HET A   1)    0.29632119  *   2.17578715  *  -0.61602154  *
    12       H(HETATM   12 1H5  HET A   1)   -0.88162883  *   0.30004098  *  -2.09632311  *
    13       H(HETATM   13 2H5  HET A   1)   -1.93030158  *   0.65534361  *  -0.72742785  *
    14       H(HETATM   14 1H1  HET B   2)   -1.74985262  *  -0.66460704  *   1.57860350  *
    15       H(HETATM   15 2H1  HET B   2)   -0.10828079  *  -1.23629307  *   1.86628430  *
    16       H(HETATM   16 1H2  HET B   2)    0.66969890  *   1.04468893  *   1.86950896  *
    17       H(HETATM   17 2H2  HET B   2)   -0.97754856  *   1.59586099  *   1.58325133  *
 

                        After docking

                     Atoms that move a lot

                     Atom Label             GEO_REF Coordinates       Movement    Integral

            (HETATM    1  C1  HET A   1)  -0.404  -1.109  -0.841        0.57         0.57
            (HETATM    4  C4  HET A   1)   0.350   1.124  -0.832        0.57         1.14
            (HETATM    7  C2  HET B   2)  -0.341   0.821   1.729        0.52         1.66
            (HETATM    6  C1  HET B   2)  -0.774  -0.438   1.719        0.52         2.18
            (HETATM   12 1H5  HET A   1)  -1.196   0.408  -2.156        0.34         2.52
            (HETATM   13 2H5  HET A   1)  -1.758   0.592  -0.499        0.30         2.82
            (HETATM    8  H1  HET A   1)  -1.066  -1.947  -0.879        0.26         3.08
            (HETATM   11  H4  HET A   1)   0.332   2.193  -0.863        0.25         3.33
            (HETATM   10  H3  HET A   1)   2.397   0.584  -0.331        0.25         3.58
            (HETATM    9  H2  HET A   1)   1.549  -1.924  -0.341        0.25         3.83
            (HETATM   17 2H2  HET B   2)  -0.995   1.674   1.747        0.18         4.01
            (HETATM   14 1H1  HET B   2)  -1.815  -0.708   1.729        0.17         4.18
            (HETATM   15 2H1  HET B   2)  -0.116  -1.291   1.724        0.15         4.33
            (HETATM   16 1H2  HET B   2)   0.703   1.089   1.741        0.14         4.48
            (HETATM    5  C5  HET A   1)  -0.884   0.298  -1.112        0.12         4.60

     Residues that move a lot and their (Movement in Angstroms, per atom)


   Difference between GEO_DAT and GEO_REF: 4.737 = total,  0.2786 = Average,  0.3235 = RMS, in Angstroms

 General Reference for PM7:
 "Optimization of Parameters for Semiempirical Methods VI: More Modifications to the 
 NDDO Approximations and Re-optimization of Parameters", J. J. P. Stewart, J. Mol. Mod., 1:32, 19 (2013)
 https://link.springer.com/article/10.1007/s00894-012-1667-x

           Empirical Formula: C7 H10  =    17 atoms



      MOLECULAR POINT GROUP   :   Cs  


      RHF CALCULATION, NO. OF DOUBLY OCCUPIED LEVELS = 19



  CARTESIAN GEOMETRY OF FIRST SYSTEM


   1    C         -0.40426      -1.10872      -0.84089
   2    C          0.91081      -1.08393      -0.51983
   3    C          1.37995       0.30512      -0.51400
   4    C          0.34999       1.12441      -0.83163
   5    C         -0.88367       0.29819      -1.11201
   6    C         -0.77407      -0.43765       1.71866
   7    C         -0.34061       0.82067       1.72928
   8    H         -1.06558      -1.94735      -0.87883
   9    H          1.54891      -1.92409      -0.34105
  10    H          2.39671       0.58367      -0.33100
  11    H          0.33246       2.19258      -0.86297
  12    H         -1.19639       0.40822      -2.15635
  13    H         -1.75789       0.59162      -0.49948
  14    H         -1.81494      -0.70755       1.72891
  15    H         -0.11605      -1.29071       1.72362
  16    H          0.70273       1.08870       1.74055
  17    H         -0.99500       1.67397       1.74730


  CARTESIAN GEOMETRY OF SECOND SYSTEM


   1    C         -0.54313      -1.01848      -0.29304
   2    C          0.96124      -1.03674      -0.51646
   3    C          1.39419       0.23772      -0.51435
   4    C          0.18992       1.13927      -0.28779
   5    C         -0.93204       0.31824      -1.00457
   6    C         -0.71107      -0.58232       1.22675
   7    C         -0.20869       0.89215       1.23102
   8    H         -1.08782      -1.90627      -0.62345
   9    H          1.51503      -1.94530      -0.58573
  10    H          2.38679       0.62113      -0.57933
  11    H          0.29770       2.17635      -0.61365
  12    H         -0.87516       0.30112      -2.09863
  13    H         -1.92806       0.65523      -0.73267
  14    H         -1.75408      -0.66608       1.57309
  15    H         -0.11318      -1.23739       1.86534
  16    H          0.66401       1.04386       1.87230
  17    H         -0.98256       1.59465       1.58144


   "DISTANCE":     1.333845


  REACTION COORDINATE VECTOR


   1    C          0.13887      -0.09024      -0.54785
   2    C         -0.05043      -0.04719      -0.00337
   3    C         -0.01424       0.06740       0.00034
   4    C          0.16007      -0.01487      -0.54385
   5    C          0.04837      -0.02005      -0.10744
   6    C         -0.06299       0.14467       0.49191
   7    C         -0.13192      -0.07149       0.49826
   8    H          0.02224      -0.04109      -0.25537
   9    H          0.03388       0.02122       0.24468
  10    H          0.00991      -0.03746       0.24833
  11    H          0.03475       0.01622      -0.24933
  12    H         -0.32123       0.10710      -0.05772
  13    H          0.17017      -0.06361       0.23318
  14    H         -0.06086      -0.04147       0.15582
  15    H         -0.00287      -0.05332      -0.14172
  16    H          0.03873       0.04484      -0.13175
  17    H         -0.01244       0.07933       0.16586
 *+*+*+*+*+*+*+*+*+*+*+*+*+*+*+*+*+*+*+*+*+*+*+*+*+*+*+*+*+*+*+*+*+*+*+*+*+*+*+*+
            BAR SHORTENED BY       0.000 PERCENT
 GRADIENT CRITERION IN FLEPO =     1.000


          FOR POINT    1 SECOND STRUCTURE
 DISTANCE A - B      1.333845
 HEAT               49.014385
 GRADIENT NORM      11.958813
 DIRECTION COSINE   -0.000000
 geo-ok HTML
 Transition state for Cyclopentadiene + ethylene <=> bicyclo[2,2,1]heptene

  C(HETATM    1  C1  HET A   1)   0.00000000 +0    0.0000000 +0    0.0000000 +0
  C(HETATM    2  C2  HET A   1)   1.35502188 +1    0.0000000 +0    0.0000000 +0     1     0     0
  C(HETATM    3  C3  HET A   1)   1.46554907 +1  109.2002154 +1    0.0000000 +0     2     1     0
  C(HETATM    4  C4  HET A   1)   1.35521661 +1  109.1469830 +1    0.0000000 +1     3     2     1
  C(HETATM    5  C5  HET A   1)   1.51128925 +1  109.2718447 +1   -5.7959158 +1     4     3     2
  C(HETATM    6  C1  HET B   2)   2.77083571 +1   88.3668682 +1  -78.7564196 +1     1     2     3
  C(HETATM    7  C2  HET B   2)   1.33218569 +1  100.9854083 +1   70.7359557 +1     6     1     2
  H(HETATM    8  H1  HET A   1)   1.06887862 +1  129.0792909 +1 -175.4911244 +1     1     2     3
  H(HETATM    9  H2  HET A   1)   1.06990072 +1  127.8129427 +1  178.9479855 +1     2     1     3
  H(HETATM   10  H3  HET A   1)   1.07027791 +1  123.2313334 +1  178.8940934 +1     3     2     1
  H(HETATM   11  H4  HET A   1)   1.06844953 +1  128.8237944 +1  175.6684095 +1     4     3     2
  H(HETATM   12 1H5  HET A   1)   1.11047373 +1  109.3789138 +1 -107.0428687 +1     5     4     3
  H(HETATM   13 2H5  HET A   1)   1.09922261 +1  114.5720908 +1  133.4255921 +1     5     4     3
  H(HETATM   14 1H1  HET B   2)   1.07738320 +1   84.9558413 +1 -165.9335776 +1     6     1     2
  H(HETATM   15 2H1  HET B   2)   1.07896616 +1   82.6854130 +1  -51.8132918 +1     6     1     2
  H(HETATM   16 1H2  HET B   2)   1.07944159 +1  123.3173232 +1  -88.4990471 +1     7     6     1
  H(HETATM   17 2H2  HET B   2)   1.07891007 +1  123.5988037 +1   91.3123502 +1     7     6     1
 
 TIME=     0.11
  REACTANTS AND PRODUCTS SWAPPED AROUND
 *+*+*+*+*+*+*+*+*+*+*+*+*+*+*+*+*+*+*+*+*+*+*+*+*+*+*+*+*+*+*+*+*+*+*+*+*+*+*+*+
            BAR SHORTENED BY       1.000 PERCENT
 GRADIENT CRITERION IN FLEPO =     8.959


          FOR POINT    2 FIRST  STRUCTURE
 DISTANCE A - B      1.320507
 HEAT               25.336239
 GRADIENT NORM      30.045874
 DIRECTION COSINE    0.935023
 geo-ok HTML
 Transition state for Cyclopentadiene + ethylene <=> bicyclo[2,2,1]heptene

  C(HETATM    1  C1  HET A   1)   0.00000000 +0    0.0000000 +0    0.0000000 +0
  C(HETATM    2  C2  HET A   1)   1.52241367 +1    0.0000000 +0    0.0000000 +0     1     0     0
  C(HETATM    3  C3  HET A   1)   1.34522737 +1  107.7223385 +1    0.0000000 +0     2     1     0
  C(HETATM    4  C4  HET A   1)   1.52148213 +1  107.9584367 +1    0.0542353 +1     3     2     1
  C(HETATM    5  C5  HET A   1)   1.55771098 +1  101.1469996 +1   32.3410961 +1     1     2     3
  C(HETATM    6  C1  HET B   2)   1.59967486 +1  104.2166027 +1  -70.9521134 +1     1     2     3
  C(HETATM    7  C2  HET B   2)   1.55559748 +1  103.0915836 +1   67.3815724 +1     6     1     2
  H(HETATM    8  H1  HET A   1)   1.08996503 +1  116.2802994 +1  158.8313124 +1     1     2     3
  H(HETATM    9  H2  HET A   1)   1.06735923 +1  122.0438265 +1  176.3040394 +1     2     1     3
  H(HETATM   10  H3  HET A   1)   1.06791067 +1  129.3705473 +1  175.7716923 +1     3     2     1
  H(HETATM   11  H4  HET A   1)   1.08750535 +1  116.3435515 +1 -158.8119568 +1     4     3     2
  H(HETATM   12 1H5  HET A   1)   1.09459882 +1  115.7769791 +1   73.2262126 +1     5     1     2
  H(HETATM   13 2H5  HET A   1)   1.09138704 +1  112.3838120 +1 -164.1264020 +1     5     1     2
  H(HETATM   14 1H1  HET B   2)   1.09707386 +1  111.9438379 +1 -171.3071114 +1     6     1     2
  H(HETATM   15 2H1  HET B   2)   1.09832030 +1  109.4764513 +1  -53.1254313 +1     6     1     2
  H(HETATM   16 1H2  HET B   2)   1.09628091 +1  112.2133524 +1 -117.9809999 +1     7     6     1
  H(HETATM   17 2H2  HET B   2)   1.09646707 +1  112.2976577 +1  121.0904793 +1     7     6     1
 
 *+*+*+*+*+*+*+*+*+*+*+*+*+*+*+*+*+*+*+*+*+*+*+*+*+*+*+*+*+*+*+*+*+*+*+*+*+*+*+*+
            BAR SHORTENED BY       1.000 PERCENT
 GRADIENT CRITERION IN FLEPO =    10.000
 

                    SINCE COS WAS JUST RESET,THE SEARCH IS BEING ENDED


          FOR POINT    3 FIRST  STRUCTURE
 DISTANCE A - B      1.307302
 HEAT               25.871196
 GRADIENT NORM      38.079091
 DIRECTION COSINE    0.989364
 geo-ok HTML
 Transition state for Cyclopentadiene + ethylene <=> bicyclo[2,2,1]heptene

  C(HETATM    1  C1  HET A   1)   0.00000000 +0    0.0000000 +0    0.0000000 +0
  C(HETATM    2  C2  HET A   1)   1.52012044 +1    0.0000000 +0    0.0000000 +0     1     0     0
  C(HETATM    3  C3  HET A   1)   1.34643049 +1  107.7428891 +1    0.0000000 +0     2     1     0
  C(HETATM    4  C4  HET A   1)   1.51920229 +1  107.9765795 +1    0.0532667 +1     3     2     1
  C(HETATM    5  C5  HET A   1)   1.55669684 +1  101.2720504 +1   32.1250218 +1     1     2     3
  C(HETATM    6  C1  HET B   2)   1.61136775 +1  104.0899581 +1  -71.0360309 +1     1     2     3
  C(HETATM    7  C2  HET B   2)   1.55336335 +1  103.0560321 +1   67.4187347 +1     6     1     2
  H(HETATM    8  H1  HET A   1)   1.08919436 +1  116.4745181 +1  158.9998793 +1     1     2     3
  H(HETATM    9  H2  HET A   1)   1.06707097 +1  122.0832150 +1  176.2933847 +1     2     1     3
  H(HETATM   10  H3  HET A   1)   1.06762733 +1  129.3196357 +1  175.7682327 +1     3     2     1
  H(HETATM   11  H4  HET A   1)   1.08675594 +1  116.5356083 +1 -158.9797845 +1     4     3     2
  H(HETATM   12 1H5  HET A   1)   1.09437356 +1  115.7177470 +1   73.5222821 +1     5     1     2
  H(HETATM   13 2H5  HET A   1)   1.09108146 +1  112.3859587 +1 -163.8762416 +1     5     1     2
  H(HETATM   14 1H1  HET B   2)   1.09556812 +1  111.7013607 +1 -171.2587576 +1     6     1     2
  H(HETATM   15 2H1  HET B   2)   1.09692565 +1  109.2260424 +1  -53.0930240 +1     6     1     2
  H(HETATM   16 1H2  HET B   2)   1.09488293 +1  112.3438358 +1 -117.7235759 +1     7     6     1
  H(HETATM   17 2H2  HET B   2)   1.09494645 +1  112.4324325 +1  120.8438266 +1     7     6     1
 
 *+*+*+*+*+*+*+*+*+*+*+*+*+*+*+*+*+*+*+*+*+*+*+*+*+*+*+*+*+*+*+*+*+*+*+*+*+*+*+*+
            BAR SHORTENED BY       1.000 PERCENT
 GRADIENT CRITERION IN FLEPO =    10.000


          FOR POINT    4 FIRST  STRUCTURE
 DISTANCE A - B      1.294229
 HEAT               26.282683
 GRADIENT NORM      42.286421
 DIRECTION COSINE    0.965638
 geo-ok HTML
 Transition state for Cyclopentadiene + ethylene <=> bicyclo[2,2,1]heptene

  C(HETATM    1  C1  HET A   1)   0.00000000 +0    0.0000000 +0    0.0000000 +0
  C(HETATM    2  C2  HET A   1)   1.51440389 +1    0.0000000 +0    0.0000000 +0     1     0     0
  C(HETATM    3  C3  HET A   1)   1.34701729 +1  108.1055030 +1    0.0000000 +0     2     1     0
  C(HETATM    4  C4  HET A   1)   1.52057995 +1  107.5166452 +1   -0.0393302 +1     3     2     1
  C(HETATM    5  C5  HET A   1)   1.55800957 +1  101.4531252 +1   32.1701241 +1     1     2     3
  C(HETATM    6  C1  HET B   2)   1.61736007 +1  104.1367840 +1  -71.0931642 +1     1     2     3
  C(HETATM    7  C2  HET B   2)   1.55073913 +1  102.9904721 +1   67.4360259 +1     6     1     2
  H(HETATM    8  H1  HET A   1)   1.08983767 +1  116.5344013 +1  159.0041072 +1     1     2     3
  H(HETATM    9  H2  HET A   1)   1.06377072 +1  122.4572571 +1  175.7435437 +1     2     1     3
  H(HETATM   10  H3  HET A   1)   1.06345916 +1  129.6670649 +1  175.3143985 +1     3     2     1
  H(HETATM   11  H4  HET A   1)   1.09064287 +1  116.5787989 +1 -158.9544256 +1     4     3     2
  H(HETATM   12 1H5  HET A   1)   1.09467702 +1  115.7953475 +1   73.6498943 +1     5     1     2
  H(HETATM   13 2H5  HET A   1)   1.09327540 +1  112.1069732 +1 -163.6899135 +1     5     1     2
  H(HETATM   14 1H1  HET B   2)   1.09801768 +1  111.4529042 +1 -171.2448539 +1     6     1     2
  H(HETATM   15 2H1  HET B   2)   1.09665151 +1  109.5621540 +1  -53.1288542 +1     6     1     2
  H(HETATM   16 1H2  HET B   2)   1.09661000 +1  112.6959042 +1 -117.7129945 +1     7     6     1
  H(HETATM   17 2H2  HET B   2)   1.09837574 +1  112.6255357 +1  120.3823620 +1     7     6     1
 
 TIME=     0.06
  REACTANTS AND PRODUCTS SWAPPED AROUND
 *+*+*+*+*+*+*+*+*+*+*+*+*+*+*+*+*+*+*+*+*+*+*+*+*+*+*+*+*+*+*+*+*+*+*+*+*+*+*+*+
            BAR SHORTENED BY       0.000 PERCENT
 GRADIENT CRITERION IN FLEPO =    10.000


          FOR POINT    5 SECOND STRUCTURE
 DISTANCE A - B      1.294229
 HEAT               49.206596
 GRADIENT NORM      11.863544
 DIRECTION COSINE    0.930592
 geo-ok HTML
 Transition state for Cyclopentadiene + ethylene <=> bicyclo[2,2,1]heptene

  C(HETATM    1  C1  HET A   1)   0.00000000 +0    0.0000000 +0    0.0000000 +0
  C(HETATM    2  C2  HET A   1)   1.35502188 +1    0.0000000 +0    0.0000000 +0     1     0     0
  C(HETATM    3  C3  HET A   1)   1.46554907 +1  109.2002154 +1    0.0000000 +0     2     1     0
  C(HETATM    4  C4  HET A   1)   1.35521661 +1  109.1469830 +1    0.0000000 +1     3     2     1
  C(HETATM    5  C5  HET A   1)   1.51128925 +1  109.2718447 +1   -5.7959158 +1     4     3     2
  C(HETATM    6  C1  HET B   2)   2.77083571 +1   88.3668682 +1  -78.7564196 +1     1     2     3
  C(HETATM    7  C2  HET B   2)   1.33218569 +1  100.9854083 +1   70.7359557 +1     6     1     2
  H(HETATM    8  H1  HET A   1)   1.06887862 +1  129.0792909 +1 -175.4911244 +1     1     2     3
  H(HETATM    9  H2  HET A   1)   1.06990072 +1  127.8129427 +1  178.9479855 +1     2     1     3
  H(HETATM   10  H3  HET A   1)   1.07027791 +1  123.2313334 +1  178.8940934 +1     3     2     1
  H(HETATM   11  H4  HET A   1)   1.06844953 +1  128.8237944 +1  175.6684095 +1     4     3     2
  H(HETATM   12 1H5  HET A   1)   1.11047373 +1  109.3789138 +1 -107.0428687 +1     5     4     3
  H(HETATM   13 2H5  HET A   1)   1.09922261 +1  114.5720908 +1  133.4255921 +1     5     4     3
  H(HETATM   14 1H1  HET B   2)   1.07738320 +1   84.9558413 +1 -165.9335776 +1     6     1     2
  H(HETATM   15 2H1  HET B   2)   1.07896616 +1   82.6854130 +1  -51.8132918 +1     6     1     2
  H(HETATM   16 1H2  HET B   2)   1.07944159 +1  123.3173232 +1  -88.4990471 +1     7     6     1
  H(HETATM   17 2H2  HET B   2)   1.07891007 +1  123.5988037 +1   91.3123502 +1     7     6     1
 
 TIME=     0.00
  REACTANTS AND PRODUCTS SWAPPED AROUND
 *+*+*+*+*+*+*+*+*+*+*+*+*+*+*+*+*+*+*+*+*+*+*+*+*+*+*+*+*+*+*+*+*+*+*+*+*+*+*+*+
            BAR SHORTENED BY       1.000 PERCENT
 GRADIENT CRITERION IN FLEPO =     8.864


          FOR POINT    6 FIRST  STRUCTURE
 DISTANCE A - B      1.281287
 HEAT               26.716572
 GRADIENT NORM      44.063750
 DIRECTION COSINE    0.949883
 geo-ok HTML
 Transition state for Cyclopentadiene + ethylene <=> bicyclo[2,2,1]heptene

  C(HETATM    1  C1  HET A   1)   0.00000000 +0    0.0000000 +0    0.0000000 +0
  C(HETATM    2  C2  HET A   1)   1.51608157 +1    0.0000000 +0    0.0000000 +0     1     0     0
  C(HETATM    3  C3  HET A   1)   1.34711464 +1  107.8072431 +1    0.0000000 +0     2     1     0
  C(HETATM    4  C4  HET A   1)   1.51537066 +1  107.7664376 +1   -0.1504217 +1     3     2     1
  C(HETATM    5  C5  HET A   1)   1.55410668 +1  101.5554363 +1   32.1497164 +1     1     2     3
  C(HETATM    6  C1  HET B   2)   1.62183208 +1  104.0560444 +1  -71.1590062 +1     1     2     3
  C(HETATM    7  C2  HET B   2)   1.54629676 +1  102.8449530 +1   67.5724290 +1     6     1     2
  H(HETATM    8  H1  HET A   1)   1.09326091 +1  116.2502599 +1  159.0067243 +1     1     2     3
  H(HETATM    9  H2  HET A   1)   1.06706111 +1  122.5051301 +1  175.2530482 +1     2     1     3
  H(HETATM   10  H3  HET A   1)   1.06559412 +1  129.1142813 +1  174.8810234 +1     3     2     1
  H(HETATM   11  H4  HET A   1)   1.08935902 +1  116.6108765 +1 -158.5436935 +1     4     3     2
  H(HETATM   12 1H5  HET A   1)   1.09768502 +1  116.0084800 +1   74.1032480 +1     5     1     2
  H(HETATM   13 2H5  HET A   1)   1.09336252 +1  111.5298690 +1 -163.2636619 +1     5     1     2
  H(HETATM   14 1H1  HET B   2)   1.09981775 +1  111.0562759 +1 -170.9766740 +1     6     1     2
  H(HETATM   15 2H1  HET B   2)   1.09892173 +1  109.7524143 +1  -53.3141836 +1     6     1     2
  H(HETATM   16 1H2  HET B   2)   1.10552615 +1  112.8100863 +1 -118.7927696 +1     7     6     1
  H(HETATM   17 2H2  HET B   2)   1.09841998 +1  112.8481042 +1  120.1496814 +1     7     6     1
 
 *+*+*+*+*+*+*+*+*+*+*+*+*+*+*+*+*+*+*+*+*+*+*+*+*+*+*+*+*+*+*+*+*+*+*+*+*+*+*+*+
            BAR SHORTENED BY       1.000 PERCENT
 GRADIENT CRITERION IN FLEPO =    10.000


          FOR POINT    7 FIRST  STRUCTURE
 DISTANCE A - B      1.268474
 HEAT               27.217684
 GRADIENT NORM      48.778317
 DIRECTION COSINE    0.954001
 geo-ok HTML
 Transition state for Cyclopentadiene + ethylene <=> bicyclo[2,2,1]heptene

  C(HETATM    1  C1  HET A   1)   0.00000000 +0    0.0000000 +0    0.0000000 +0
  C(HETATM    2  C2  HET A   1)   1.51751102 +1    0.0000000 +0    0.0000000 +0     1     0     0
  C(HETATM    3  C3  HET A   1)   1.34383161 +1  107.8701525 +1    0.0000000 +0     2     1     0
  C(HETATM    4  C4  HET A   1)   1.51417978 +1  107.8631817 +1    0.0154707 +1     3     2     1
  C(HETATM    5  C5  HET A   1)   1.55655463 +1  101.5380370 +1   31.8650410 +1     1     2     3
  C(HETATM    6  C1  HET B   2)   1.62996597 +1  103.7732448 +1  -71.2154850 +1     1     2     3
  C(HETATM    7  C2  HET B   2)   1.54839456 +1  103.0444643 +1   67.5003217 +1     6     1     2
  H(HETATM    8  H1  HET A   1)   1.08856359 +1  116.4368634 +1  158.9153619 +1     1     2     3
  H(HETATM    9  H2  HET A   1)   1.06970174 +1  122.2889483 +1  175.0055626 +1     2     1     3
  H(HETATM   10  H3  HET A   1)   1.06834047 +1  128.9009087 +1  174.5446248 +1     3     2     1
  H(HETATM   11  H4  HET A   1)   1.08902462 +1  116.4631907 +1 -158.5160951 +1     4     3     2
  H(HETATM   12 1H5  HET A   1)   1.09749808 +1  116.6755942 +1   74.3663148 +1     5     1     2
  H(HETATM   13 2H5  HET A   1)   1.09143709 +1  111.4096475 +1 -162.6322664 +1     5     1     2
  H(HETATM   14 1H1  HET B   2)   1.09443712 +1  110.2928182 +1 -171.2319045 +1     6     1     2
  H(HETATM   15 2H1  HET B   2)   1.09852002 +1  110.1493604 +1  -53.5282055 +1     6     1     2
  H(HETATM   16 1H2  HET B   2)   1.09852388 +1  113.0683318 +1 -118.6188511 +1     7     6     1
  H(HETATM   17 2H2  HET B   2)   1.09727171 +1  113.1210491 +1  119.5256959 +1     7     6     1
 
 *+*+*+*+*+*+*+*+*+*+*+*+*+*+*+*+*+*+*+*+*+*+*+*+*+*+*+*+*+*+*+*+*+*+*+*+*+*+*+*+
            BAR SHORTENED BY       1.000 PERCENT
 GRADIENT CRITERION IN FLEPO =    10.000


          FOR POINT    8 FIRST  STRUCTURE
 DISTANCE A - B      1.255789
 HEAT               27.805055
 GRADIENT NORM      52.887315
 DIRECTION COSINE    0.944212
 geo-ok HTML
 Transition state for Cyclopentadiene + ethylene <=> bicyclo[2,2,1]heptene

  C(HETATM    1  C1  HET A   1)   0.00000000 +0    0.0000000 +0    0.0000000 +0
  C(HETATM    2  C2  HET A   1)   1.51078776 +1    0.0000000 +0    0.0000000 +0     1     0     0
  C(HETATM    3  C3  HET A   1)   1.35030353 +1  107.8508192 +1    0.0000000 +0     2     1     0
  C(HETATM    4  C4  HET A   1)   1.51179025 +1  107.8161666 +1   -0.0042654 +1     3     2     1
  C(HETATM    5  C5  HET A   1)   1.55532426 +1  101.8190786 +1   31.6174702 +1     1     2     3
  C(HETATM    6  C1  HET B   2)   1.63964786 +1  103.6926737 +1  -71.4222368 +1     1     2     3
  C(HETATM    7  C2  HET B   2)   1.54904609 +1  102.6979912 +1   67.7945158 +1     6     1     2
  H(HETATM    8  H1  HET A   1)   1.09380123 +1  116.5779389 +1  159.0210537 +1     1     2     3
  H(HETATM    9  H2  HET A   1)   1.06820051 +1  122.7768246 +1  174.8967051 +1     2     1     3
  H(HETATM   10  H3  HET A   1)   1.06673761 +1  128.7437599 +1  174.4911869 +1     3     2     1
  H(HETATM   11  H4  HET A   1)   1.08797140 +1  116.8624766 +1 -158.3942315 +1     4     3     2
  H(HETATM   12 1H5  HET A   1)   1.10096082 +1  116.4475114 +1   74.9776993 +1     5     1     2
  H(HETATM   13 2H5  HET A   1)   1.09182418 +1  111.0825032 +1 -162.2526433 +1     5     1     2
  H(HETATM   14 1H1  HET B   2)   1.09770597 +1  110.2000598 +1 -170.9998711 +1     6     1     2
  H(HETATM   15 2H1  HET B   2)   1.09533792 +1  110.2376718 +1  -53.3632666 +1     6     1     2
  H(HETATM   16 1H2  HET B   2)   1.10191921 +1  112.8891857 +1 -119.1285657 +1     7     6     1
  H(HETATM   17 2H2  HET B   2)   1.09749063 +1  113.2146127 +1  119.6095228 +1     7     6     1
 
 TIME=     0.06
  REACTANTS AND PRODUCTS SWAPPED AROUND
 *+*+*+*+*+*+*+*+*+*+*+*+*+*+*+*+*+*+*+*+*+*+*+*+*+*+*+*+*+*+*+*+*+*+*+*+*+*+*+*+
            BAR SHORTENED BY       0.000 PERCENT
 GRADIENT CRITERION IN FLEPO =    10.000


          FOR POINT    9 SECOND STRUCTURE
 DISTANCE A - B      1.255789
 HEAT               49.206596
 GRADIENT NORM      11.958767
 DIRECTION COSINE    0.954896
 geo-ok HTML
 Transition state for Cyclopentadiene + ethylene <=> bicyclo[2,2,1]heptene

  C(HETATM    1  C1  HET A   1)   0.00000000 +0    0.0000000 +0    0.0000000 +0
  C(HETATM    2  C2  HET A   1)   1.35502188 +1    0.0000000 +0    0.0000000 +0     1     0     0
  C(HETATM    3  C3  HET A   1)   1.46554907 +1  109.2002154 +1    0.0000000 +0     2     1     0
  C(HETATM    4  C4  HET A   1)   1.35521661 +1  109.1469830 +1    0.0000000 +1     3     2     1
  C(HETATM    5  C5  HET A   1)   1.51128925 +1  109.2718447 +1   -5.7959158 +1     4     3     2
  C(HETATM    6  C1  HET B   2)   2.77083571 +1   88.3668682 +1  -78.7564196 +1     1     2     3
  C(HETATM    7  C2  HET B   2)   1.33218569 +1  100.9854083 +1   70.7359557 +1     6     1     2
  H(HETATM    8  H1  HET A   1)   1.06887862 +1  129.0792909 +1 -175.4911244 +1     1     2     3
  H(HETATM    9  H2  HET A   1)   1.06990072 +1  127.8129427 +1  178.9479855 +1     2     1     3
  H(HETATM   10  H3  HET A   1)   1.07027791 +1  123.2313334 +1  178.8940934 +1     3     2     1
  H(HETATM   11  H4  HET A   1)   1.06844953 +1  128.8237944 +1  175.6684095 +1     4     3     2
  H(HETATM   12 1H5  HET A   1)   1.11047373 +1  109.3789138 +1 -107.0428687 +1     5     4     3
  H(HETATM   13 2H5  HET A   1)   1.09922261 +1  114.5720908 +1  133.4255921 +1     5     4     3
  H(HETATM   14 1H1  HET B   2)   1.07738320 +1   84.9558413 +1 -165.9335776 +1     6     1     2
  H(HETATM   15 2H1  HET B   2)   1.07896616 +1   82.6854130 +1  -51.8132918 +1     6     1     2
  H(HETATM   16 1H2  HET B   2)   1.07944159 +1  123.3173232 +1  -88.4990471 +1     7     6     1
  H(HETATM   17 2H2  HET B   2)   1.07891007 +1  123.5988037 +1   91.3123502 +1     7     6     1
 
 TIME=     0.02
  REACTANTS AND PRODUCTS SWAPPED AROUND
 *+*+*+*+*+*+*+*+*+*+*+*+*+*+*+*+*+*+*+*+*+*+*+*+*+*+*+*+*+*+*+*+*+*+*+*+*+*+*+*+
            BAR SHORTENED BY       1.000 PERCENT
 GRADIENT CRITERION IN FLEPO =     8.959


          FOR POINT   10 FIRST  STRUCTURE
 DISTANCE A - B      1.243231
 HEAT               28.231244
 GRADIENT NORM      53.563203
 DIRECTION COSINE    0.946387
 geo-ok HTML
 Transition state for Cyclopentadiene + ethylene <=> bicyclo[2,2,1]heptene

  C(HETATM    1  C1  HET A   1)   0.00000000 +0    0.0000000 +0    0.0000000 +0
  C(HETATM    2  C2  HET A   1)   1.50614180 +1    0.0000000 +0    0.0000000 +0     1     0     0
  C(HETATM    3  C3  HET A   1)   1.34973469 +1  107.9274959 +1    0.0000000 +0     2     1     0
  C(HETATM    4  C4  HET A   1)   1.51450831 +1  107.6960744 +1    0.1502250 +1     3     2     1
  C(HETATM    5  C5  HET A   1)   1.55279131 +1  102.4028986 +1   31.1663615 +1     1     2     3
  C(HETATM    6  C1  HET B   2)   1.64152494 +1  103.7498787 +1  -71.6140500 +1     1     2     3
  C(HETATM    7  C2  HET B   2)   1.55099516 +1  102.5901719 +1   67.7766184 +1     6     1     2
  H(HETATM    8  H1  HET A   1)   1.09396420 +1  116.7985388 +1  158.3504505 +1     1     2     3
  H(HETATM    9  H2  HET A   1)   1.06804490 +1  122.7148306 +1  174.6164860 +1     2     1     3
  H(HETATM   10  H3  HET A   1)   1.07101573 +1  128.9674709 +1  173.8043539 +1     3     2     1
  H(HETATM   11  H4  HET A   1)   1.08689474 +1  116.9534854 +1 -158.3037388 +1     4     3     2
  H(HETATM   12 1H5  HET A   1)   1.10113237 +1  116.6851293 +1   77.4744287 +1     5     1     2
  H(HETATM   13 2H5  HET A   1)   1.09545017 +1  111.1721176 +1 -161.3673999 +1     5     1     2
  H(HETATM   14 1H1  HET B   2)   1.09650158 +1  111.0271354 +1 -170.9784411 +1     6     1     2
  H(HETATM   15 2H1  HET B   2)   1.09921018 +1  110.4435144 +1  -53.2352177 +1     6     1     2
  H(HETATM   16 1H2  HET B   2)   1.09925656 +1  113.0256967 +1 -119.0229290 +1     7     6     1
  H(HETATM   17 2H2  HET B   2)   1.09393061 +1  113.1672037 +1  119.8117954 +1     7     6     1
 
 *+*+*+*+*+*+*+*+*+*+*+*+*+*+*+*+*+*+*+*+*+*+*+*+*+*+*+*+*+*+*+*+*+*+*+*+*+*+*+*+
            BAR SHORTENED BY       1.000 PERCENT
 GRADIENT CRITERION IN FLEPO =    10.000
 

                    SINCE COS WAS JUST RESET,THE SEARCH IS BEING ENDED


          FOR POINT   11 FIRST  STRUCTURE
 DISTANCE A - B      1.230799
 HEAT               28.956334
 GRADIENT NORM      57.242033
 DIRECTION COSINE    0.962905
 geo-ok HTML
 Transition state for Cyclopentadiene + ethylene <=> bicyclo[2,2,1]heptene

  C(HETATM    1  C1  HET A   1)   0.00000000 +0    0.0000000 +0    0.0000000 +0
  C(HETATM    2  C2  HET A   1)   1.50829704 +1    0.0000000 +0    0.0000000 +0     1     0     0
  C(HETATM    3  C3  HET A   1)   1.34723152 +1  108.1470948 +1    0.0000000 +0     2     1     0
  C(HETATM    4  C4  HET A   1)   1.51534150 +1  107.5750185 +1   -0.0192141 +1     3     2     1
  C(HETATM    5  C5  HET A   1)   1.55421010 +1  102.3382712 +1  -31.0991626 +1     4     3     2
  C(HETATM    6  C1  HET B   2)   1.65043752 +1  103.5672199 +1  -71.4269100 +1     1     2     3
  C(HETATM    7  C2  HET B   2)   1.54490682 +1  102.7555246 +1   67.5483961 +1     6     1     2
  H(HETATM    8  H1  HET A   1)   1.08908786 +1  116.9355546 +1  158.2175808 +1     1     2     3
  H(HETATM    9  H2  HET A   1)   1.07108558 +1  122.4551838 +1  174.2603310 +1     2     1     3
  H(HETATM   10  H3  HET A   1)   1.06700146 +1  129.0438255 +1  173.4150784 +1     3     2     1
  H(HETATM   11  H4  HET A   1)   1.09020632 +1  116.9190831 +1 -158.6420322 +1     4     3     2
  H(HETATM   12 1H5  HET A   1)   1.09690526 +1  117.5291991 +1  -76.7921362 +1     5     4     3
  H(HETATM   13 2H5  HET A   1)   1.09167536 +1  111.6339462 +1  160.3472488 +1     5     4     3
  H(HETATM   14 1H1  HET B   2)   1.09917232 +1  110.5016713 +1 -170.9338117 +1     6     1     2
  H(HETATM   15 2H1  HET B   2)   1.09551829 +1  110.1747454 +1  -53.6795025 +1     6     1     2
  H(HETATM   16 1H2  HET B   2)   1.09512749 +1  113.3935362 +1 -118.9849743 +1     7     6     1
  H(HETATM   17 2H2  HET B   2)   1.09897705 +1  113.2512871 +1  119.6245488 +1     7     6     1
 
 *+*+*+*+*+*+*+*+*+*+*+*+*+*+*+*+*+*+*+*+*+*+*+*+*+*+*+*+*+*+*+*+*+*+*+*+*+*+*+*+
            BAR SHORTENED BY       1.000 PERCENT
 GRADIENT CRITERION IN FLEPO =    10.000


          FOR POINT   12 FIRST  STRUCTURE
 DISTANCE A - B      1.218491
 HEAT               29.684923
 GRADIENT NORM      62.839334
 DIRECTION COSINE    0.998191
 geo-ok HTML
 Transition state for Cyclopentadiene + ethylene <=> bicyclo[2,2,1]heptene

  C(HETATM    1  C1  HET A   1)   0.00000000 +0    0.0000000 +0    0.0000000 +0
  C(HETATM    2  C2  HET A   1)   1.50620557 +1    0.0000000 +0    0.0000000 +0     1     0     0
  C(HETATM    3  C3  HET A   1)   1.34841462 +1  108.1629277 +1    0.0000000 +0     2     1     0
  C(HETATM    4  C4  HET A   1)   1.51318371 +1  107.5962956 +1   -0.0179947 +1     3     2     1
  C(HETATM    5  C5  HET A   1)   1.55329668 +1  102.4485435 +1  -30.8892500 +1     4     3     2
  C(HETATM    6  C1  HET B   2)   1.66162774 +1  103.4420957 +1  -71.5054732 +1     1     2     3
  C(HETATM    7  C2  HET B   2)   1.54277960 +1  102.7261838 +1   67.5830630 +1     6     1     2
  H(HETATM    8  H1  HET A   1)   1.08830330 +1  117.1244573 +1  158.3945645 +1     1     2     3
  H(HETATM    9  H2  HET A   1)   1.07085730 +1  122.4952034 +1  174.2743433 +1     2     1     3
  H(HETATM   10  H3  HET A   1)   1.06683101 +1  128.9918293 +1  173.4405564 +1     3     2     1
  H(HETATM   11  H4  HET A   1)   1.08943219 +1  117.1034818 +1 -158.8168852 +1     4     3     2
  H(HETATM   12 1H5  HET A   1)   1.09681940 +1  117.4520241 +1  -77.0575303 +1     5     4     3
  H(HETATM   13 2H5  HET A   1)   1.09151316 +1  111.6483075 +1  160.1258466 +1     5     4     3
  H(HETATM   14 1H1  HET B   2)   1.09779312 +1  110.2695598 +1 -170.8882189 +1     6     1     2
  H(HETATM   15 2H1  HET B   2)   1.09409941 +1  109.9173881 +1  -53.6446647 +1     6     1     2
  H(HETATM   16 1H2  HET B   2)   1.09371200 +1  113.5158639 +1 -118.7188722 +1     7     6     1
  H(HETATM   17 2H2  HET B   2)   1.09758878 +1  113.3750793 +1  119.3867091 +1     7     6     1
 
 TIME=     0.06
  REACTANTS AND PRODUCTS SWAPPED AROUND
 *+*+*+*+*+*+*+*+*+*+*+*+*+*+*+*+*+*+*+*+*+*+*+*+*+*+*+*+*+*+*+*+*+*+*+*+*+*+*+*+
            BAR SHORTENED BY       0.000 PERCENT
 GRADIENT CRITERION IN FLEPO =    10.000


          FOR POINT   13 SECOND STRUCTURE
 DISTANCE A - B      1.218491
 HEAT               49.206596
 GRADIENT NORM      11.863544
 DIRECTION COSINE    0.954691
 geo-ok HTML
 Transition state for Cyclopentadiene + ethylene <=> bicyclo[2,2,1]heptene

  C(HETATM    1  C1  HET A   1)   0.00000000 +0    0.0000000 +0    0.0000000 +0
  C(HETATM    2  C2  HET A   1)   1.35502188 +1    0.0000000 +0    0.0000000 +0     1     0     0
  C(HETATM    3  C3  HET A   1)   1.46554907 +1  109.2002154 +1    0.0000000 +0     2     1     0
  C(HETATM    4  C4  HET A   1)   1.35521661 +1  109.1469830 +1    0.0000000 +1     3     2     1
  C(HETATM    5  C5  HET A   1)   1.51128925 +1  109.2718447 +1   -5.7959158 +1     4     3     2
  C(HETATM    6  C1  HET B   2)   2.77083571 +1   88.3668682 +1  -78.7564196 +1     1     2     3
  C(HETATM    7  C2  HET B   2)   1.33218569 +1  100.9854083 +1   70.7359557 +1     6     1     2
  H(HETATM    8  H1  HET A   1)   1.06887862 +1  129.0792909 +1 -175.4911244 +1     1     2     3
  H(HETATM    9  H2  HET A   1)   1.06990072 +1  127.8129427 +1  178.9479855 +1     2     1     3
  H(HETATM   10  H3  HET A   1)   1.07027791 +1  123.2313334 +1  178.8940934 +1     3     2     1
  H(HETATM   11  H4  HET A   1)   1.06844953 +1  128.8237944 +1  175.6684095 +1     4     3     2
  H(HETATM   12 1H5  HET A   1)   1.11047373 +1  109.3789138 +1 -107.0428687 +1     5     4     3
  H(HETATM   13 2H5  HET A   1)   1.09922261 +1  114.5720908 +1  133.4255921 +1     5     4     3
  H(HETATM   14 1H1  HET B   2)   1.07738320 +1   84.9558413 +1 -165.9335776 +1     6     1     2
  H(HETATM   15 2H1  HET B   2)   1.07896616 +1   82.6854130 +1  -51.8132918 +1     6     1     2
  H(HETATM   16 1H2  HET B   2)   1.07944159 +1  123.3173232 +1  -88.4990471 +1     7     6     1
  H(HETATM   17 2H2  HET B   2)   1.07891007 +1  123.5988037 +1   91.3123502 +1     7     6     1
 
 TIME=     0.02
  REACTANTS AND PRODUCTS SWAPPED AROUND
 *+*+*+*+*+*+*+*+*+*+*+*+*+*+*+*+*+*+*+*+*+*+*+*+*+*+*+*+*+*+*+*+*+*+*+*+*+*+*+*+
            BAR SHORTENED BY       1.000 PERCENT
 GRADIENT CRITERION IN FLEPO =     8.864


          FOR POINT   14 FIRST  STRUCTURE
 DISTANCE A - B      1.206306
 HEAT               30.399948
 GRADIENT NORM      64.398354
 DIRECTION COSINE    0.960623
 geo-ok HTML
 Transition state for Cyclopentadiene + ethylene <=> bicyclo[2,2,1]heptene

  C(HETATM    1  C1  HET A   1)   0.00000000 +0    0.0000000 +0    0.0000000 +0
  C(HETATM    2  C2  HET A   1)   1.50893437 +1    0.0000000 +0    0.0000000 +0     1     0     0
  C(HETATM    3  C3  HET A   1)   1.35013363 +1  107.8716525 +1    0.0000000 +0     2     1     0
  C(HETATM    4  C4  HET A   1)   1.50999423 +1  107.8386912 +1   -0.1220046 +1     3     2     1
  C(HETATM    5  C5  HET A   1)   1.55240899 +1  102.4550850 +1   30.9035881 +1     1     2     3
  C(HETATM    6  C1  HET B   2)   1.66531079 +1  103.4323294 +1  -71.4961547 +1     1     2     3
  C(HETATM    7  C2  HET B   2)   1.54324726 +1  102.7133379 +1   67.8137876 +1     6     1     2
  H(HETATM    8  H1  HET A   1)   1.09139966 +1  116.9279165 +1  158.4470336 +1     1     2     3
  H(HETATM    9  H2  HET A   1)   1.06919968 +1  122.8443506 +1  173.6848083 +1     2     1     3
  H(HETATM   10  H3  HET A   1)   1.06530085 +1  128.4011998 +1  173.1090066 +1     3     2     1
  H(HETATM   11  H4  HET A   1)   1.09631578 +1  116.5106817 +1 -157.5075387 +1     4     3     2
  H(HETATM   12 1H5  HET A   1)   1.10217693 +1  116.8789166 +1   77.9033189 +1     5     1     2
  H(HETATM   13 2H5  HET A   1)   1.08949292 +1  110.7985698 +1 -160.4190294 +1     5     1     2
  H(HETATM   14 1H1  HET B   2)   1.09850526 +1  110.1934129 +1 -170.6235336 +1     6     1     2
  H(HETATM   15 2H1  HET B   2)   1.09849547 +1  109.9088255 +1  -53.5542130 +1     6     1     2
  H(HETATM   16 1H2  HET B   2)   1.09856666 +1  113.4316059 +1 -118.7710071 +1     7     6     1
  H(HETATM   17 2H2  HET B   2)   1.09382972 +1  113.6294814 +1  118.3218737 +1     7     6     1
 
 *+*+*+*+*+*+*+*+*+*+*+*+*+*+*+*+*+*+*+*+*+*+*+*+*+*+*+*+*+*+*+*+*+*+*+*+*+*+*+*+
            BAR SHORTENED BY       1.000 PERCENT
 GRADIENT CRITERION IN FLEPO =    10.000


          FOR POINT   15 FIRST  STRUCTURE
 DISTANCE A - B      1.194243
 HEAT               31.157859
 GRADIENT NORM      67.871983
 DIRECTION COSINE    0.996031
 geo-ok HTML
 Transition state for Cyclopentadiene + ethylene <=> bicyclo[2,2,1]heptene

  C(HETATM    1  C1  HET A   1)   0.00000000 +0    0.0000000 +0    0.0000000 +0
  C(HETATM    2  C2  HET A   1)   1.50676903 +1    0.0000000 +0    0.0000000 +0     1     0     0
  C(HETATM    3  C3  HET A   1)   1.35075360 +1  107.8872151 +1    0.0000000 +0     2     1     0
  C(HETATM    4  C4  HET A   1)   1.50731593 +1  107.9153257 +1   -0.1246680 +1     3     2     1
  C(HETATM    5  C5  HET A   1)   1.55155158 +1  102.5839832 +1   30.6386881 +1     1     2     3
  C(HETATM    6  C1  HET B   2)   1.67631379 +1  103.2539706 +1  -71.6121486 +1     1     2     3
  C(HETATM    7  C2  HET B   2)   1.54068471 +1  102.4981502 +1   67.8943765 +1     6     1     2
  H(HETATM    8  H1  HET A   1)   1.09100789 +1  117.1620145 +1  158.5728041 +1     1     2     3
  H(HETATM    9  H2  HET A   1)   1.06846888 +1  122.7352052 +1  173.1150665 +1     2     1     3
  H(HETATM   10  H3  HET A   1)   1.06565202 +1  128.3507474 +1  172.3065481 +1     3     2     1
  H(HETATM   11  H4  HET A   1)   1.09316385 +1  116.8815182 +1 -157.8002523 +1     4     3     2
  H(HETATM   12 1H5  HET A   1)   1.10115564 +1  116.8728530 +1   78.3350150 +1     5     1     2
  H(HETATM   13 2H5  HET A   1)   1.09033224 +1  110.7813206 +1 -160.0524201 +1     5     1     2
  H(HETATM   14 1H1  HET B   2)   1.09754195 +1  109.9944918 +1 -170.5412766 +1     6     1     2
  H(HETATM   15 2H1  HET B   2)   1.09752685 +1  109.7006338 +1  -53.5512050 +1     6     1     2
  H(HETATM   16 1H2  HET B   2)   1.10088362 +1  113.3985117 +1 -118.8873994 +1     7     6     1
  H(HETATM   17 2H2  HET B   2)   1.09563538 +1  113.6668820 +1  118.5969064 +1     7     6     1
 
 *+*+*+*+*+*+*+*+*+*+*+*+*+*+*+*+*+*+*+*+*+*+*+*+*+*+*+*+*+*+*+*+*+*+*+*+*+*+*+*+
            BAR SHORTENED BY       1.000 PERCENT
 GRADIENT CRITERION IN FLEPO =    10.000


          FOR POINT   16 FIRST  STRUCTURE
 DISTANCE A - B      1.182300
 HEAT               31.985824
 GRADIENT NORM      72.551113
 DIRECTION COSINE    0.999007
 geo-ok HTML
 Transition state for Cyclopentadiene + ethylene <=> bicyclo[2,2,1]heptene

  C(HETATM    1  C1  HET A   1)   0.00000000 +0    0.0000000 +0    0.0000000 +0
  C(HETATM    2  C2  HET A   1)   1.50471488 +1    0.0000000 +0    0.0000000 +0     1     0     0
  C(HETATM    3  C3  HET A   1)   1.35190155 +1  107.9054892 +1    0.0000000 +0     2     1     0
  C(HETATM    4  C4  HET A   1)   1.50526799 +1  107.9329603 +1   -0.1236853 +1     3     2     1
  C(HETATM    5  C5  HET A   1)   1.55069339 +1  102.6904726 +1   30.4303099 +1     1     2     3
  C(HETATM    6  C1  HET B   2)   1.68724574 +1  103.1310875 +1  -71.6875357 +1     1     2     3
  C(HETATM    7  C2  HET B   2)   1.53859962 +1  102.4718440 +1   67.9254922 +1     6     1     2
  H(HETATM    8  H1  HET A   1)   1.09022168 +1  117.3464807 +1  158.7493358 +1     1     2     3
  H(HETATM    9  H2  HET A   1)   1.06830859 +1  122.7751524 +1  173.1402031 +1     2     1     3
  H(HETATM   10  H3  HET A   1)   1.06553867 +1  128.3042950 +1  172.3452906 +1     3     2     1
  H(HETATM   11  H4  HET A   1)   1.09231128 +1  117.0680206 +1 -157.9811028 +1     4     3     2
  H(HETATM   12 1H5  HET A   1)   1.10105281 +1  116.8002962 +1   78.5866927 +1     5     1     2
  H(HETATM   13 2H5  HET A   1)   1.09020956 +1  110.8048262 +1 -159.8297403 +1     5     1     2
  H(HETATM   14 1H1  HET B   2)   1.09622212 +1  109.7662160 +1 -170.4992593 +1     6     1     2
  H(HETATM   15 2H1  HET B   2)   1.09613371 +1  109.4474312 +1  -53.5184259 +1     6     1     2
  H(HETATM   16 1H2  HET B   2)   1.09943449 +1  113.5203645 +1 -118.6234163 +1     7     6     1
  H(HETATM   17 2H2  HET B   2)   1.09436961 +1  113.7867547 +1  118.3664428 +1     7     6     1
 
 TIME=     0.05
  REACTANTS AND PRODUCTS SWAPPED AROUND
 *+*+*+*+*+*+*+*+*+*+*+*+*+*+*+*+*+*+*+*+*+*+*+*+*+*+*+*+*+*+*+*+*+*+*+*+*+*+*+*+
            BAR SHORTENED BY       0.000 PERCENT
 GRADIENT CRITERION IN FLEPO =    10.000


          FOR POINT   17 SECOND STRUCTURE
 DISTANCE A - B      1.182300
 HEAT               49.206596
 GRADIENT NORM      11.863544
 DIRECTION COSINE    0.958902
 geo-ok HTML
 Transition state for Cyclopentadiene + ethylene <=> bicyclo[2,2,1]heptene

  C(HETATM    1  C1  HET A   1)   0.00000000 +0    0.0000000 +0    0.0000000 +0
  C(HETATM    2  C2  HET A   1)   1.35502188 +1    0.0000000 +0    0.0000000 +0     1     0     0
  C(HETATM    3  C3  HET A   1)   1.46554907 +1  109.2002154 +1    0.0000000 +0     2     1     0
  C(HETATM    4  C4  HET A   1)   1.35521661 +1  109.1469830 +1    0.0000000 +1     3     2     1
  C(HETATM    5  C5  HET A   1)   1.51128925 +1  109.2718447 +1   -5.7959158 +1     4     3     2
  C(HETATM    6  C1  HET B   2)   2.77083571 +1   88.3668682 +1  -78.7564196 +1     1     2     3
  C(HETATM    7  C2  HET B   2)   1.33218569 +1  100.9854083 +1   70.7359557 +1     6     1     2
  H(HETATM    8  H1  HET A   1)   1.06887862 +1  129.0792909 +1 -175.4911244 +1     1     2     3
  H(HETATM    9  H2  HET A   1)   1.06990072 +1  127.8129427 +1  178.9479855 +1     2     1     3
  H(HETATM   10  H3  HET A   1)   1.07027791 +1  123.2313334 +1  178.8940934 +1     3     2     1
  H(HETATM   11  H4  HET A   1)   1.06844953 +1  128.8237944 +1  175.6684095 +1     4     3     2
  H(HETATM   12 1H5  HET A   1)   1.11047373 +1  109.3789138 +1 -107.0428687 +1     5     4     3
  H(HETATM   13 2H5  HET A   1)   1.09922261 +1  114.5720908 +1  133.4255921 +1     5     4     3
  H(HETATM   14 1H1  HET B   2)   1.07738320 +1   84.9558413 +1 -165.9335776 +1     6     1     2
  H(HETATM   15 2H1  HET B   2)   1.07896616 +1   82.6854130 +1  -51.8132918 +1     6     1     2
  H(HETATM   16 1H2  HET B   2)   1.07944159 +1  123.3173232 +1  -88.4990471 +1     7     6     1
  H(HETATM   17 2H2  HET B   2)   1.07891007 +1  123.5988037 +1   91.3123502 +1     7     6     1
 
 TIME=     0.00
  REACTANTS AND PRODUCTS SWAPPED AROUND
 *+*+*+*+*+*+*+*+*+*+*+*+*+*+*+*+*+*+*+*+*+*+*+*+*+*+*+*+*+*+*+*+*+*+*+*+*+*+*+*+
            BAR SHORTENED BY       1.000 PERCENT
 GRADIENT CRITERION IN FLEPO =     8.864


          FOR POINT   18 FIRST  STRUCTURE
 DISTANCE A - B      1.170477
 HEAT               32.753567
 GRADIENT NORM      74.026072
 DIRECTION COSINE    0.964725
 geo-ok HTML
 Transition state for Cyclopentadiene + ethylene <=> bicyclo[2,2,1]heptene

  C(HETATM    1  C1  HET A   1)   0.00000000 +0    0.0000000 +0    0.0000000 +0
  C(HETATM    2  C2  HET A   1)   1.50499037 +1    0.0000000 +0    0.0000000 +0     1     0     0
  C(HETATM    3  C3  HET A   1)   1.35049986 +1  107.9350244 +1    0.0000000 +0     2     1     0
  C(HETATM    4  C4  HET A   1)   1.50505866 +1  107.9952698 +1   -0.2402268 +1     3     2     1
  C(HETATM    5  C5  HET A   1)   1.55178704 +1  102.6741780 +1  -30.0455104 +1     4     3     2
  C(HETATM    6  C1  HET B   2)   1.68690812 +1  103.0146695 +1  -71.7968342 +1     1     2     3
  C(HETATM    7  C2  HET B   2)   1.53881820 +1  102.7832794 +1   67.8924163 +1     6     1     2
  H(HETATM    8  H1  HET A   1)   1.09152681 +1  117.3949594 +1  158.5290242 +1     1     2     3
  H(HETATM    9  H2  HET A   1)   1.06904536 +1  122.7495891 +1  173.2174678 +1     2     1     3
  H(HETATM   10  H3  HET A   1)   1.06649435 +1  128.1674933 +1  172.3882408 +1     3     2     1
  H(HETATM   11  H4  HET A   1)   1.08879396 +1  117.4777438 +1 -158.1088430 +1     4     3     2
  H(HETATM   12 1H5  HET A   1)   1.09784065 +1  117.5018247 +1  -79.1060253 +1     5     4     3
  H(HETATM   13 2H5  HET A   1)   1.09281026 +1  110.9992208 +1  158.5719706 +1     5     4     3
  H(HETATM   14 1H1  HET B   2)   1.09931672 +1  110.0472227 +1 -170.4241642 +1     6     1     2
  H(HETATM   15 2H1  HET B   2)   1.09973292 +1  109.7297002 +1  -53.5526263 +1     6     1     2
  H(HETATM   16 1H2  HET B   2)   1.09661645 +1  114.0144115 +1 -118.3251082 +1     7     6     1
  H(HETATM   17 2H2  HET B   2)   1.09664874 +1  114.0516563 +1  118.2037791 +1     7     6     1
 
 *+*+*+*+*+*+*+*+*+*+*+*+*+*+*+*+*+*+*+*+*+*+*+*+*+*+*+*+*+*+*+*+*+*+*+*+*+*+*+*+
            BAR SHORTENED BY       1.000 PERCENT
 GRADIENT CRITERION IN FLEPO =    10.000


          FOR POINT   19 FIRST  STRUCTURE
 DISTANCE A - B      1.158773
 HEAT               33.637483
 GRADIENT NORM      78.108489
 DIRECTION COSINE    0.999250
 geo-ok HTML
 Transition state for Cyclopentadiene + ethylene <=> bicyclo[2,2,1]heptene

  C(HETATM    1  C1  HET A   1)   0.00000000 +0    0.0000000 +0    0.0000000 +0
  C(HETATM    2  C2  HET A   1)   1.50296993 +1    0.0000000 +0    0.0000000 +0     1     0     0
  C(HETATM    3  C3  HET A   1)   1.35165033 +1  107.9526306 +1    0.0000000 +0     2     1     0
  C(HETATM    4  C4  HET A   1)   1.50305799 +1  108.0120193 +1   -0.2383642 +1     3     2     1
  C(HETATM    5  C5  HET A   1)   1.55093815 +1  102.7778858 +1  -29.8412545 +1     4     3     2
  C(HETATM    6  C1  HET B   2)   1.69773475 +1  102.8934838 +1  -71.8700095 +1     1     2     3
  C(HETATM    7  C2  HET B   2)   1.53675183 +1  102.7550459 +1   67.9231556 +1     6     1     2
  H(HETATM    8  H1  HET A   1)   1.09073798 +1  117.5766688 +1  158.7073743 +1     1     2     3
  H(HETATM    9  H2  HET A   1)   1.06888479 +1  122.7897066 +1  173.2423772 +1     2     1     3
  H(HETATM   10  H3  HET A   1)   1.06637809 +1  128.1226887 +1  172.4272745 +1     3     2     1
  H(HETATM   11  H4  HET A   1)   1.08800901 +1  117.6574068 +1 -158.2909911 +1     4     3     2
  H(HETATM   12 1H5  HET A   1)   1.09779338 +1  117.4238728 +1  -79.3514467 +1     5     4     3
  H(HETATM   13 2H5  HET A   1)   1.09268696 +1  111.0219450 +1  158.3626515 +1     5     4     3
  H(HETATM   14 1H1  HET B   2)   1.09797656 +1  109.8186591 +1 -170.3833142 +1     6     1     2
  H(HETATM   15 2H1  HET B   2)   1.09831832 +1  109.4764686 +1  -53.5204218 +1     6     1     2
  H(HETATM   16 1H2  HET B   2)   1.09525832 +1  114.1293915 +1 -118.0627471 +1     7     6     1
  H(HETATM   17 2H2  HET B   2)   1.09539912 +1  114.1663838 +1  117.9753469 +1     7     6     1
 
 *+*+*+*+*+*+*+*+*+*+*+*+*+*+*+*+*+*+*+*+*+*+*+*+*+*+*+*+*+*+*+*+*+*+*+*+*+*+*+*+
            BAR SHORTENED BY       1.000 PERCENT
 GRADIENT CRITERION IN FLEPO =    10.000


          FOR POINT   20 FIRST  STRUCTURE
 DISTANCE A - B      1.147185
 HEAT               34.556808
 GRADIENT NORM      81.932892
 DIRECTION COSINE    0.999436
 geo-ok HTML
 Transition state for Cyclopentadiene + ethylene <=> bicyclo[2,2,1]heptene

  C(HETATM    1  C1  HET A   1)   0.00000000 +0    0.0000000 +0    0.0000000 +0
  C(HETATM    2  C2  HET A   1)   1.50097888 +1    0.0000000 +0    0.0000000 +0     1     0     0
  C(HETATM    3  C3  HET A   1)   1.35278929 +1  107.9699995 +1    0.0000000 +0     2     1     0
  C(HETATM    4  C4  HET A   1)   1.50108618 +1  108.0285330 +1   -0.2365080 +1     3     2     1
  C(HETATM    5  C5  HET A   1)   1.55010624 +1  102.8800518 +1  -29.6381957 +1     4     3     2
  C(HETATM    6  C1  HET B   2)   1.70845353 +1  102.7728830 +1  -71.9422922 +1     1     2     3
  C(HETATM    7  C2  HET B   2)   1.53470612 +1  102.7274281 +1   67.9535014 +1     6     1     2
  H(HETATM    8  H1  HET A   1)   1.08996772 +1  117.7558984 +1  158.8855298 +1     1     2     3
  H(HETATM    9  H2  HET A   1)   1.06872917 +1  122.8296575 +1  173.2676043 +1     2     1     3
  H(HETATM   10  H3  HET A   1)   1.06626605 +1  128.0782245 +1  172.4664460 +1     3     2     1
  H(HETATM   11  H4  HET A   1)   1.08724298 +1  117.8345820 +1 -158.4729114 +1     4     3     2
  H(HETATM   12 1H5  HET A   1)   1.09775005 +1  117.3465737 +1  -79.5951483 +1     5     4     3
  H(HETATM   13 2H5  HET A   1)   1.09256861 +1  111.0447126 +1  158.1545056 +1     5     4     3
  H(HETATM   14 1H1  HET B   2)   1.09667057 +1  109.5915153 +1 -170.3427444 +1     6     1     2
  H(HETATM   15 2H1  HET B   2)   1.09694017 +1  109.2250407 +1  -53.4890444 +1     6     1     2
  H(HETATM   16 1H2  HET B   2)   1.09393579 +1  114.2430980 +1 -117.8020703 +1     7     6     1
  H(HETATM   17 2H2  HET B   2)   1.09418198 +1  114.2798598 +1  117.7481313 +1     7     6     1
 
 TIME=     0.05
  REACTANTS AND PRODUCTS SWAPPED AROUND
 *+*+*+*+*+*+*+*+*+*+*+*+*+*+*+*+*+*+*+*+*+*+*+*+*+*+*+*+*+*+*+*+*+*+*+*+*+*+*+*+
            BAR SHORTENED BY       0.000 PERCENT
 GRADIENT CRITERION IN FLEPO =    10.000


          FOR POINT   21 SECOND STRUCTURE
 DISTANCE A - B      1.147185
 HEAT               49.206596
 GRADIENT NORM      11.863544
 DIRECTION COSINE    0.957798
 geo-ok HTML
 Transition state for Cyclopentadiene + ethylene <=> bicyclo[2,2,1]heptene

  C(HETATM    1  C1  HET A   1)   0.00000000 +0    0.0000000 +0    0.0000000 +0
  C(HETATM    2  C2  HET A   1)   1.35502188 +1    0.0000000 +0    0.0000000 +0     1     0     0
  C(HETATM    3  C3  HET A   1)   1.46554907 +1  109.2002154 +1    0.0000000 +0     2     1     0
  C(HETATM    4  C4  HET A   1)   1.35521661 +1  109.1469830 +1    0.0000000 +1     3     2     1
  C(HETATM    5  C5  HET A   1)   1.51128925 +1  109.2718447 +1   -5.7959158 +1     4     3     2
  C(HETATM    6  C1  HET B   2)   2.77083571 +1   88.3668682 +1  -78.7564196 +1     1     2     3
  C(HETATM    7  C2  HET B   2)   1.33218569 +1  100.9854083 +1   70.7359557 +1     6     1     2
  H(HETATM    8  H1  HET A   1)   1.06887862 +1  129.0792909 +1 -175.4911244 +1     1     2     3
  H(HETATM    9  H2  HET A   1)   1.06990072 +1  127.8129427 +1  178.9479855 +1     2     1     3
  H(HETATM   10  H3  HET A   1)   1.07027791 +1  123.2313334 +1  178.8940934 +1     3     2     1
  H(HETATM   11  H4  HET A   1)   1.06844953 +1  128.8237944 +1  175.6684095 +1     4     3     2
  H(HETATM   12 1H5  HET A   1)   1.11047373 +1  109.3789138 +1 -107.0428687 +1     5     4     3
  H(HETATM   13 2H5  HET A   1)   1.09922261 +1  114.5720908 +1  133.4255921 +1     5     4     3
  H(HETATM   14 1H1  HET B   2)   1.07738320 +1   84.9558413 +1 -165.9335776 +1     6     1     2
  H(HETATM   15 2H1  HET B   2)   1.07896616 +1   82.6854130 +1  -51.8132918 +1     6     1     2
  H(HETATM   16 1H2  HET B   2)   1.07944159 +1  123.3173232 +1  -88.4990471 +1     7     6     1
  H(HETATM   17 2H2  HET B   2)   1.07891007 +1  123.5988037 +1   91.3123502 +1     7     6     1
 
 TIME=     0.00
  REACTANTS AND PRODUCTS SWAPPED AROUND
 *+*+*+*+*+*+*+*+*+*+*+*+*+*+*+*+*+*+*+*+*+*+*+*+*+*+*+*+*+*+*+*+*+*+*+*+*+*+*+*+
            BAR SHORTENED BY       1.000 PERCENT
 GRADIENT CRITERION IN FLEPO =     8.864


          FOR POINT   22 FIRST  STRUCTURE
 DISTANCE A - B      1.135713
 HEAT               35.437237
 GRADIENT NORM      82.519413
 DIRECTION COSINE    0.961442
 geo-ok HTML
 Transition state for Cyclopentadiene + ethylene <=> bicyclo[2,2,1]heptene

  C(HETATM    1  C1  HET A   1)   0.00000000 +0    0.0000000 +0    0.0000000 +0
  C(HETATM    2  C2  HET A   1)   1.50137304 +1    0.0000000 +0    0.0000000 +0     1     0     0
  C(HETATM    3  C3  HET A   1)   1.35129338 +1  107.9890947 +1    0.0000000 +0     2     1     0
  C(HETATM    4  C4  HET A   1)   1.50256589 +1  107.9478599 +1    0.3112144 +1     3     2     1
  C(HETATM    5  C5  HET A   1)   1.54719935 +1  102.9489488 +1   29.7640805 +1     1     2     3
  C(HETATM    6  C1  HET B   2)   1.72217720 +1  102.6054158 +1  -72.0515923 +1     1     2     3
  C(HETATM    7  C2  HET B   2)   1.53060817 +1  102.5524156 +1   67.9995846 +1     6     1     2
  H(HETATM    8  H1  HET A   1)   1.09043797 +1  117.7928773 +1  158.8301811 +1     1     2     3
  H(HETATM    9  H2  HET A   1)   1.06933374 +1  122.8113948 +1  173.0525149 +1     2     1     3
  H(HETATM   10  H3  HET A   1)   1.06701539 +1  127.9777905 +1  172.0817237 +1     3     2     1
  H(HETATM   11  H4  HET A   1)   1.09079159 +1  117.2667626 +1 -157.8676613 +1     4     3     2
  H(HETATM   12 1H5  HET A   1)   1.10135571 +1  117.2291923 +1   80.3007744 +1     5     1     2
  H(HETATM   13 2H5  HET A   1)   1.09202198 +1  110.3422559 +1 -158.4174428 +1     5     1     2
  H(HETATM   14 1H1  HET B   2)   1.09641437 +1  109.1537857 +1 -170.2100014 +1     6     1     2
  H(HETATM   15 2H1  HET B   2)   1.09645284 +1  108.8311616 +1  -53.7197674 +1     6     1     2
  H(HETATM   16 1H2  HET B   2)   1.09640170 +1  114.2854911 +1 -117.8795815 +1     7     6     1
  H(HETATM   17 2H2  HET B   2)   1.09630010 +1  114.3298413 +1  117.8548204 +1     7     6     1
 
 *+*+*+*+*+*+*+*+*+*+*+*+*+*+*+*+*+*+*+*+*+*+*+*+*+*+*+*+*+*+*+*+*+*+*+*+*+*+*+*+
            BAR SHORTENED BY       1.000 PERCENT
 GRADIENT CRITERION IN FLEPO =    10.000


          FOR POINT   23 FIRST  STRUCTURE
 DISTANCE A - B      1.124356
 HEAT               36.385427
 GRADIENT NORM      85.771720
 DIRECTION COSINE    0.999468
 geo-ok HTML
 Transition state for Cyclopentadiene + ethylene <=> bicyclo[2,2,1]heptene

  C(HETATM    1  C1  HET A   1)   0.00000000 +0    0.0000000 +0    0.0000000 +0
  C(HETATM    2  C2  HET A   1)   1.49941349 +1    0.0000000 +0    0.0000000 +0     1     0     0
  C(HETATM    3  C3  HET A   1)   1.35243588 +1  108.0058635 +1    0.0000000 +0     2     1     0
  C(HETATM    4  C4  HET A   1)   1.50058276 +1  107.9652566 +1    0.3084892 +1     3     2     1
  C(HETATM    5  C5  HET A   1)   1.54641339 +1  103.0496143 +1   29.5611523 +1     1     2     3
  C(HETATM    6  C1  HET B   2)   1.73265152 +1  102.4872181 +1  -72.1215697 +1     1     2     3
  C(HETATM    7  C2  HET B   2)   1.52862392 +1  102.5270702 +1   68.0288773 +1     6     1     2
  H(HETATM    8  H1  HET A   1)   1.08967992 +1  117.9689861 +1  159.0089722 +1     1     2     3
  H(HETATM    9  H2  HET A   1)   1.06918597 +1  122.8519301 +1  173.0802047 +1     2     1     3
  H(HETATM   10  H3  HET A   1)   1.06691096 +1  127.9342115 +1  172.1255380 +1     3     2     1
  H(HETATM   11  H4  HET A   1)   1.08996984 +1  117.4495167 +1 -158.0502391 +1     4     3     2
  H(HETATM   12 1H5  HET A   1)   1.10129827 +1  117.1523224 +1   80.5351565 +1     5     1     2
  H(HETATM   13 2H5  HET A   1)   1.09192580 +1  110.3722072 +1 -158.2070216 +1     5     1     2
  H(HETATM   14 1H1  HET B   2)   1.09517558 +1  108.9321991 +1 -170.1709062 +1     6     1     2
  H(HETATM   15 2H1  HET B   2)   1.09515336 +1  108.5845760 +1  -53.6869786 +1     6     1     2
  H(HETATM   16 1H2  HET B   2)   1.09509913 +1  114.3978462 +1 -117.6202717 +1     7     6     1
  H(HETATM   17 2H2  HET B   2)   1.09509139 +1  114.4422496 +1  117.6291666 +1     7     6     1
 
 *+*+*+*+*+*+*+*+*+*+*+*+*+*+*+*+*+*+*+*+*+*+*+*+*+*+*+*+*+*+*+*+*+*+*+*+*+*+*+*+
            BAR SHORTENED BY       1.000 PERCENT
 GRADIENT CRITERION IN FLEPO =    10.000


          FOR POINT   24 FIRST  STRUCTURE
 DISTANCE A - B      1.113112
 HEAT               37.358579
 GRADIENT NORM      88.814066
 DIRECTION COSINE    0.999574
 geo-ok HTML
 Transition state for Cyclopentadiene + ethylene <=> bicyclo[2,2,1]heptene

  C(HETATM    1  C1  HET A   1)   0.00000000 +0    0.0000000 +0    0.0000000 +0
  C(HETATM    2  C2  HET A   1)   1.49748229 +1    0.0000000 +0    0.0000000 +0     1     0     0
  C(HETATM    3  C3  HET A   1)   1.35356695 +1  108.0224066 +1    0.0000000 +0     2     1     0
  C(HETATM    4  C4  HET A   1)   1.49862845 +1  107.9824083 +1    0.3057812 +1     3     2     1
  C(HETATM    5  C5  HET A   1)   1.54564375 +1  103.1487525 +1   29.3594271 +1     1     2     3
  C(HETATM    6  C1  HET B   2)   1.74302150 +1  102.3696072 +1  -72.1907144 +1     1     2     3
  C(HETATM    7  C2  HET B   2)   1.52665952 +1  102.5022832 +1   68.0578057 +1     6     1     2
  H(HETATM    8  H1  HET A   1)   1.08893979 +1  118.1426675 +1  159.1875147 +1     1     2     3
  H(HETATM    9  H2  HET A   1)   1.06904270 +1  122.8922751 +1  173.1081686 +1     2     1     3
  H(HETATM   10  H3  HET A   1)   1.06681029 +1  127.8909769 +1  172.1694101 +1     3     2     1
  H(HETATM   11  H4  HET A   1)   1.08916767 +1  117.6297520 +1 -158.2326174 +1     4     3     2
  H(HETATM   12 1H5  HET A   1)   1.10124437 +1  117.0761105 +1   80.7679352 +1     5     1     2
  H(HETATM   13 2H5  HET A   1)   1.09183393 +1  110.4021319 +1 -157.9978215 +1     5     1     2
  H(HETATM   14 1H1  HET B   2)   1.09396873 +1  108.7120372 +1 -170.1320897 +1     6     1     2
  H(HETATM   15 2H1  HET B   2)   1.09388780 +1  108.3398120 +1  -53.6549753 +1     6     1     2
  H(HETATM   16 1H2  HET B   2)   1.09383067 +1  114.5089356 +1 -117.3626563 +1     7     6     1
  H(HETATM   17 2H2  HET B   2)   1.09391410 +1  114.5534099 +1  117.4047233 +1     7     6     1
 
 TIME=     0.05
  REACTANTS AND PRODUCTS SWAPPED AROUND
 *+*+*+*+*+*+*+*+*+*+*+*+*+*+*+*+*+*+*+*+*+*+*+*+*+*+*+*+*+*+*+*+*+*+*+*+*+*+*+*+
            BAR SHORTENED BY       0.000 PERCENT
 GRADIENT CRITERION IN FLEPO =    10.000


          FOR POINT   25 SECOND STRUCTURE
 DISTANCE A - B      1.113112
 HEAT               49.206596
 GRADIENT NORM      11.863544
 DIRECTION COSINE    0.956402
 geo-ok HTML
 Transition state for Cyclopentadiene + ethylene <=> bicyclo[2,2,1]heptene

  C(HETATM    1  C1  HET A   1)   0.00000000 +0    0.0000000 +0    0.0000000 +0
  C(HETATM    2  C2  HET A   1)   1.35502188 +1    0.0000000 +0    0.0000000 +0     1     0     0
  C(HETATM    3  C3  HET A   1)   1.46554907 +1  109.2002154 +1    0.0000000 +0     2     1     0
  C(HETATM    4  C4  HET A   1)   1.35521661 +1  109.1469830 +1    0.0000000 +1     3     2     1
  C(HETATM    5  C5  HET A   1)   1.51128925 +1  109.2718447 +1   -5.7959158 +1     4     3     2
  C(HETATM    6  C1  HET B   2)   2.77083571 +1   88.3668682 +1  -78.7564196 +1     1     2     3
  C(HETATM    7  C2  HET B   2)   1.33218569 +1  100.9854083 +1   70.7359557 +1     6     1     2
  H(HETATM    8  H1  HET A   1)   1.06887862 +1  129.0792909 +1 -175.4911244 +1     1     2     3
  H(HETATM    9  H2  HET A   1)   1.06990072 +1  127.8129427 +1  178.9479855 +1     2     1     3
  H(HETATM   10  H3  HET A   1)   1.07027791 +1  123.2313334 +1  178.8940934 +1     3     2     1
  H(HETATM   11  H4  HET A   1)   1.06844953 +1  128.8237944 +1  175.6684095 +1     4     3     2
  H(HETATM   12 1H5  HET A   1)   1.11047373 +1  109.3789138 +1 -107.0428687 +1     5     4     3
  H(HETATM   13 2H5  HET A   1)   1.09922261 +1  114.5720908 +1  133.4255921 +1     5     4     3
  H(HETATM   14 1H1  HET B   2)   1.07738320 +1   84.9558413 +1 -165.9335776 +1     6     1     2
  H(HETATM   15 2H1  HET B   2)   1.07896616 +1   82.6854130 +1  -51.8132918 +1     6     1     2
  H(HETATM   16 1H2  HET B   2)   1.07944159 +1  123.3173232 +1  -88.4990471 +1     7     6     1
  H(HETATM   17 2H2  HET B   2)   1.07891007 +1  123.5988037 +1   91.3123502 +1     7     6     1
 
 TIME=     0.00
  REACTANTS AND PRODUCTS SWAPPED AROUND
 *+*+*+*+*+*+*+*+*+*+*+*+*+*+*+*+*+*+*+*+*+*+*+*+*+*+*+*+*+*+*+*+*+*+*+*+*+*+*+*+
            BAR SHORTENED BY       1.000 PERCENT
 GRADIENT CRITERION IN FLEPO =     8.864


          FOR POINT   26 FIRST  STRUCTURE
 DISTANCE A - B      1.101981
 HEAT               38.288726
 GRADIENT NORM      89.425278
 DIRECTION COSINE    0.959602
 geo-ok HTML
 Transition state for Cyclopentadiene + ethylene <=> bicyclo[2,2,1]heptene

  C(HETATM    1  C1  HET A   1)   0.00000000 +0    0.0000000 +0    0.0000000 +0
  C(HETATM    2  C2  HET A   1)   1.49854768 +1    0.0000000 +0    0.0000000 +0     1     0     0
  C(HETATM    3  C3  HET A   1)   1.35234040 +1  108.1309695 +1    0.0000000 +0     2     1     0
  C(HETATM    4  C4  HET A   1)   1.50046399 +1  107.9011458 +1   -0.1881100 +1     3     2     1
  C(HETATM    5  C5  HET A   1)   1.54547066 +1  103.1992098 +1   29.4140468 +1     1     2     3
  C(HETATM    6  C1  HET B   2)   1.74718555 +1  102.3208608 +1  -72.0653040 +1     1     2     3
  C(HETATM    7  C2  HET B   2)   1.52432147 +1  102.4999268 +1   68.0290499 +1     6     1     2
  H(HETATM    8  H1  HET A   1)   1.09149510 +1  118.1737537 +1  159.1033661 +1     1     2     3
  H(HETATM    9  H2  HET A   1)   1.06899913 +1  122.7728001 +1  172.7722151 +1     2     1     3
  H(HETATM   10  H3  HET A   1)   1.06875943 +1  128.0081729 +1  172.1903811 +1     3     2     1
  H(HETATM   11  H4  HET A   1)   1.08634152 +1  117.9854677 +1 -158.4982677 +1     4     3     2
  H(HETATM   12 1H5  HET A   1)   1.10351414 +1  117.2941832 +1   81.3466844 +1     5     1     2
  H(HETATM   13 2H5  HET A   1)   1.09160698 +1  110.2880840 +1 -157.7666255 +1     5     1     2
  H(HETATM   14 1H1  HET B   2)   1.09641638 +1  108.6576582 +1 -169.9680626 +1     6     1     2
  H(HETATM   15 2H1  HET B   2)   1.09529689 +1  108.2639134 +1  -53.7905228 +1     6     1     2
  H(HETATM   16 1H2  HET B   2)   1.09558137 +1  114.6125572 +1 -117.4158508 +1     7     6     1
  H(HETATM   17 2H2  HET B   2)   1.09662341 +1  114.5847791 +1  117.5506423 +1     7     6     1
 
 *+*+*+*+*+*+*+*+*+*+*+*+*+*+*+*+*+*+*+*+*+*+*+*+*+*+*+*+*+*+*+*+*+*+*+*+*+*+*+*+
            BAR SHORTENED BY       1.000 PERCENT
 GRADIENT CRITERION IN FLEPO =    10.000


          FOR POINT   27 FIRST  STRUCTURE
 DISTANCE A - B      1.090961
 HEAT               39.282339
 GRADIENT NORM      91.983751
 DIRECTION COSINE    0.999612
 geo-ok HTML
 Transition state for Cyclopentadiene + ethylene <=> bicyclo[2,2,1]heptene

  C(HETATM    1  C1  HET A   1)   0.00000000 +0    0.0000000 +0    0.0000000 +0
  C(HETATM    2  C2  HET A   1)   1.49663665 +1    0.0000000 +0    0.0000000 +0     1     0     0
  C(HETATM    3  C3  HET A   1)   1.35347248 +1  108.1463973 +1    0.0000000 +0     2     1     0
  C(HETATM    4  C4  HET A   1)   1.49854712 +1  107.9182948 +1   -0.1862233 +1     3     2     1
  C(HETATM    5  C5  HET A   1)   1.54472183 +1  103.2960912 +1   29.2124029 +1     1     2     3
  C(HETATM    6  C1  HET B   2)   1.75741036 +1  102.2043362 +1  -72.1352856 +1     1     2     3
  C(HETATM    7  C2  HET B   2)   1.52240009 +1  102.4756281 +1   68.0579242 +1     6     1     2
  H(HETATM    8  H1  HET A   1)   1.09073853 +1  118.3450040 +1  159.2814963 +1     1     2     3
  H(HETATM    9  H2  HET A   1)   1.06886556 +1  122.8145338 +1  172.8037549 +1     2     1     3
  H(HETATM   10  H3  HET A   1)   1.06864397 +1  127.9642251 +1  172.2340109 +1     3     2     1
  H(HETATM   11  H4  HET A   1)   1.08560660 +1  118.1575518 +1 -158.6818593 +1     4     3     2
  H(HETATM   12 1H5  HET A   1)   1.10345722 +1  117.2162914 +1   81.5717436 +1     5     1     2
  H(HETATM   13 2H5  HET A   1)   1.09152918 +1  110.3193574 +1 -157.5605572 +1     5     1     2
  H(HETATM   14 1H1  HET B   2)   1.09522100 +1  108.4399539 +1 -169.9313171 +1     6     1     2
  H(HETATM   15 2H1  HET B   2)   1.09405556 +1  108.0221162 +1  -53.7578492 +1     6     1     2
  H(HETATM   16 1H2  HET B   2)   1.09432893 +1  114.7214839 +1 -117.1598356 +1     7     6     1
  H(HETATM   17 2H2  HET B   2)   1.09544346 +1  114.6943970 +1  117.3266873 +1     7     6     1
 
 *+*+*+*+*+*+*+*+*+*+*+*+*+*+*+*+*+*+*+*+*+*+*+*+*+*+*+*+*+*+*+*+*+*+*+*+*+*+*+*+
            BAR SHORTENED BY       1.000 PERCENT
 GRADIENT CRITERION IN FLEPO =    10.000


          FOR POINT   28 FIRST  STRUCTURE
 DISTANCE A - B      1.080052
 HEAT               40.292170
 GRADIENT NORM      94.368731
 DIRECTION COSINE    0.999675
 geo-ok HTML
 Transition state for Cyclopentadiene + ethylene <=> bicyclo[2,2,1]heptene

  C(HETATM    1  C1  HET A   1)   0.00000000 +0    0.0000000 +0    0.0000000 +0
  C(HETATM    2  C2  HET A   1)   1.49475316 +1    0.0000000 +0    0.0000000 +0     1     0     0
  C(HETATM    3  C3  HET A   1)   1.35459324 +1  108.1616091 +1    0.0000000 +0     2     1     0
  C(HETATM    4  C4  HET A   1)   1.49665764 +1  107.9352112 +1   -0.1843527 +1     3     2     1
  C(HETATM    5  C5  HET A   1)   1.54398858 +1  103.3914928 +1   29.0119935 +1     1     2     3
  C(HETATM    6  C1  HET B   2)   1.76753328 +1  102.0884154 +1  -72.2044400 +1     1     2     3
  C(HETATM    7  C2  HET B   2)   1.52049793 +1  102.4518565 +1   68.0864431 +1     6     1     2
  H(HETATM    8  H1  HET A   1)   1.08999963 +1  118.5138724 +1  159.4593588 +1     1     2     3
  H(HETATM    9  H2  HET A   1)   1.06873616 +1  122.8560503 +1  172.8355144 +1     2     1     3
  H(HETATM   10  H3  HET A   1)   1.06853226 +1  127.9206273 +1  172.2776836 +1     3     2     1
  H(HETATM   11  H4  HET A   1)   1.08488964 +1  118.3272220 +1 -158.8651280 +1     4     3     2
  H(HETATM   12 1H5  HET A   1)   1.10340339 +1  117.1390798 +1   81.7952674 +1     5     1     2
  H(HETATM   13 2H5  HET A   1)   1.09145522 +1  110.3505757 +1 -157.3557118 +1     5     1     2
  H(HETATM   14 1H1  HET B   2)   1.09405636 +1  108.2236833 +1 -169.8948324 +1     6     1     2
  H(HETATM   15 2H1  HET B   2)   1.09284675 +1  107.7821294 +1  -53.7259259 +1     6     1     2
  H(HETATM   16 1H2  HET B   2)   1.09310938 +1  114.8291651 +1 -116.9055092 +1     7     6     1
  H(HETATM   17 2H2  HET B   2)   1.09429407 +1  114.8027870 +1  117.1039637 +1     7     6     1
 
 TIME=     0.05
  REACTANTS AND PRODUCTS SWAPPED AROUND
 *+*+*+*+*+*+*+*+*+*+*+*+*+*+*+*+*+*+*+*+*+*+*+*+*+*+*+*+*+*+*+*+*+*+*+*+*+*+*+*+
            BAR SHORTENED BY       0.000 PERCENT
 GRADIENT CRITERION IN FLEPO =    10.000


          FOR POINT   29 SECOND STRUCTURE
 DISTANCE A - B      1.080052
 HEAT               49.206596
 GRADIENT NORM      11.863544
 DIRECTION COSINE    0.955128
 geo-ok HTML
 Transition state for Cyclopentadiene + ethylene <=> bicyclo[2,2,1]heptene

  C(HETATM    1  C1  HET A   1)   0.00000000 +0    0.0000000 +0    0.0000000 +0
  C(HETATM    2  C2  HET A   1)   1.35502188 +1    0.0000000 +0    0.0000000 +0     1     0     0
  C(HETATM    3  C3  HET A   1)   1.46554907 +1  109.2002154 +1    0.0000000 +0     2     1     0
  C(HETATM    4  C4  HET A   1)   1.35521661 +1  109.1469830 +1    0.0000000 +1     3     2     1
  C(HETATM    5  C5  HET A   1)   1.51128925 +1  109.2718447 +1   -5.7959158 +1     4     3     2
  C(HETATM    6  C1  HET B   2)   2.77083571 +1   88.3668682 +1  -78.7564196 +1     1     2     3
  C(HETATM    7  C2  HET B   2)   1.33218569 +1  100.9854083 +1   70.7359557 +1     6     1     2
  H(HETATM    8  H1  HET A   1)   1.06887862 +1  129.0792909 +1 -175.4911244 +1     1     2     3
  H(HETATM    9  H2  HET A   1)   1.06990072 +1  127.8129427 +1  178.9479855 +1     2     1     3
  H(HETATM   10  H3  HET A   1)   1.07027791 +1  123.2313334 +1  178.8940934 +1     3     2     1
  H(HETATM   11  H4  HET A   1)   1.06844953 +1  128.8237944 +1  175.6684095 +1     4     3     2
  H(HETATM   12 1H5  HET A   1)   1.11047373 +1  109.3789138 +1 -107.0428687 +1     5     4     3
  H(HETATM   13 2H5  HET A   1)   1.09922261 +1  114.5720908 +1  133.4255921 +1     5     4     3
  H(HETATM   14 1H1  HET B   2)   1.07738320 +1   84.9558413 +1 -165.9335776 +1     6     1     2
  H(HETATM   15 2H1  HET B   2)   1.07896616 +1   82.6854130 +1  -51.8132918 +1     6     1     2
  H(HETATM   16 1H2  HET B   2)   1.07944159 +1  123.3173232 +1  -88.4990471 +1     7     6     1
  H(HETATM   17 2H2  HET B   2)   1.07891007 +1  123.5988037 +1   91.3123502 +1     7     6     1
 
 TIME=     0.00
  REACTANTS AND PRODUCTS SWAPPED AROUND
 *+*+*+*+*+*+*+*+*+*+*+*+*+*+*+*+*+*+*+*+*+*+*+*+*+*+*+*+*+*+*+*+*+*+*+*+*+*+*+*+
            BAR SHORTENED BY       1.000 PERCENT
 GRADIENT CRITERION IN FLEPO =     8.864


          FOR POINT   30 FIRST  STRUCTURE
 DISTANCE A - B      1.069251
 HEAT               41.252662
 GRADIENT NORM      94.377075
 DIRECTION COSINE    0.960930
 geo-ok HTML
 Transition state for Cyclopentadiene + ethylene <=> bicyclo[2,2,1]heptene

  C(HETATM    1  C1  HET A   1)   0.00000000 +0    0.0000000 +0    0.0000000 +0
  C(HETATM    2  C2  HET A   1)   1.49591319 +1    0.0000000 +0    0.0000000 +0     1     0     0
  C(HETATM    3  C3  HET A   1)   1.35151880 +1  108.0866353 +1    0.0000000 +0     2     1     0
  C(HETATM    4  C4  HET A   1)   1.49422501 +1  108.0535647 +1   -0.1499573 +1     3     2     1
  C(HETATM    5  C5  HET A   1)   1.54132770 +1  103.4720895 +1   28.9505112 +1     1     2     3
  C(HETATM    6  C1  HET B   2)   1.77668856 +1  101.9388538 +1  -72.3716339 +1     1     2     3
  C(HETATM    7  C2  HET B   2)   1.51825916 +1  102.1208478 +1   68.1965359 +1     6     1     2
  H(HETATM    8  H1  HET A   1)   1.09096934 +1  118.3953564 +1  159.5503863 +1     1     2     3
  H(HETATM    9  H2  HET A   1)   1.07170131 +1  122.7790037 +1  172.5696130 +1     2     1     3
  H(HETATM   10  H3  HET A   1)   1.06781312 +1  127.7654856 +1  171.9430275 +1     3     2     1
  H(HETATM   11  H4  HET A   1)   1.08877643 +1  118.3189618 +1 -159.0373899 +1     4     3     2
  H(HETATM   12 1H5  HET A   1)   1.10370600 +1  117.3974684 +1   81.9361131 +1     5     1     2
  H(HETATM   13 2H5  HET A   1)   1.08990203 +1  110.1879349 +1 -156.8561516 +1     5     1     2
  H(HETATM   14 1H1  HET B   2)   1.09695848 +1  108.0216381 +1 -169.8791717 +1     6     1     2
  H(HETATM   15 2H1  HET B   2)   1.09340095 +1  107.7717009 +1  -53.7130405 +1     6     1     2
  H(HETATM   16 1H2  HET B   2)   1.09828107 +1  114.8539954 +1 -117.3092738 +1     7     6     1
  H(HETATM   17 2H2  HET B   2)   1.09755106 +1  114.9881996 +1  117.3813846 +1     7     6     1
 
 *+*+*+*+*+*+*+*+*+*+*+*+*+*+*+*+*+*+*+*+*+*+*+*+*+*+*+*+*+*+*+*+*+*+*+*+*+*+*+*+
            BAR SHORTENED BY       1.000 PERCENT
 GRADIENT CRITERION IN FLEPO =    10.000


          FOR POINT   31 FIRST  STRUCTURE
 DISTANCE A - B      1.058559
 HEAT               42.264653
 GRADIENT NORM      96.283612
 DIRECTION COSINE    0.999650
 geo-ok HTML
 Transition state for Cyclopentadiene + ethylene <=> bicyclo[2,2,1]heptene

  C(HETATM    1  C1  HET A   1)   0.00000000 +0    0.0000000 +0    0.0000000 +0
  C(HETATM    2  C2  HET A   1)   1.49405000 +1    0.0000000 +0    0.0000000 +0     1     0     0
  C(HETATM    3  C3  HET A   1)   1.35265909 +1  108.1023777 +1    0.0000000 +0     2     1     0
  C(HETATM    4  C4  HET A   1)   1.49239027 +1  108.0690412 +1   -0.1488994 +1     3     2     1
  C(HETATM    5  C5  HET A   1)   1.54063754 +1  103.5650993 +1   28.7516569 +1     1     2     3
  C(HETATM    6  C1  HET B   2)   1.78661955 +1  101.8252798 +1  -72.4371877 +1     1     2     3
  C(HETATM    7  C2  HET B   2)   1.51639820 +1  102.1012089 +1   68.2230805 +1     6     1     2
  H(HETATM    8  H1  HET A   1)   1.09023618 +1  118.5622954 +1  159.7270155 +1     1     2     3
  H(HETATM    9  H2  HET A   1)   1.07155339 +1  122.8215134 +1  172.6039912 +1     2     1     3
  H(HETATM   10  H3  HET A   1)   1.06772105 +1  127.7234987 +1  171.9903604 +1     3     2     1
  H(HETATM   11  H4  HET A   1)   1.08804261 +1  118.4854260 +1 -159.2181539 +1     4     3     2
  H(HETATM   12 1H5  HET A   1)   1.10365842 +1  117.3181840 +1   82.1568870 +1     5     1     2
  H(HETATM   13 2H5  HET A   1)   1.08986078 +1  110.2212875 +1 -156.6568616 +1     5     1     2
  H(HETATM   14 1H1  HET B   2)   1.09580691 +1  107.8094683 +1 -169.8427814 +1     6     1     2
  H(HETATM   15 2H1  HET B   2)   1.09223044 +1  107.5328151 +1  -53.6826283 +1     6     1     2
  H(HETATM   16 1H2  HET B   2)   1.09703586 +1  114.9608342 +1 -117.0540244 +1     7     6     1
  H(HETATM   17 2H2  HET B   2)   1.09638967 +1  115.0948070 +1  117.1592613 +1     7     6     1
 
 *+*+*+*+*+*+*+*+*+*+*+*+*+*+*+*+*+*+*+*+*+*+*+*+*+*+*+*+*+*+*+*+*+*+*+*+*+*+*+*+
            BAR SHORTENED BY       1.000 PERCENT
 GRADIENT CRITERION IN FLEPO =    10.000


          FOR POINT   32 FIRST  STRUCTURE
 DISTANCE A - B      1.047973
 HEAT               43.286574
 GRADIENT NORM      98.055120
 DIRECTION COSINE    0.999698
 geo-ok HTML
 Transition state for Cyclopentadiene + ethylene <=> bicyclo[2,2,1]heptene

  C(HETATM    1  C1  HET A   1)   0.00000000 +0    0.0000000 +0    0.0000000 +0
  C(HETATM    2  C2  HET A   1)   1.49221352 +1    0.0000000 +0    0.0000000 +0     1     0     0
  C(HETATM    3  C3  HET A   1)   1.35378797 +1  108.1179016 +1    0.0000000 +0     2     1     0
  C(HETATM    4  C4  HET A   1)   1.49058180 +1  108.0843021 +1   -0.1478431 +1     3     2     1
  C(HETATM    5  C5  HET A   1)   1.53996207 +1  103.6566746 +1   28.5540462 +1     1     2     3
  C(HETATM    6  C1  HET B   2)   1.79645155 +1  101.7123050 +1  -72.5020030 +1     1     2     3
  C(HETATM    7  C2  HET B   2)   1.51455585 +1  102.0820154 +1   68.2493152 +1     6     1     2
  H(HETATM    8  H1  HET A   1)   1.08952011 +1  118.7269059 +1  159.9033385 +1     1     2     3
  H(HETATM    9  H2  HET A   1)   1.07140952 +1  122.8637817 +1  172.6385488 +1     2     1     3
  H(HETATM   10  H3  HET A   1)   1.06763222 +1  127.6818532 +1  172.0376750 +1     3     2     1
  H(HETATM   11  H4  HET A   1)   1.08732625 +1  118.6495428 +1 -159.3985783 +1     4     3     2
  H(HETATM   12 1H5  HET A   1)   1.10361361 +1  117.2396033 +1   82.3761352 +1     5     1     2
  H(HETATM   13 2H5  HET A   1)   1.08982263 +1  110.2545440 +1 -156.4587753 +1     5     1     2
  H(HETATM   14 1H1  HET B   2)   1.09468474 +1  107.5987204 +1 -169.8066675 +1     6     1     2
  H(HETATM   15 2H1  HET B   2)   1.09109086 +1  107.2957810 +1  -53.6528910 +1     6     1     2
  H(HETATM   16 1H2  HET B   2)   1.09582281 +1  115.0664344 +1 -116.8004762 +1     7     6     1
  H(HETATM   17 2H2  HET B   2)   1.09525815 +1  115.2001898 +1  116.9383469 +1     7     6     1
 
 TIME=     0.05
  REACTANTS AND PRODUCTS SWAPPED AROUND
 *+*+*+*+*+*+*+*+*+*+*+*+*+*+*+*+*+*+*+*+*+*+*+*+*+*+*+*+*+*+*+*+*+*+*+*+*+*+*+*+
            BAR SHORTENED BY       0.000 PERCENT
 GRADIENT CRITERION IN FLEPO =    10.000


          FOR POINT   33 SECOND STRUCTURE
 DISTANCE A - B      1.047973
 HEAT               49.014385
 GRADIENT NORM      11.958767
 DIRECTION COSINE    0.959692
 geo-ok HTML
 Transition state for Cyclopentadiene + ethylene <=> bicyclo[2,2,1]heptene

  C(HETATM    1  C1  HET A   1)   0.00000000 +0    0.0000000 +0    0.0000000 +0
  C(HETATM    2  C2  HET A   1)   1.35502188 +1    0.0000000 +0    0.0000000 +0     1     0     0
  C(HETATM    3  C3  HET A   1)   1.46554907 +1  109.2002154 +1    0.0000000 +0     2     1     0
  C(HETATM    4  C4  HET A   1)   1.35521661 +1  109.1469830 +1    0.0000000 +1     3     2     1
  C(HETATM    5  C5  HET A   1)   1.51128925 +1  109.2718447 +1   -5.7959158 +1     4     3     2
  C(HETATM    6  C1  HET B   2)   2.77083571 +1   88.3668682 +1  -78.7564196 +1     1     2     3
  C(HETATM    7  C2  HET B   2)   1.33218569 +1  100.9854083 +1   70.7359557 +1     6     1     2
  H(HETATM    8  H1  HET A   1)   1.06887862 +1  129.0792909 +1 -175.4911244 +1     1     2     3
  H(HETATM    9  H2  HET A   1)   1.06990072 +1  127.8129427 +1  178.9479855 +1     2     1     3
  H(HETATM   10  H3  HET A   1)   1.07027791 +1  123.2313334 +1  178.8940934 +1     3     2     1
  H(HETATM   11  H4  HET A   1)   1.06844953 +1  128.8237944 +1  175.6684095 +1     4     3     2
  H(HETATM   12 1H5  HET A   1)   1.11047373 +1  109.3789138 +1 -107.0428687 +1     5     4     3
  H(HETATM   13 2H5  HET A   1)   1.09922261 +1  114.5720908 +1  133.4255921 +1     5     4     3
  H(HETATM   14 1H1  HET B   2)   1.07738320 +1   84.9558413 +1 -165.9335776 +1     6     1     2
  H(HETATM   15 2H1  HET B   2)   1.07896616 +1   82.6854130 +1  -51.8132918 +1     6     1     2
  H(HETATM   16 1H2  HET B   2)   1.07944159 +1  123.3173232 +1  -88.4990471 +1     7     6     1
  H(HETATM   17 2H2  HET B   2)   1.07891007 +1  123.5988037 +1   91.3123502 +1     7     6     1
 
 TIME=     0.00
  REACTANTS AND PRODUCTS SWAPPED AROUND
 *+*+*+*+*+*+*+*+*+*+*+*+*+*+*+*+*+*+*+*+*+*+*+*+*+*+*+*+*+*+*+*+*+*+*+*+*+*+*+*+
            BAR SHORTENED BY       1.000 PERCENT
 GRADIENT CRITERION IN FLEPO =     8.959


          FOR POINT   34 FIRST  STRUCTURE
 DISTANCE A - B      1.037493
 HEAT               44.198795
 GRADIENT NORM      99.645871
 DIRECTION COSINE    0.958089
 geo-ok HTML
 Transition state for Cyclopentadiene + ethylene <=> bicyclo[2,2,1]heptene

[...]
 
 TIME=     0.02
  REACTANTS AND PRODUCTS SWAPPED AROUND
 *+*+*+*+*+*+*+*+*+*+*+*+*+*+*+*+*+*+*+*+*+*+*+*+*+*+*+*+*+*+*+*+*+*+*+*+*+*+*+*+
            BAR SHORTENED BY       1.000 PERCENT
 GRADIENT CRITERION IN FLEPO =    10.000


          FOR POINT  288 FIRST  STRUCTURE
 DISTANCE A - B      0.102821
 HEAT               68.349544
 GRADIENT NORM      36.830011
 DIRECTION COSINE    0.964098
 geo-ok HTML
 Transition state for Cyclopentadiene + ethylene <=> bicyclo[2,2,1]heptene

  C(HETATM    1  C1  HET A   1)   0.00000000 +0    0.0000000 +0    0.0000000 +0
  C(HETATM    2  C2  HET A   1)   1.41997972 +1    0.0000000 +0    0.0000000 +0     1     0     0
  C(HETATM    3  C3  HET A   1)   1.39408002 +1  108.7542819 +1    0.0000000 +0     2     1     0
  C(HETATM    4  C4  HET A   1)   1.42009755 +1  108.7688384 +1    0.0383387 +1     3     2     1
  C(HETATM    5  C5  HET A   1)   1.52130522 +1  106.9217503 +1  -19.9247579 +1     4     3     2
  C(HETATM    6  C1  HET B   2)   2.06788260 +1   96.8874674 +1  -74.1665284 +1     1     2     3
  C(HETATM    7  C2  HET B   2)   1.40954458 +1  102.5800524 +1   69.5499775 +1     6     1     2
  H(HETATM    8  H1  HET A   1)   1.07030222 +1  125.6354329 +1  173.7501181 +1     1     2     3
  H(HETATM    9  H2  HET A   1)   1.07188451 +1  125.0704302 +1  173.9574395 +1     2     1     3
  H(HETATM   10  H3  HET A   1)   1.07179872 +1  125.8388878 +1  173.9959341 +1     3     2     1
  H(HETATM   11  H4  HET A   1)   1.07026690 +1  125.7296426 +1 -173.8696393 +1     4     3     2
  H(HETATM   12 1H5  HET A   1)   1.10600627 +1  112.0638896 +1  -88.5734270 +1     5     4     3
  H(HETATM   13 2H5  HET A   1)   1.09831185 +1  113.9280269 +1  150.7254546 +1     5     4     3
  H(HETATM   14 1H1  HET B   2)   1.07976166 +1   93.7812096 +1 -167.7494345 +1     6     1     2
  H(HETATM   15 2H1  HET B   2)   1.07774331 +1   96.6149005 +1  -53.7082829 +1     6     1     2
  H(HETATM   16 1H2  HET B   2)   1.07908593 +1  120.3899495 +1 -105.9955402 +1     7     6     1
  H(HETATM   17 2H2  HET B   2)   1.07971354 +1  120.7520372 +1  101.7891855 +1     7     6     1
 
 TIME=     0.02
  REACTANTS AND PRODUCTS SWAPPED AROUND
 *+*+*+*+*+*+*+*+*+*+*+*+*+*+*+*+*+*+*+*+*+*+*+*+*+*+*+*+*+*+*+*+*+*+*+*+*+*+*+*+
            BAR SHORTENED BY       1.000 PERCENT
 GRADIENT CRITERION IN FLEPO =    10.000


          FOR POINT  289 SECOND STRUCTURE
 DISTANCE A - B      0.101792
 HEAT               68.364243
 GRADIENT NORM      28.862787
 DIRECTION COSINE    0.961863
 geo-ok HTML
 Transition state for Cyclopentadiene + ethylene <=> bicyclo[2,2,1]heptene

  C(HETATM    1  C1  HET A   1)   0.00000000 +0    0.0000000 +0    0.0000000 +0
  C(HETATM    2  C2  HET A   1)   1.39239269 +1    0.0000000 +0    0.0000000 +0     1     0     0
  C(HETATM    3  C3  HET A   1)   1.41974103 +1  108.8118952 +1    0.0000000 +0     2     1     0
  C(HETATM    4  C4  HET A   1)   1.39241563 +1  108.7871854 +1    0.0346897 +1     3     2     1
  C(HETATM    5  C5  HET A   1)   1.51930177 +1  107.9387595 +1  -16.9536586 +1     4     3     2
  C(HETATM    6  C1  HET B   2)   2.16369076 +1   95.4490739 +1  -74.6846634 +1     1     2     3
  C(HETATM    7  C2  HET B   2)   1.37438933 +1  102.6266614 +1   69.9152901 +1     6     1     2
  H(HETATM    8  H1  HET A   1)   1.06960364 +1  126.9133406 +1  177.4700508 +1     1     2     3
  H(HETATM    9  H2  HET A   1)   1.07224872 +1  126.0676182 +1  175.4914047 +1     2     1     3
  H(HETATM   10  H3  HET A   1)   1.07180121 +1  124.9244224 +1  175.6442293 +1     3     2     1
  H(HETATM   11  H4  HET A   1)   1.06906250 +1  127.0015359 +1 -177.5782363 +1     4     3     2
  H(HETATM   12 1H5  HET A   1)   1.11005567 +1  110.3670857 +1  -90.7444615 +1     5     4     3
  H(HETATM   13 2H5  HET A   1)   1.09689766 +1  115.3613328 +1  149.1177582 +1     5     4     3
  H(HETATM   14 1H1  HET B   2)   1.08003804 +1   90.8624349 +1 -167.0432277 +1     6     1     2
  H(HETATM   15 2H1  HET B   2)   1.07929395 +1   93.3891005 +1  -53.5405890 +1     6     1     2
  H(HETATM   16 1H2  HET B   2)   1.07967940 +1  121.5915850 +1 -102.5637308 +1     7     6     1
  H(HETATM   17 2H2  HET B   2)   1.08042223 +1  121.9386569 +1   98.5858749 +1     7     6     1
 
 TIME=     0.02
  REACTANTS AND PRODUCTS SWAPPED AROUND
 *+*+*+*+*+*+*+*+*+*+*+*+*+*+*+*+*+*+*+*+*+*+*+*+*+*+*+*+*+*+*+*+*+*+*+*+*+*+*+*+
            BAR SHORTENED BY       1.000 PERCENT
 GRADIENT CRITERION IN FLEPO =    10.000


          FOR POINT  290 FIRST  STRUCTURE
 DISTANCE A - B      0.100774
 HEAT               68.385580
 GRADIENT NORM      36.096330
 DIRECTION COSINE    0.960430
 geo-ok HTML
 Transition state for Cyclopentadiene + ethylene <=> bicyclo[2,2,1]heptene

  C(HETATM    1  C1  HET A   1)   0.00000000 +0    0.0000000 +0    0.0000000 +0
  C(HETATM    2  C2  HET A   1)   1.41969773 +1    0.0000000 +0    0.0000000 +0     1     0     0
  C(HETATM    3  C3  HET A   1)   1.39433663 +1  108.7549353 +1    0.0000000 +0     2     1     0
  C(HETATM    4  C4  HET A   1)   1.41981460 +1  108.7690978 +1    0.0382992 +1     3     2     1
  C(HETATM    5  C5  HET A   1)   1.52127727 +1  106.9324894 +1  -19.8956359 +1     4     3     2
  C(HETATM    6  C1  HET B   2)   2.06884049 +1   96.8734981 +1  -74.1715681 +1     1     2     3
  C(HETATM    7  C2  HET B   2)   1.40919302 +1  102.5805231 +1   69.5535016 +1     6     1     2
  H(HETATM    8  H1  HET A   1)   1.07028352 +1  125.6495992 +1  173.7861072 +1     1     2     3
  H(HETATM    9  H2  HET A   1)   1.07188682 +1  125.0804823 +1  173.9720275 +1     2     1     3
  H(HETATM   10  H3  HET A   1)   1.07179732 +1  125.8297472 +1  174.0120444 +1     3     2     1
  H(HETATM   11  H4  HET A   1)   1.07024322 +1  125.7437428 +1 -173.9054880 +1     4     3     2
  H(HETATM   12 1H5  HET A   1)   1.10604674 +1  112.0469521 +1  -88.5943590 +1     5     4     3
  H(HETATM   13 2H5  HET A   1)   1.09829768 +1  113.9424200 +1  150.7098275 +1     5     4     3
  H(HETATM   14 1H1  HET B   2)   1.07974855 +1   93.7521240 +1 -167.7423874 +1     6     1     2
  H(HETATM   15 2H1  HET B   2)   1.07774394 +1   96.5825115 +1  -53.7066574 +1     6     1     2
  H(HETATM   16 1H2  HET B   2)   1.07907746 +1  120.4023619 +1 -105.9615126 +1     7     6     1
  H(HETATM   17 2H2  HET B   2)   1.07970440 +1  120.7643619 +1  101.7576987 +1     7     6     1
 
 TIME=     0.02
  REACTANTS AND PRODUCTS SWAPPED AROUND
 *+*+*+*+*+*+*+*+*+*+*+*+*+*+*+*+*+*+*+*+*+*+*+*+*+*+*+*+*+*+*+*+*+*+*+*+*+*+*+*+
            BAR SHORTENED BY       1.000 PERCENT
 AT END OF STEPWISE ASCENT OF REACTION BARRIER

 -------------------------------------------------------------------------------
 geo-ok HTML
 Transition state for Cyclopentadiene + ethylene <=> bicyclo[2,2,1]heptene



     TRANSITION STATE LOCATED USING THE "SADDLE" TECHNIQUE    
     SCF FIELD WAS ACHIEVED                                   


                              PM7 CALCULATION
                                                       MOPAC2016 (Version: 21.153W)
                                                       Thu Jun  3 15:30:42 2021
                                                       No. of days remaining = 364




          FINAL H.O.F PLUS STRESS =         68.38558 KCAL/MOL =     286.12528 KJ/MOL
          FINAL STRESS            =          0.00000 KCAL/MOL =       0.00000 KJ/MOL
          FINAL HEAT OF FORMATION =         68.38558 KCAL/MOL =     286.12528 KJ/MOL
          TOTAL DISTORTION        =          0.00273 Angstroms
          AVERAGE DISTORTION      =          0.00016 Angstroms per atom (all atoms)
          RMS DISTORTION          =          0.00024 Angstroms per atom (all atoms)


          TOTAL ENERGY            =       -991.98839 EV
          ELECTRONIC ENERGY       =      -4799.35760 EV  POINT GROUP:     Cs  
          CORE-CORE REPULSION     =       3807.36921 EV
          COSMO AREA              =        136.78 SQUARE ANGSTROMS
          COSMO VOLUME            =        134.25 CUBIC ANGSTROMS

          GRADIENT NORM           =          8.90573 = 2.15996 PER ATOM
          IONIZATION POTENTIAL    =          8.880712 EV
          HOMO LUMO ENERGIES (EV) =         -8.881  0.603
          NO. OF FILLED LEVELS    =         19
          MOLECULAR WEIGHT        =         94.1560

          MOLECULAR DIMENSIONS (Angstroms)

            Atom       Atom       Distance
            H    17    H     9     4.78586
            H    15    H    12     4.40564
            H     8    H    10     4.31473


          SCF CALCULATIONS        =       1096
 
          WALL-CLOCK TIME         =          4.469 SECONDS
          COMPUTATION TIME        =         17.516 SECONDS



       FINAL  POINT  AND  DERIVATIVES

   PARAMETER     ATOM    TYPE            VALUE        GRADIENT
      1          1  C    CARTESIAN X    -0.475233     -1.672539  KCAL/ANGSTROM
      2          1  C    CARTESIAN Y    -1.060986     -0.790913  KCAL/ANGSTROM
      3          1  C    CARTESIAN Z    -0.550959     -1.286642  KCAL/ANGSTROM
      4          2  C    CARTESIAN X     0.944177      1.124231  KCAL/ANGSTROM
      5          2  C    CARTESIAN Y    -1.063385     -0.850090  KCAL/ANGSTROM
      6          2  C    CARTESIAN Z    -0.555276     -0.929611  KCAL/ANGSTROM
      7          3  C    CARTESIAN X     1.394823      0.657970  KCAL/ANGSTROM
      8          3  C    CARTESIAN Y     0.256386     -1.387846  KCAL/ANGSTROM
      9          3  C    CARTESIAN Z    -0.552590     -1.069692  KCAL/ANGSTROM
     10          4  C    CARTESIAN X     0.270486     -1.392605  KCAL/ANGSTROM
     11          4  C    CARTESIAN Y     1.122928      0.377862  KCAL/ANGSTROM
     12          4  C    CARTESIAN Z    -0.545616     -1.706481  KCAL/ANGSTROM
     13          5  C    CARTESIAN X    -0.917932      0.644823  KCAL/ANGSTROM
     14          5  C    CARTESIAN Y     0.311162     -0.807574  KCAL/ANGSTROM
     15          5  C    CARTESIAN Z    -1.038466     -2.213971  KCAL/ANGSTROM
     16          6  C    CARTESIAN X    -0.715488     -1.042545  KCAL/ANGSTROM
     17          6  C    CARTESIAN Y    -0.506309     -4.460456  KCAL/ANGSTROM
     18          6  C    CARTESIAN Z     1.428595      1.318472  KCAL/ANGSTROM
     19          7  C    CARTESIAN X    -0.273056      0.330753  KCAL/ANGSTROM
     20          7  C    CARTESIAN Y     0.831263      3.846305  KCAL/ANGSTROM
     21          7  C    CARTESIAN Z     1.428362      1.052016  KCAL/ANGSTROM
     22          8  H    CARTESIAN X    -1.100974      0.725472  KCAL/ANGSTROM
     23          8  H    CARTESIAN Y    -1.924130     -0.032376  KCAL/ANGSTROM
     24          8  H    CARTESIAN Z    -0.645294     -1.685424  KCAL/ANGSTROM
     25          9  H    CARTESIAN X     1.559166      0.139282  KCAL/ANGSTROM
     26          9  H    CARTESIAN Y    -1.936945     -0.333927  KCAL/ANGSTROM
     27          9  H    CARTESIAN Z    -0.467942      0.288590  KCAL/ANGSTROM
     28         10  H    CARTESIAN X     2.415769      0.109209  KCAL/ANGSTROM
     29         10  H    CARTESIAN Y     0.570426     -0.078156  KCAL/ANGSTROM
     30         10  H    CARTESIAN Z    -0.464304      0.111529  KCAL/ANGSTROM
     31         11  H    CARTESIAN X     0.302011      0.143725  KCAL/ANGSTROM
     32         11  H    CARTESIAN Y     2.189034     -0.611059  KCAL/ANGSTROM
     33         11  H    CARTESIAN Z    -0.633898     -1.404551  KCAL/ANGSTROM
     34         12  H    CARTESIAN X    -1.018318     -1.328341  KCAL/ANGSTROM
     35         12  H    CARTESIAN Y     0.349002      0.611195  KCAL/ANGSTROM
     36         12  H    CARTESIAN Z    -2.139338     -0.748506  KCAL/ANGSTROM
     37         13  H    CARTESIAN X    -1.882909      0.334503  KCAL/ANGSTROM
     38         13  H    CARTESIAN Y     0.640234      0.186192  KCAL/ANGSTROM
     39         13  H    CARTESIAN Z    -0.630107      1.117115  KCAL/ANGSTROM
     40         14  H    CARTESIAN X    -1.769560     -0.311610  KCAL/ANGSTROM
     41         14  H    CARTESIAN Y    -0.740067     -0.054914  KCAL/ANGSTROM
     42         14  H    CARTESIAN Z     1.439477      1.414375  KCAL/ANGSTROM
     43         15  H    CARTESIAN X    -0.100942     -1.243715  KCAL/ANGSTROM
     44         15  H    CARTESIAN Y    -1.284994      1.439926  KCAL/ANGSTROM
     45         15  H    CARTESIAN Z     1.849923      0.256421  KCAL/ANGSTROM
     46         16  H    CARTESIAN X     0.682795     -0.643234  KCAL/ANGSTROM
     47         16  H    CARTESIAN Y     1.090560     -0.324873  KCAL/ANGSTROM
     48         16  H    CARTESIAN Z     1.856735      0.229028  KCAL/ANGSTROM
     49         17  H    CARTESIAN X    -0.980264     -0.272861  KCAL/ANGSTROM
     50         17  H    CARTESIAN Y     1.647098      0.163268  KCAL/ANGSTROM
     51         17  H    CARTESIAN Z     1.432150      1.285668  KCAL/ANGSTROM




   ATOM                 CHEMICAL                   X               Y               Z
  NUMBER                 SYMBOL               (ANGSTROMS)     (ANGSTROMS)     (ANGSTROMS)
 
     1       C(HETATM    1  C1  HET A   1)   -0.47523306  *  -1.06098632  *  -0.55095949  *
     2       C(HETATM    2  C2  HET A   1)    0.94417703  *  -1.06338472  *  -0.55527628  *
     3       C(HETATM    3  C3  HET A   1)    1.39482304  *   0.25638575  *  -0.55258972  *
     4       C(HETATM    4  C4  HET A   1)    0.27048559  *   1.12292780  *  -0.54561635  *
     5       C(HETATM    5  C5  HET A   1)   -0.91793186  *   0.31116191  *  -1.03846617  *
     6       C(HETATM    6  C1  HET B   2)   -0.71548812  *  -0.50630896  *   1.42859506  *
     7       C(HETATM    7  C2  HET B   2)   -0.27305641  *   0.83126284  *   1.42836248  *
     8       H(HETATM    8  H1  HET A   1)   -1.10097375  *  -1.92413017  *  -0.64529402  *
     9       H(HETATM    9  H2  HET A   1)    1.55916573  *  -1.93694521  *  -0.46794202  *
    10       H(HETATM   10  H3  HET A   1)    2.41576903  *   0.57042629  *  -0.46430372  *
    11       H(HETATM   11  H4  HET A   1)    0.30201082  *   2.18903446  *  -0.63389772  *
    12       H(HETATM   12 1H5  HET A   1)   -1.01831820  *   0.34900245  *  -2.13933795  *
    13       H(HETATM   13 2H5  HET A   1)   -1.88290913  *   0.64023437  *  -0.63010704  *
    14       H(HETATM   14 1H1  HET B   2)   -1.76956031  *  -0.74006741  *   1.43947665  *
    15       H(HETATM   15 2H1  HET B   2)   -0.10094235  *  -1.28499407  *   1.84992267  *
    16       H(HETATM   16 1H2  HET B   2)    0.68279549  *   1.09056034  *   1.85673456  *
    17       H(HETATM   17 2H2  HET B   2)   -0.98026355  *   1.64709765  *   1.43214982  *

                             CARTESIAN COORDINATES

   1    C       -0.475233062    -1.060986325    -0.550959491
   2    C        0.944177026    -1.063384717    -0.555276285
   3    C        1.394823043     0.256385753    -0.552589722
   4    C        0.270485586     1.122927796    -0.545616346
   5    C       -0.917931862     0.311161911    -1.038466170
   6    C       -0.715488122    -0.506308957     1.428595064
   7    C       -0.273056407     0.831262843     1.428362480
   8    H       -1.100973747    -1.924130171    -0.645294021
   9    H        1.559165727    -1.936945211    -0.467942018
  10    H        2.415769033     0.570426294    -0.464303720
  11    H        0.302010819     2.189034458    -0.633897722
  12    H       -1.018318204     0.349002452    -2.139337952
  13    H       -1.882909133     0.640234367    -0.630107037
  14    H       -1.769560308    -0.740067409     1.439476650
  15    H       -0.100942351    -1.284994075     1.849922675
  16    H        0.682795492     1.090560343     1.856734555
  17    H       -0.980263555     1.647097648     1.432149825


           Empirical Formula: C7 H10  =    17 atoms



      MOLECULAR POINT GROUP   :   Cs  


                  EIGENVALUES  
 -31.16994 -25.79738 -24.28429 -24.13610 -19.92342 -19.07939 -17.96330 -17.44287
 -15.86070 -14.95391 -13.88232 -12.94748 -12.93581 -12.69783 -12.43850 -11.82021
 -11.46592  -9.00819  -8.88071   0.60339   0.67990   2.52683   3.86453   4.28932
   4.95027   5.42901   5.63741   5.64255   5.77574   6.00471   6.08776   6.28439
   6.44968   6.50846   6.53237   6.59088   6.70005   6.74201


              NET ATOMIC CHARGES AND DIPOLE CONTRIBUTIONS

  ATOM NO.                 TYPE                        CHARGE      No. of ELECS.   s-Pop       p-Pop       
    1          C(HETATM    1  C1  HET A   1)          -0.098232        4.0982     1.10902     2.98921
    2          C(HETATM    2  C2  HET A   1)          -0.187453        4.1875     1.08864     3.09881
    3          C(HETATM    3  C3  HET A   1)          -0.188785        4.1888     1.08842     3.10037
    4          C(HETATM    4  C4  HET A   1)          -0.097719        4.0977     1.10873     2.98899
    5          C(HETATM    5  C5  HET A   1)          -0.294378        4.2944     1.06601     3.22837
    6          C(HETATM    6  C1  HET B   2)          -0.279305        4.2793     1.09724     3.18207
    7          C(HETATM    7  C2  HET B   2)          -0.280226        4.2802     1.09729     3.18294
    8          H(HETATM    8  H1  HET A   1)           0.136430        0.8636     0.86357
    9          H(HETATM    9  H2  HET A   1)           0.148058        0.8519     0.85194
   10          H(HETATM   10  H3  HET A   1)           0.148082        0.8519     0.85192
   11          H(HETATM   11  H4  HET A   1)           0.136427        0.8636     0.86357
   12          H(HETATM   12 1H5  HET A   1)           0.159132        0.8409     0.84087
   13          H(HETATM   13 2H5  HET A   1)           0.152523        0.8475     0.84748
   14          H(HETATM   14 1H1  HET B   2)           0.134831        0.8652     0.86517
   15          H(HETATM   15 2H1  HET B   2)           0.137848        0.8622     0.86215
   16          H(HETATM   16 1H2  HET B   2)           0.138060        0.8619     0.86194
   17          H(HETATM   17 2H2  HET B   2)           0.134706        0.8653     0.86529

          NET CHARGE ON RESIDUES

      Residue         Charge  Anion or
                              Cation?
      HET A   1       +0.014
      HET B   2       -0.014
 


 DIPOLE           X         Y         Z       TOTAL
 POINT-CHG.    -0.641     0.215    -0.137     0.690
 HYBRID        -0.064     0.020    -0.031     0.074
 SUM           -0.705     0.235    -0.168     0.762


          ATOMIC ORBITAL ELECTRON POPULATIONS

                   Atom                  s        px        py        pz   
   C(HETATM    1  C1  HET A   1)   1.10902   1.01006   1.02010   0.95906
   C(HETATM    2  C2  HET A   1)   1.08864   1.01401   1.04383   1.04098
   C(HETATM    3  C3  HET A   1)   1.08842   1.05489   1.00294   1.04254
   C(HETATM    4  C4  HET A   1)   1.10873   0.98183   1.04837   0.95879
   C(HETATM    5  C5  HET A   1)   1.06601   1.08097   1.02054   1.12686
   C(HETATM    6  C1  HET B   2)   1.09724   1.12040   1.03952   1.02215
   C(HETATM    7  C2  HET B   2)   1.09729   1.11950   1.03992   1.02352
   H(HETATM    8  H1  HET A   1)   0.86357
   H(HETATM    9  H2  HET A   1)   0.85194
   H(HETATM   10  H3  HET A   1)   0.85192
   H(HETATM   11  H4  HET A   1)   0.86357
   H(HETATM   12 1H5  HET A   1)   0.84087
   H(HETATM   13 2H5  HET A   1)   0.84748
   H(HETATM   14 1H1  HET B   2)   0.86517
   H(HETATM   15 2H1  HET B   2)   0.86215
   H(HETATM   16 1H2  HET B   2)   0.86194
   H(HETATM   17 2H2  HET B   2)   0.86529

 **********************
 *                    *
 * JOB ENDED NORMALLY *
 *                    *
 **********************



 TOTAL JOB TIME:             4.48 SECONDS

 == MOPAC DONE ==
