 *******************************************************************************
 ** Site#: 37037        For non-commercial use only           Version 21.151W **
 *******************************************************************************
 ** Cite this program as: MOPAC2016, Version: 21.151W, James J. P. Stewart,   **
 ** Stewart Computational Chemistry, web: HTTP://OpenMOPAC.net. Days left: 363**
 *******************************************************************************
 **                                                                           **
 **                                MOPAC2016                                  **
 **                                                                           **
 *******************************************************************************

                              PM7 CALCULATION RESULTS

 *******************************************************************************
 *  CALCULATION DONE:                                Wed Jun  2 13:51:05 2021  *
 *  GEO_DAT    - DATA SET GEOMETRY IS IN FILE "Saddle Hydrazoic acid plus ethylene.arc"
 *  TS         - USE EF ROUTINE FOR TS SEARCH
 *  T=         - A TIME OF 172800.0 SECONDS REQUESTED
 *  DUMP=N     - RESTART FILE WRITTEN EVERY 7200.0 SECONDS REQUESTED
 *  GNORM      - EXIT WHEN GRADIENT NORM DROPS BELOW 2.000
 *******************************************************************************
TS gnorm=2   geo_dat="Saddle Hydrazoic acid plus ethylene.arc"
 Refine transition state for the reaction Hydrazoic acid plus ethylene <=> C2H5N3

   ATOM                 CHEMICAL                   X               Y               Z
  NUMBER                 SYMBOL               (ANGSTROMS)     (ANGSTROMS)     (ANGSTROMS)
 
     1       C(HETATM    1  C1  HET A   1)    0.09606348  *  -0.37615019  *   0.00335189  *
     2       C(HETATM    2  C2  HET A   1)    1.46432318  *  -0.40551140  *   0.00858673  *
     3       N(HETATM    3  N1  NH3 B   2)   -0.32922298  *   1.70217900  *   0.02420047  *
     4       N(HETATM    4  N2  NH3 B   2)    0.74003418  *   2.17316434  *   0.01782985  *
     5       N(HETATM    5  N3  NH3 B   2)    1.91500237  *   1.70776486  *   0.02145529  *
     6       H(HETATM    6 1H1  HET A   1)   -0.49131924  *  -0.49396446  *   0.90519310  *
     7       H(HETATM    7 1H2  HET A   1)    2.04666621  *  -0.51298453  *  -0.89756210  *
     8       H(HETATM    8  H3  NH3 B   2)    2.73074882  *   2.29001469  *  -0.04273444  *
     9       H(HETATM    9 2H1  HET A   1)   -0.48374793  *  -0.48264695  *  -0.90422348  *
    10       H(HETATM   10 2H2  HET A   1)    2.03848919  *  -0.52077720  *   0.91975532  *
 

 General Reference for PM7:
 "Optimization of Parameters for Semiempirical Methods VI: More Modifications to the 
 NDDO Approximations and Re-optimization of Parameters", J. J. P. Stewart, J. Mol. Mod., 1:32, 19 (2013)
 https://link.springer.com/article/10.1007/s00894-012-1667-x

           Empirical Formula: C2 H5 N3  =    10 atoms



      MOLECULAR POINT GROUP   :   Cs  


      RHF CALCULATION, NO. OF DOUBLY OCCUPIED LEVELS = 14


          Transition state refinement using EF

     GRADIENT =  1.56818 IS LESS THAN CUTOFF =  2.00000



 -------------------------------------------------------------------------------
 TS gnorm=2
 Refine transition state for the reaction Hydrazoic acid plus ethylene <=> C2H5N3



     GRADIENTS WERE INITIALLY ACCEPTABLY SMALL                
     SCF FIELD WAS ACHIEVED                                   


                              PM7 CALCULATION
                                                       MOPAC2016 (Version: 21.151W)
                                                       Wed Jun  2 13:51:05 2021
                                                       No. of days remaining = 363




          FINAL HEAT OF FORMATION =        104.44593 KCAL/MOL =     437.00177 KJ/MOL


          TOTAL ENERGY            =       -868.04534 EV
          ELECTRONIC ENERGY       =      -2953.10864 EV  POINT GROUP:     Cs  
          CORE-CORE REPULSION     =       2085.06330 EV
          COSMO AREA              =        108.10 SQUARE ANGSTROMS
          COSMO VOLUME            =         93.44 CUBIC ANGSTROMS

          GRADIENT NORM           =          1.56818 = 0.49590 PER ATOM
          IONIZATION POTENTIAL    =         10.001238 EV
          HOMO LUMO ENERGIES (EV) =        -10.001 -0.771
          NO. OF FILLED LEVELS    =         14
          MOLECULAR WEIGHT        =         71.0816

          MOLECULAR DIMENSIONS (Angstroms)

            Atom       Atom       Distance
            H     8    H     6     4.36243
            N     3    H    10     3.36619
            H     7    N     4     1.83010


          SCF CALCULATIONS        =          1
 
          WALL-CLOCK TIME         =          0.016 SECONDS
          COMPUTATION TIME        =          0.016 SECONDS




   ATOM                 CHEMICAL                   X               Y               Z
  NUMBER                 SYMBOL               (ANGSTROMS)     (ANGSTROMS)     (ANGSTROMS)
 
     1       C(HETATM    1  C1  HET A   1)    0.09606348  *  -0.37615019  *   0.00335189  *
     2       C(HETATM    2  C2  HET A   1)    1.46432318  *  -0.40551140  *   0.00858673  *
     3       N(HETATM    3  N1  NH3 B   2)   -0.32922298  *   1.70217900  *   0.02420047  *
     4       N(HETATM    4  N2  NH3 B   2)    0.74003418  *   2.17316434  *   0.01782985  *
     5       N(HETATM    5  N3  NH3 B   2)    1.91500237  *   1.70776486  *   0.02145529  *
     6       H(HETATM    6 1H1  HET A   1)   -0.49131924  *  -0.49396446  *   0.90519310  *
     7       H(HETATM    7 1H2  HET A   1)    2.04666621  *  -0.51298453  *  -0.89756210  *
     8       H(HETATM    8  H3  NH3 B   2)    2.73074882  *   2.29001469  *  -0.04273444  *
     9       H(HETATM    9 2H1  HET A   1)   -0.48374793  *  -0.48264695  *  -0.90422348  *
    10       H(HETATM   10 2H2  HET A   1)    2.03848919  *  -0.52077720  *   0.91975532  *

                             CARTESIAN COORDINATES

   1    C        0.096063480    -0.376150190     0.003351890
   2    C        1.464323180    -0.405511400     0.008586730
   3    N       -0.329222980     1.702179000     0.024200470
   4    N        0.740034180     2.173164340     0.017829850
   5    N        1.915002370     1.707764860     0.021455290
   6    H       -0.491319240    -0.493964460     0.905193100
   7    H        2.046666210    -0.512984530    -0.897562100
   8    H        2.730748820     2.290014690    -0.042734440
   9    H       -0.483747930    -0.482646950    -0.904223480
  10    H        2.038489190    -0.520777200     0.919755320


           Empirical Formula: C2 H5 N3  =    10 atoms



      MOLECULAR POINT GROUP   :   Cs  


                  EIGENVALUES  
 -42.17837 -35.09806 -26.90341 -22.98429 -20.61694 -18.34144 -16.90086 -15.71930
 -15.10406 -14.37546 -12.28276 -11.64534 -10.14202 -10.00124  -0.77066   0.79793
   0.97323   2.36942   5.38294   5.42203   5.43297   6.11332   6.29069   6.38996
   6.49688


              NET ATOMIC CHARGES AND DIPOLE CONTRIBUTIONS

  ATOM NO.                 TYPE                        CHARGE      No. of ELECS.   s-Pop       p-Pop       
    1          C(HETATM    1  C1  HET A   1)          -0.303102        4.3031     1.10185     3.20125
    2          C(HETATM    2  C2  HET A   1)          -0.150713        4.1507     1.11124     3.03948
    3          N(HETATM    3  N1  NH3 B   2)          -0.201453        5.2015     1.86701     3.33444
    4          N(HETATM    4  N2  NH3 B   2)           0.285809        4.7142     1.55199     3.16220
    5          N(HETATM    5  N3  NH3 B   2)          -0.533931        5.5339     1.72994     3.80399
    6          H(HETATM    6 1H1  HET A   1)           0.155375        0.8446     0.84463
    7          H(HETATM    7 1H2  HET A   1)           0.142096        0.8579     0.85790
    8          H(HETATM    8  H3  NH3 B   2)           0.307679        0.6923     0.69232
    9          H(HETATM    9 2H1  HET A   1)           0.154474        0.8455     0.84553
   10          H(HETATM   10 2H2  HET A   1)           0.143765        0.8562     0.85623

          NET CHARGE ON RESIDUES

      Residue         Charge  Anion or
                              Cation?
      HET A   1       +0.142
      NH3 B   2       -0.142
 


 DIPOLE           X         Y         Z       TOTAL
 POINT-CHG.     1.338    -0.254    -0.101     1.366
 HYBRID         0.843     0.455    -0.064     0.960
 SUM            2.181     0.201    -0.165     2.196


          ATOMIC ORBITAL ELECTRON POPULATIONS

                   Atom                  s        px        py        pz   
   C(HETATM    1  C1  HET A   1)   1.10185   1.03123   1.01038   1.15964
   C(HETATM    2  C2  HET A   1)   1.11124   1.02806   0.87301   1.13841
   N(HETATM    3  N1  NH3 B   2)   1.86701   1.07780   0.95031   1.30633
   N(HETATM    4  N2  NH3 B   2)   1.55199   0.97523   1.15178   1.03519
   N(HETATM    5  N3  NH3 B   2)   1.72994   0.99890   1.14767   1.65742
   H(HETATM    6 1H1  HET A   1)   0.84463
   H(HETATM    7 1H2  HET A   1)   0.85790
   H(HETATM    8  H3  NH3 B   2)   0.69232
   H(HETATM    9 2H1  HET A   1)   0.84553
   H(HETATM   10 2H2  HET A   1)   0.85623
 *******************************************************************************
 ** Site#: 37037        For non-commercial use only           Version 21.151W **
 *******************************************************************************
 ** Cite this program as: MOPAC2016, Version: 21.151W, James J. P. Stewart,   **
 ** Stewart Computational Chemistry, web: HTTP://OpenMOPAC.net. Days left: 363**
 *******************************************************************************
 **                                                                           **
 **                                MOPAC2016                                  **
 **                                                                           **
 *******************************************************************************

                              PM7 CALCULATION RESULTS

 *******************************************************************************
 *  CALCULATION DONE:                                Wed Jun  2 13:51:05 2021  *
 *  IRC=N      - INTRINSIC REACTION COORDINATE  1 DEFINED
 *  OLDGEO     - PREVIOUS GEOMETRY TO BE USED
 *  T=         - A TIME OF 172800.0 SECONDS REQUESTED
 *  DUMP=N     - RESTART FILE WRITTEN EVERY 7200.0 SECONDS REQUESTED
 *  HTML       - WRITE HTML SCRIPT TO GENERATE ANIMATION USING JSMOL
 *             - TO DISPLAY IN PDB FORMAT, ADD "PDBOUT"
 *  X-PRIOR    - GEOMETRY CHANGES TAKE PRIORITY IN DRC
 *******************************************************************************
oldgeo   IRC=1* HTML X-priority=0.1
 Reaction path for the reaction Hydrazoic acid plus ethylene <=> C2H5N3

   ATOM                 CHEMICAL                   X               Y               Z
  NUMBER                 SYMBOL               (ANGSTROMS)     (ANGSTROMS)     (ANGSTROMS)
 
     1       C(HETATM    1  C1  HET A   1)    0.09606348  *  -0.37615019  *   0.00335189  *
     2       C(HETATM    2  C2  HET A   1)    1.46432318  *  -0.40551140  *   0.00858673  *
     3       N(HETATM    3  N1  NH3 B   2)   -0.32922298  *   1.70217900  *   0.02420047  *
     4       N(HETATM    4  N2  NH3 B   2)    0.74003418  *   2.17316434  *   0.01782985  *
     5       N(HETATM    5  N3  NH3 B   2)    1.91500237  *   1.70776486  *   0.02145529  *
     6       H(HETATM    6 1H1  HET A   1)   -0.49131924  *  -0.49396446  *   0.90519310  *
     7       H(HETATM    7 1H2  HET A   1)    2.04666621  *  -0.51298453  *  -0.89756210  *
     8       H(HETATM    8  H3  NH3 B   2)    2.73074882  *   2.29001469  *  -0.04273444  *
     9       H(HETATM    9 2H1  HET A   1)   -0.48374793  *  -0.48264695  *  -0.90422348  *
    10       H(HETATM   10 2H2  HET A   1)    2.03848919  *  -0.52077720  *   0.91975532  *
 

 General Reference for PM7:
 "Optimization of Parameters for Semiempirical Methods VI: More Modifications to the 
 NDDO Approximations and Re-optimization of Parameters", J. J. P. Stewart, J. Mol. Mod., 1:32, 19 (2013)
 https://link.springer.com/article/10.1007/s00894-012-1667-x

           Empirical Formula: C2 H5 N3  =    10 atoms



      MOLECULAR POINT GROUP   :   Cs  


      RHF CALCULATION, NO. OF DOUBLY OCCUPIED LEVELS = 14



          HEAT OF FORMATION =     104.445936 KCALS/MOLE


          GRADIENT NORM =   1.59362

          MOLECULAR WEIGHT =   71.08


          ESTIMATED TIME TO COMPLETE CALCULATION =        0.00 SECONDS

    FOR POINT-GROUP Cs   THERE ARE   2 UNIQUE SYMMETRY FUNCTIONS.

 STEP:   1 TIME =     0.00 SECS, INTEGRAL =      0.00 TIME LEFT: 172800.00
 STEP:   2 TIME =     0.02 SECS, INTEGRAL =      0.02 TIME LEFT: 172799.98
 STEP:   3 TIME =     0.00 SECS, INTEGRAL =      0.02 TIME LEFT: 172799.98
 STEP:   4 TIME =     0.00 SECS, INTEGRAL =      0.02 TIME LEFT: 172799.98
 STEP:   5 TIME =     0.00 SECS, INTEGRAL =      0.02 TIME LEFT: 172799.98
 STEP:   6 TIME =     0.02 SECS, INTEGRAL =      0.03 TIME LEFT: 172799.97
 STEP:   7 TIME =     0.00 SECS, INTEGRAL =      0.03 TIME LEFT: 172799.97
 STEP:   8 TIME =     0.00 SECS, INTEGRAL =      0.03 TIME LEFT: 172799.97
 STEP:   9 TIME =     0.00 SECS, INTEGRAL =      0.03 TIME LEFT: 172799.97
 STEP:  10 TIME =     0.02 SECS, INTEGRAL =      0.05 TIME LEFT: 172799.95
 STEP:  11 TIME =     0.00 SECS, INTEGRAL =      0.05 TIME LEFT: 172799.95
 STEP:  12 TIME =     0.00 SECS, INTEGRAL =      0.05 TIME LEFT: 172799.95
 STEP:  13 TIME =     0.00 SECS, INTEGRAL =      0.05 TIME LEFT: 172799.95
 STEP:  14 TIME =     0.00 SECS, INTEGRAL =      0.05 TIME LEFT: 172799.95
 STEP:  15 TIME =     0.02 SECS, INTEGRAL =      0.06 TIME LEFT: 172799.94
 STEP:  16 TIME =     0.00 SECS, INTEGRAL =      0.06 TIME LEFT: 172799.94
 STEP:  17 TIME =     0.00 SECS, INTEGRAL =      0.06 TIME LEFT: 172799.94
 STEP:  18 TIME =     0.00 SECS, INTEGRAL =      0.06 TIME LEFT: 172799.94
 STEP:  19 TIME =     0.02 SECS, INTEGRAL =      0.08 TIME LEFT: 172799.92
 STEP:  20 TIME =     0.00 SECS, INTEGRAL =      0.08 TIME LEFT: 172799.92
 STEP:  21 TIME =     0.00 SECS, INTEGRAL =      0.08 TIME LEFT: 172799.92
 STEP:  22 TIME =     0.00 SECS, INTEGRAL =      0.08 TIME LEFT: 172799.92
 STEP:  23 TIME =     0.00 SECS, INTEGRAL =      0.08 TIME LEFT: 172799.92
 STEP:  24 TIME =     0.00 SECS, INTEGRAL =      0.08 TIME LEFT: 172799.92
 STEP:  25                       INTEGRAL =      0.08 TIME LEFT: 172799.92
 STEP:  26                       INTEGRAL =      0.08 TIME LEFT: 172799.92
 STEP:  27                       INTEGRAL =      0.08 TIME LEFT: 172799.92
 STEP:  28                       INTEGRAL =      0.08 TIME LEFT: 172799.92
 STEP:  29                       INTEGRAL =      0.08 TIME LEFT: 172799.92
 STEP:  30                       INTEGRAL =      0.08 TIME LEFT: 172799.92
           INITIAL VELOCITY IN DRC (Angstroms/Femtosecond)
         0.03303        -0.16325         0.00057
        -0.02956        -0.15215         0.00091
        -0.04676         0.17036        -0.00061
         0.00819        -0.05420         0.00043
         0.03854         0.13655        -0.00096
        -0.00320         0.00100        -0.00700
         0.00439        -0.00729         0.01025
        -0.04330         0.25919        -0.00108
        -0.00311         0.00133         0.00664
         0.00426        -0.00765        -0.01061

 GEOMETRY PRIORITY, STEP = 0.1000 ANGSTROMS



     POINT   POTENTIAL  +  ENERGY LOST   =   TOTAL      ERROR    REF%   MOVEMENT
       1     104.44593      0.00000        104.44593   0.00000     1   %  0.0000
     106     104.33172      0.09767        104.42939  -0.00352     2   %  0.1000
     134     103.93247      0.49102        104.42349  -0.00942     3   %  0.1975
     159     103.32873      1.08973        104.41846  -0.01445     4   %  0.2953
     180     102.59008      1.82417        104.41425  -0.01866     5   %  0.3938
     197     101.77017      2.64062        104.41079  -0.02212     6   %  0.4928
     211     100.90914      3.49894        104.40807  -0.02484     7   %  0.5920
     221     100.03468      4.37142        104.40611  -0.02681     8   %  0.6914
     228      99.16586      5.23921        104.40506  -0.02785     9   %  0.7912
     231      98.33097      6.07511        104.40608  -0.02683    10   %  0.8896
     237      97.51680      6.89051        104.40731  -0.02560    11   %  0.9896
     244      96.74337      7.66538        104.40874  -0.02417    12   %  1.0891
     252      96.01016      8.40016        104.41031  -0.02260    13   %  1.1886
     260      95.31852      9.09345        104.41197  -0.02094    14   %  1.2882
     268      94.66847      9.74521        104.41368  -0.01923    15   %  1.3877
     277      94.05878     10.35663        104.41541  -0.01750    16   %  1.4873
     286      93.48799     10.92916        104.41715  -0.01576    17   %  1.5869
     295      92.95599     11.46289        104.41888  -0.01403    18   %  1.6861
     303      92.46414     11.95643        104.42057  -0.01234    19   %  1.7840
     312      92.00902     12.41320        104.42222  -0.01069    20   %  1.8806
     320      91.58726     12.83655        104.42381  -0.00910    21   %  1.9760
     328      91.19563     13.22973        104.42536  -0.00755    22   %  2.0701
     335      90.83132     13.59554        104.42685  -0.00606    23   %  2.1631
     343      90.49173     13.93657        104.42830  -0.00461    24   %  2.2549
     350      90.17486     14.25484        104.42970  -0.00321    25   %  2.3458
     357      89.87883     14.55223        104.43106  -0.00185    26   %  2.4358
     364      89.60210     14.83028        104.43238  -0.00053    27   %  2.5250
     370      89.34340     15.09025        104.43365   0.00074    28   %  2.6136
     377      89.10144     15.33345        104.43489   0.00198    29   %  2.7017
     383      88.87532     15.56077        104.43609   0.00318    30   %  2.7897
     389      88.66434     15.77294        104.43729   0.00437    31   %  2.8779
     398      88.46677     15.97242        104.43919   0.00628    32   %  2.9684
     407      88.28267     16.15860        104.44127   0.00836    33   %  3.0630
     416      88.11055     16.33332        104.44387   0.01096    34   %  3.1608
     426      87.94924     16.49789        104.44714   0.01423    35   %  3.2602
     437      87.80018     16.65095        104.45113   0.01822    36   %  3.3591
     449      87.66133     16.79472        104.45605   0.02314    37   %  3.4581
     462      87.53196     16.93014        104.46210   0.02919    38   %  3.5572
     474      87.41099     17.05872        104.46970   0.03679    39   %  3.6568
     487      87.29887     17.18086        104.47973   0.04682    40   %  3.7560
     503      87.19439     17.29549        104.48988   0.05697    41   %  3.8555
     517      87.09669     17.40438        104.50107   0.06816    42   %  3.9555
     537      87.00862     17.51516        104.52378   0.09087    43   %  4.0525
     553      86.92345     17.62220        104.54566   0.11275    44   %  4.1535
     571      86.84575     17.73039        104.57614   0.14323    45   %  4.2527
     590      86.77295     17.81685        104.58980   0.15689    46   %  4.3529
     607      86.70553     17.91298        104.61851   0.18560    47   %  4.4530
     628      86.64889     18.01657        104.66546   0.23255    48   %  4.5456
     657      86.59536     18.11184        104.70720   0.27429    49   %  4.6350
     692      86.53439     18.24366        104.77805   0.34514    50   %  4.7476
     726      86.48478     18.32638        104.81115   0.37824    51   %  4.8470
     757      86.43945     18.41278        104.85223   0.41932    52   %  4.9445
     800      86.39735     18.51694        104.91429   0.48138    53   %  5.0434
     836      86.35794     18.63823        104.99617   0.56326    54   %  5.1428
     876      86.32182     18.75755        105.07937   0.64646    55   %  5.2412
     926      86.28811     18.85328        105.14138   0.70847    56   %  5.3403
     973      86.25947     18.93386        105.19333   0.76042    57   %  5.4311
    1030      86.22888     19.05358        105.28247   0.84956    58   %  5.5355
    1091      86.20265     19.22639        105.42904   0.99613    59   %  5.6323
    1155      86.17810     19.33836        105.51646   1.08355    60   %  5.7292
    1228      86.15603     19.47628        105.63231   1.19940    61   %  5.8240
    1305      86.13550     19.60212        105.73761   1.30470    62   %  5.9175
    1388      86.11671     19.72689        105.84361   1.41069    63   %  6.0081
    1466      86.10018     19.84071        105.94089   1.50798    64   %  6.0916
    1543      86.08604     19.97036        106.05640   1.62349    65   %  6.1683
    1629      86.07056     20.14783        106.21839   1.78548    66   %  6.2456
    1706      86.05834     20.27853        106.33686   1.90395    67   %  6.3130
    1792      86.04515     20.41050        106.45565   2.02274    68   %  6.3728
    1867      86.03332     20.55660        106.58992   2.15701    69   %  6.4262
    1940      86.02159     20.66351        106.68510   2.25219    70   %  6.4727
    2010      86.01074     20.76572        106.77646   2.34355    71   %  6.5129
    2074      85.99943     20.88513        106.88456   2.45165    72   %  6.5484
    2134      85.98790     20.98464        106.97254   2.53963    73   %  6.5796
    2183      85.97734     21.07461        107.05194   2.61903    74   %  6.6075
    2241      85.96429     21.17011        107.13440   2.70149    75   %  6.6304
    2286      85.95145     21.28482        107.23627   2.80336    76   %  6.6521
    2330      85.93923     21.35090        107.29013   2.85722    77   %  6.6709
    2384      85.92436     21.43851        107.36288   2.92997    78   %  6.6882
    2420      85.91101     21.51343        107.42445   2.99153    79   %  6.7025
    2464      85.89443     21.59487        107.48930   3.05639    80   %  6.7171
    2507      85.88007     21.66418        107.54425   3.11134    81   %  6.7287
    2550      85.86339     21.74293        107.60632   3.17341    82   %  6.7402
    2581      85.84949     21.79993        107.64942   3.21651    83   %  6.7495
    2626      85.82877     21.88516        107.71392   3.28101    84   %  6.7592
    2657      85.81350     21.95944        107.77295   3.34003    85   %  6.7673
    2701      85.79342     22.04527        107.83868   3.40577    86   %  6.7760
    2736      85.77516     22.13665        107.91180   3.47889    87   %  6.7840
    2778      85.75459     22.20918        107.96377   3.53086    88   %  6.7907
    2809      85.73560     22.27850        108.01410   3.58119    89   %  6.7971
    2841      85.70884     22.34577        108.05461   3.62170    90   %  6.8039
    2885      85.69565     22.46600        108.16165   3.72874    91   %  6.8092
    2920      85.67450     22.55016        108.22466   3.79175    92   %  6.8149
    2961      85.65385     22.61653        108.27038   3.83747    93   %  6.8200
    2998      85.63203     22.65772        108.28975   3.85684    94   %  6.8246
    3041      85.60998     22.74124        108.35123   3.91832    95   %  6.8288
    3086      85.58741     22.83424        108.42165   3.98874    96   %  6.8326
    3132      85.56530     22.92868        108.49399   4.06108    97   %  6.8356
    3178      85.54471     23.02219        108.56690   4.13399    98   %  6.8380
    3235      85.52013     23.13995        108.66008   4.22717    99   %  6.8388
    3283      85.49790     23.26624        108.76414   4.33123   100   %  6.8390
    3330      85.47630     23.34803        108.82433   4.39141   101   %  6.8388
    3375      85.45753     23.44415        108.90168   4.46877   102   %  6.8369
    3434      85.43465     23.57666        109.01130   4.57839   103   %  6.8348
    3483      85.41484     23.67299        109.08784   4.65493   104   %  6.8323
    3527      85.40214     23.76748        109.16962   4.73671   105   %  6.8292
    3582      85.37719     23.87338        109.25056   4.81765   106   %  6.8269
    3628      85.35843     23.94999        109.30842   4.87551   107   %  6.8239
    3673      85.34366     24.03243        109.37610   4.94319   108   %  6.8216
    3726      85.32576     24.14414        109.46990   5.03699   109   %  6.8189
    3773      85.30934     24.21940        109.52874   5.09583   110   %  6.8165
    3817      85.29438     24.30762        109.60201   5.16910   111   %  6.8144
    3864      85.27855     24.39648        109.67503   5.24212   112   %  6.8124
    3909      85.26430     24.47482        109.73912   5.30621   113   %  6.8107
    3956      85.24962     24.56777        109.81738   5.38447   114   %  6.8091
    3999      85.24197     24.64038        109.88235   5.44944   115   %  6.8080
    4048      85.22132     24.74669        109.96801   5.53510   116   %  6.8067
    4100      85.20717     24.84113        110.04829   5.61538   117   %  6.8057
    4145      85.19193     24.91134        110.10328   5.67037   118   %  6.8050
    4191      85.18016     25.00985        110.19001   5.75710   119   %  6.8044
    4244      85.16537     25.11637        110.28174   5.84883   120   %  6.8042
    4295      85.15114     25.21684        110.36799   5.93508   121   %  6.8042
    4342      85.13801     25.28732        110.42532   5.99241   122   %  6.8040
    4404      85.12237     25.39082        110.51319   6.08028   123   %  6.8050
    4463      85.10890     25.48482        110.59372   6.16081   124   %  6.8060
    4522      85.09423     25.59010        110.68433   6.25142   125   %  6.8076
    4584      85.07937     25.71019        110.78955   6.35664   126   %  6.8097
    4646      85.06421     25.81546        110.87967   6.44676   127   %  6.8123
    4717      85.04909     25.92738        110.97647   6.54356   128   %  6.8163
    4790      85.03383     26.04510        111.07893   6.64602   129   %  6.8211
    4868      85.01824     26.18294        111.20118   6.76827   130   %  6.8275
    4944      85.00338     26.31765        111.32103   6.88812   131   %  6.8353

           NUMBER OF CYCLES EXCEEDED, RESTART FILE WRITTEN
           Number of cycles allowed in this run =   5000
           To increase the number of cycles, use keyword "CYCLES=n",
           where "n" is the number of cycles you want to run
           INITIAL VELOCITY IN DRC (Angstroms/Femtosecond)
        -0.03303         0.16325        -0.00057
         0.02956         0.15215        -0.00091
         0.04676        -0.17036         0.00061
        -0.00819         0.05420        -0.00043
        -0.03854        -0.13655         0.00096
         0.00320        -0.00100         0.00700
        -0.00439         0.00729        -0.01025
         0.04330        -0.25919         0.00108
         0.00311        -0.00133        -0.00664
        -0.00426         0.00765         0.01061

 GEOMETRY PRIORITY, STEP = 0.1000 ANGSTROMS



     POINT   POTENTIAL  +  ENERGY LOST   =   TOTAL      ERROR    REF%   MOVEMENT
       1     104.44594      0.00000        104.44594   0.00000     1   %  0.0000
      31     104.22096      0.19186        104.41282  -0.00382     2   %  0.1000
      61     103.59412      0.81247        104.40659  -0.01005     3   %  0.1988
      92     102.53406      1.86614        104.40020  -0.01644     4   %  0.2969
     123     101.02938      3.36439        104.39377  -0.02286     5   %  0.3952
     155      99.07996      5.30747        104.38743  -0.02921     6   %  0.4942
     185      96.69535      7.68592        104.38127  -0.03536     7   %  0.5933
     214      93.89549     10.47994        104.37542  -0.04121     8   %  0.6925
     241      90.70999     13.65999        104.36998  -0.04666     9   %  0.7915
     266      87.18120     17.18386        104.36505  -0.05158    10   %  0.8902
     288      83.37320     20.98758        104.36078  -0.05585    11   %  0.9880
     305      79.37055     24.98680        104.35735  -0.05928    12   %  1.0841
     318      75.26165     29.09347        104.35511  -0.06152    13   %  1.1783
     323      71.56650     32.78926        104.35576  -0.06088    14   %  1.2607
     339      67.06032     37.29920        104.35952  -0.05712    15   %  1.3602
     362      63.14477     41.21933        104.36410  -0.05254    16   %  1.4483
     389      59.47957     44.89010        104.36966  -0.04697    17   %  1.5350
     422      56.16695     48.20917        104.37612  -0.04052    18   %  1.6209
     458      53.31991     51.06347        104.38338  -0.03326    19   %  1.7069
     498      51.05757     53.33373        104.39130  -0.02534    20   %  1.7937
     540      49.49095     54.90857        104.39952  -0.01712    21   %  1.8797
     578      48.64871     55.75811        104.40682  -0.00982    22   %  1.9576
     599      48.25577     56.15467        104.41043  -0.00620    23   %  2.0134
     605      47.91407     56.49536        104.40943  -0.00721    24   %  2.0555
     610      47.57005     56.84106        104.41111  -0.00553    25   %  2.1004
     625      47.28151     57.13269        104.41419  -0.00244    26   %  2.1515
     645      47.10826     57.30967        104.41793   0.00129    27   %  2.2069
     664      47.06750     57.35338        104.42088   0.00424    28   %  2.2551


 IRC CALCULATION COMPLETE 

 **********************
 *                    *
 * JOB ENDED NORMALLY *
 *                    *
 **********************



 TOTAL JOB TIME:            11.71 SECONDS

 == MOPAC DONE ==
