 *******************************************************************************
 ** Site#: 37037        For non-commercial use only           Version 21.151W **
 *******************************************************************************
 ** Cite this program as: MOPAC2016, Version: 21.151W, James J. P. Stewart,   **
 ** Stewart Computational Chemistry, web: HTTP://OpenMOPAC.net. Days left: 363**
 *******************************************************************************
 **                                                                           **
 **                                MOPAC2016                                  **
 **                                                                           **
 *******************************************************************************

                              PM7 CALCULATION RESULTS

 *******************************************************************************
 *  CALCULATION DONE:                                Wed Jun  2 13:47:53 2021  *
 *  RESIDUES   - DETERMINE THE SEQUENCE OF RESIDUES
 *  T=         - A TIME OF 172800.0 SECONDS REQUESTED
 *  DUMP=N     - RESTART FILE WRITTEN EVERY 7200.0 SECONDS REQUESTED
 *  NOTXT      - DO NOT PRINT TEXT ASSOCIATED WITH AN ATOM
 *  HTML       - WRITE HTML SCRIPT TO READ PDB FILE USING JSMOL
 *******************************************************************************
      HTML notxt
      Hydrazoic acid plus ethylene (Product)

  ATOM    CHEMICAL      BOND LENGTH      BOND ANGLE     TWIST ANGLE 
 NUMBER    SYMBOL       (ANGSTROMS)      (DEGREES)       (DEGREES) 
   (I)                     NA:I           NB:NA:I       NC:NB:NA:I       NA    NB    NC 
     1       C          0.00000000       0.0000000       0.0000000        0     0     0
     2       C          1.55666900  *    0.0000000       0.0000000        1     0     0
     3       N          1.49870700  *  103.1039300  *    0.0000000        1     2     0
     4       N          1.24680700  *  111.9623370  *   -0.0002170  *     3     1     2
     5       N          1.35147100  *  113.0914320  *    0.0023560  *     4     3     1
     6       H          1.10436500  *  113.4952530  * -117.9407110  *     1     2     3
     7       H          1.10529800  *  112.9476360  * -117.9295240  *     2     1     3
     8       H          0.99351200  *  122.4017150  * -179.9927050  *     5     4     3
     9       H          1.10436100  *  113.4949050  * -124.1189740  *     1     2     6
    10       H          1.10530000  *  112.9474280  * -124.1426040  *     2     1     7
 


          CARTESIAN COORDINATES 

    NO.       ATOM           X           Y           Z

     1         C          0.0000      0.0000      0.0000
     2         C          1.5567      0.0000      0.0000
     3         N         -0.3398      1.4597      0.0000
     4         N          0.6807      2.1760      0.0000
     5         N          1.8288      1.4630     -0.0000
     6         H         -0.4403     -0.4746      0.8947
     7         H          1.9876     -0.4767     -0.8993
     8         H          2.7236      1.8947      0.0001
     9         H         -0.4403     -0.4746     -0.8947
    10         H          1.9876     -0.4767      0.8993

 General Reference for PM7:
 "Optimization of Parameters for Semiempirical Methods VI: More Modifications to the 
 NDDO Approximations and Re-optimization of Parameters", J. J. P. Stewart, J. Mol. Mod., 1:32, 19 (2013)
 https://link.springer.com/article/10.1007/s00894-012-1667-x

           Empirical Formula: C2 H5 N3  =    10 atoms



      MOLECULAR POINT GROUP   :   Cs  


      RHF CALCULATION, NO. OF DOUBLY OCCUPIED LEVELS = 14


          Geometry optimization using EF

     GRADIENT =  0.08375 IS LESS THAN CUTOFF =  1.00000



 -------------------------------------------------------------------------------
 HTML notxt
      Hydrazoic acid plus ethylene (Product)



     GRADIENTS WERE INITIALLY ACCEPTABLY SMALL                
     SCF FIELD WAS ACHIEVED                                   


                              PM7 CALCULATION
                                                       MOPAC2016 (Version: 21.151W)
                                                       Wed Jun  2 13:47:53 2021
                                                       No. of days remaining = 363




          FINAL HEAT OF FORMATION =         48.76794 KCAL/MOL =     204.04505 KJ/MOL


          TOTAL ENERGY            =       -870.46432 EV
          ELECTRONIC ENERGY       =      -3074.31143 EV  POINT GROUP:     Cs  
          CORE-CORE REPULSION     =       2203.84711 EV
          COSMO AREA              =        101.88 SQUARE ANGSTROMS
          COSMO VOLUME            =         86.46 CUBIC ANGSTROMS

          GRADIENT NORM           =          0.08375 = 0.02648 PER ATOM
          IONIZATION POTENTIAL    =          9.387207 EV
          HOMO LUMO ENERGIES (EV) =         -9.387  0.642
          NO. OF FILLED LEVELS    =         14
          MOLECULAR WEIGHT        =         71.0816

          MOLECULAR DIMENSIONS (Angstroms)

            Atom       Atom       Distance
            H     9    H     8     4.05267
            N     3    H     7     3.12068
            H    10    N     4     1.90244


          SCF CALCULATIONS        =          1
 
          WALL-CLOCK TIME         =          0.094 SECONDS
          COMPUTATION TIME        =          0.016 SECONDS




  ATOM    CHEMICAL      BOND LENGTH      BOND ANGLE     TWIST ANGLE 
 NUMBER    SYMBOL       (ANGSTROMS)      (DEGREES)       (DEGREES) 
   (I)                     NA:I           NB:NA:I       NC:NB:NA:I       NA    NB    NC 
     1       C          0.00000000       0.0000000       0.0000000        0     0     0
     2       C          1.55666900  *    0.0000000       0.0000000        1     0     0
     3       N          1.49870700  *  103.1039300  *    0.0000000        1     2     0
     4       N          1.24680700  *  111.9623370  *   -0.0002170  *     3     1     2
     5       N          1.35147100  *  113.0914320  *    0.0023560  *     4     3     1
     6       H          1.10436500  *  113.4952530  * -117.9407110  *     1     2     3
     7       H          1.10529800  *  112.9476360  * -117.9295240  *     2     1     3
     8       H          0.99351200  *  122.4017150  * -179.9927050  *     5     4     3
     9       H          1.10436100  *  113.4949050  * -124.1189740  *     1     2     6
    10       H          1.10530000  *  112.9474280  * -124.1426040  *     2     1     7

                             CARTESIAN COORDINATES

   1    C        0.000000000     0.000000000     0.000000000
   2    C        1.556669000     0.000000000     0.000000000
   3    N       -0.339784023     1.459681297     0.000000000
   4    N        0.680712683     2.176001175     0.000004379
   5    N        1.828791911     1.462987889    -0.000043118
   6    H       -0.440280605    -0.474557777     0.894745751
   7    H        1.987613299    -0.476734793    -0.899274495
   8    H        2.723601335     1.894707913     0.000060746
   9    H       -0.440272859    -0.474551127    -0.894748152
  10    H        1.987610383    -0.476710459     0.899291250


           Empirical Formula: C2 H5 N3  =    10 atoms



      MOLECULAR POINT GROUP   :   Cs  


                  EIGENVALUES  
 -41.39982 -34.27009 -28.25963 -23.19155 -22.42194 -18.77661 -17.41128 -16.04378
 -14.19974 -13.98734 -13.60673 -12.12782 -11.53503  -9.38721   0.64188   1.43093
   2.59055   3.01148   3.64870   4.52411   5.13881   5.15273   5.42421   6.08599
   6.26537


              NET ATOMIC CHARGES AND DIPOLE CONTRIBUTIONS

  ATOM NO.                 TYPE                        CHARGE      No. of ELECS.   s-Pop       p-Pop       
    1          C(HETATM    1  C1  HET A   1)          -0.178385        4.1784     1.09385     3.08453
    2          C(HETATM    2  C2  HET A   1)          -0.115701        4.1157     1.08479     3.03091
    3          N(HETATM    3  N1  HET A   1)          -0.268454        5.2685     1.78892     3.47954
    4          N(HETATM    4  N2  HET A   1)           0.119493        4.8805     1.76627     3.11424
    5          N(HETATM    5  N3  HET A   1)          -0.516168        5.5162     1.56771     3.94846
    6          H(HETATM    6 1H1  HET A   1)           0.163595        0.8364     0.83640
    7          H(HETATM    7 1H2  HET A   1)           0.146547        0.8535     0.85345
    8          H(HETATM    8  H3  HET A   1)           0.338937        0.6611     0.66106
    9          H(HETATM    9 2H1  HET A   1)           0.163597        0.8364     0.83640
   10          H(HETATM   10 2H2  HET A   1)           0.146540        0.8535     0.85346
 DIPOLE           X         Y         Z       TOTAL
 POINT-CHG.     1.970    -2.593     0.000     3.256
 HYBRID         0.985    -0.698     0.000     1.207
 SUM            2.954    -3.291     0.000     4.422


          ATOMIC ORBITAL ELECTRON POPULATIONS

                   Atom                  s        px        py        pz   
   C(HETATM    1  C1  HET A   1)   1.09385   0.97197   0.94159   1.17097
   C(HETATM    2  C2  HET A   1)   1.08479   1.02570   0.85142   1.15378
   N(HETATM    3  N1  HET A   1)   1.78892   1.19598   1.04920   1.23435
   N(HETATM    4  N2  HET A   1)   1.76627   0.88328   1.22269   1.00827
   N(HETATM    5  N3  HET A   1)   1.56771   1.12007   1.06514   1.76325
   H(HETATM    6 1H1  HET A   1)   0.83640
   H(HETATM    7 1H2  HET A   1)   0.85345
   H(HETATM    8  H3  HET A   1)   0.66106
   H(HETATM    9 2H1  HET A   1)   0.83640
   H(HETATM   10 2H2  HET A   1)   0.85346

 **********************
 *                    *
 * JOB ENDED NORMALLY *
 *                    *
 **********************



 TOTAL JOB TIME:             0.09 SECONDS

 == MOPAC DONE ==
