 *******************************************************************************
 ** Site#: 37037        For non-commercial use only           Version 21.151W **
 *******************************************************************************
 ** Cite this program as: MOPAC2016, Version: 21.151W, James J. P. Stewart,   **
 ** Stewart Computational Chemistry, web: HTTP://OpenMOPAC.net. Days left: 363**
 *******************************************************************************
 **                                                                           **
 **                                MOPAC2016                                  **
 **                                                                           **
 *******************************************************************************

                              PM7 CALCULATION RESULTS

 *******************************************************************************
 *  CALCULATION DONE:                                Wed Jun  2 13:50:54 2021  *
 *  GEO-OK     - OVERRIDE INTERATOMIC DISTANCE AND OTHER SAFETY CHECKS
 *  GEO_DAT    - DATA SET GEOMETRY IS IN FILE "Locate-TS Hydrazoic acid plus ethylene bias=20.0 first.mop"
 *  GEO_REF    - REFERENCE GEOMETRY IS IN FILE "Locate-TS Hydrazoic acid plus ethylene bias=20.0 second.mop"
 *               (NO BIAS TOWARDS THE REFERENCE GEOMETRY WILL BE APPLIED)
 *  NOSWAP     - DO NOT SWAP ATOMS EVEN IF IT WILL IMPROVE OVERLAP IN GEO_REF
 *  OPT        - OPTIMIZE COORDINATES OF ALL ATOMS
 *  XYZ        - CARTESIAN COORDINATE SYSTEM TO BE USED
 *  SADDLE     - TRANSITION STATE TO BE OPTIMIZED
 *  T=         - A TIME OF 172800.0 SECONDS REQUESTED
 *  DUMP=N     - RESTART FILE WRITTEN EVERY 7200.0 SECONDS REQUESTED
 *  CVB(3:5)   USER-DEFINED EXPLICIT COVALENT BONDS
 *  HTML       - WRITE HTML SCRIPT TO READ PDB FILE USING JSMOL
 *******************************************************************************
 CVB(3:5) noswap   GEO_DAT="Locate-TS Hydrazoic acid plus ethylene bias=20.0 first.mop" geo_ref="Locate-TS Hydrazoic acid plus ethylene bias=20.0 second.mop" +
saddle html GEO-OK OPT XYZ
      Hydrazoic acid plus ethylene

   ATOM                 CHEMICAL                   X               Y               Z
  NUMBER                 SYMBOL               (ANGSTROMS)     (ANGSTROMS)     (ANGSTROMS)
 
     1       C(HETATM    1  C1  HET A   1)    0.15208359  *  -0.43861451  *   0.00072726  *
     2       C(HETATM    2  C2  HET A   1)    1.43072413  *  -0.79541470  *  -0.00019790  *
     3       N(HETATM    3  N1  NH3 B   2)   -0.37894996  *   1.78936808  *  -0.00386718  *
     4       N(HETATM    4  N2  NH3 B   2)    0.72520509  *   2.05892513  *  -0.00114153  *
     5       N(HETATM    5  N3  NH3 B   2)    1.96530308  *   2.05062716  *   0.00259298  *
     6       H(HETATM    6 1H1  HET A   1)   -0.42519919  *  -0.32408684  *   0.91095871  *
     7       H(HETATM    7 1H2  HET A   1)    2.00623519  *  -0.90277567  *  -0.90498207  *
     8       H(HETATM    8  H3  NH3 B   2)    2.48762211  *   2.89014506  *   0.00132783  *
     9       H(HETATM    9 2H1  HET A   1)   -0.42680430  *  -0.32455441  *  -0.90841454  *
    10       H(HETATM   10 2H2  HET A   1)    2.00844159  *  -0.90228523  *   0.90303294  *
 

                        After docking

                     Atoms that move a lot

                     Atom Label             GEO_REF Coordinates       Movement    Integral

            (HETATM    8  H3  NH3 B   2)   2.681   2.032  -0.000        0.84         0.84
            (HETATM    2  C2  HET A   1)   1.563  -0.026  -0.000        0.79         1.63
            (HETATM    5  N3  NH3 B   2)   1.831   1.486   0.000        0.57         2.20
            (HETATM    1  C1  HET A   1)   0.011  -0.005   0.000        0.43         2.63
            (HETATM    7 1H2  HET A   1)   1.990  -0.553  -0.884        0.37         3.00
            (HETATM   10 2H2  HET A   1)   1.990  -0.552   0.884        0.37         3.37
            (HETATM    3  N1  NH3 B   2)  -0.337   1.467  -0.000        0.36         3.73
            (HETATM    9 2H1  HET A   1)  -0.433  -0.453  -0.903        0.16         3.89
            (HETATM    6 1H1  HET A   1)  -0.432  -0.453   0.903        0.16         4.06
            (HETATM    4  N2  NH3 B   2)   0.680   2.185  -0.000        0.14         4.20

     Residues that move a lot and their (Movement in Angstroms, per atom)


   Difference between GEO_DAT and GEO_REF: 4.201 = total,  0.4201 = Average,  0.4812 = RMS, in Angstroms

 General Reference for PM7:
 "Optimization of Parameters for Semiempirical Methods VI: More Modifications to the 
 NDDO Approximations and Re-optimization of Parameters", J. J. P. Stewart, J. Mol. Mod., 1:32, 19 (2013)
 https://link.springer.com/article/10.1007/s00894-012-1667-x

           Empirical Formula: C2 H5 N3  =    10 atoms

                     Bonds made and broken by keyword CVB

         Atom #          Label                  Atom #          Label
    Made     3  N(HETATM    3  N1  NH3 B   2)       5  N(HETATM    5  N3  NH3 B   2)


      MOLECULAR POINT GROUP   :   Cs  


      RHF CALCULATION, NO. OF DOUBLY OCCUPIED LEVELS = 14



  CARTESIAN GEOMETRY OF FIRST SYSTEM


   1    C          0.01142      -0.00522       0.00003
   2    C          1.56350      -0.02628      -0.00013
   3    N         -0.33698       1.46749      -0.00001
   4    N          0.68033       2.18462      -0.00004
   5    N          1.83063       1.48562       0.00040
   6    H         -0.43238      -0.45313       0.90310
   7    H          1.98963      -0.55262      -0.88410
   8    H          2.68083       2.03230      -0.00021
   9    H         -0.43267      -0.45341      -0.90264
  10    H          1.99035      -0.55229       0.88364


  CARTESIAN GEOMETRY OF SECOND SYSTEM


   1    C          0.13025      -0.41713       0.00071
   2    C          1.40025      -0.80356      -0.00044
   3    N         -0.34885       1.82260      -0.00351
   4    N          0.76127       2.06641      -0.00090
   5    N          2.00084       2.02929       0.00266
   6    H         -0.44409      -0.28934       0.91104
   7    H          1.97298      -0.92414      -0.90532
   8    H          2.54253       2.85644       0.00143
   9    H         -0.44596      -0.28952      -0.90833
  10    H          1.97545      -0.92395       0.90270


   "DISTANCE":     1.521790


  REACTION COORDINATE VECTOR


   1    C         -0.11882       0.41191      -0.00069
   2    C          0.16325       0.77728       0.00031
   3    N          0.01187      -0.35510       0.00350
   4    N         -0.08094       0.11821       0.00087
   5    N         -0.17021      -0.54367      -0.00225
   6    H          0.01172      -0.16380      -0.00794
   7    H          0.01665       0.37153       0.02121
   8    H          0.13830      -0.82414      -0.00164
   9    H          0.01329      -0.16389       0.00569
  10    H          0.01490       0.37166      -0.01906
 *+*+*+*+*+*+*+*+*+*+*+*+*+*+*+*+*+*+*+*+*+*+*+*+*+*+*+*+*+*+*+*+*+*+*+*+*+*+*+*+
            BAR SHORTENED BY       0.000 PERCENT
 GRADIENT CRITERION IN FLEPO =     1.000


          FOR POINT    1 SECOND STRUCTURE
 DISTANCE A - B      1.521790
 HEAT               51.552380
 GRADIENT NORM      37.481167
 DIRECTION COSINE   -0.000000
 CVB(3:5) noswap html GEO-OK OPT XYZ
      Hydrazoic acid plus ethylene

  C(HETATM    1  C1  HET A   1)   0.01177008 +1  -0.00571488 +1  -0.00313381 +1
  C(HETATM    2  C2  HET A   1)   1.56322242 +1  -0.02726881 +1  -0.00186162 +1
  N(HETATM    3  N1  NH3 B   2)  -0.34080607 +1   1.46337578 +1  -0.00395925 +1
  N(HETATM    4  N2  NH3 B   2)   0.67937316 +1   2.17270264 +1  -0.00667999 +1
  N(HETATM    5  N3  NH3 B   2)   1.83552270 +1   1.48008118 +1  -0.00743190 +1
  H(HETATM    6 1H1  HET A   1)  -0.44038673 +1  -0.44663546 +1   0.90019383 +1
  H(HETATM    7 1H2  HET A   1)   1.98535227 +1  -0.54653146 +1  -0.88554511 +1
  H(HETATM    8  H3  NH3 B   2)   2.67619285 +1   2.03823583 +1  -0.00009379 +1
  H(HETATM    9 2H1  HET A   1)  -0.43981563 +1  -0.44849317 +1  -0.90601754 +1
  H(HETATM   10 2H2  HET A   1)   1.98562206 +1  -0.54176235 +1   0.88470820 +1
 
 TIME=     0.03
  REACTANTS AND PRODUCTS SWAPPED AROUND
 *+*+*+*+*+*+*+*+*+*+*+*+*+*+*+*+*+*+*+*+*+*+*+*+*+*+*+*+*+*+*+*+*+*+*+*+*+*+*+*+
            BAR SHORTENED BY       1.000 PERCENT
 GRADIENT CRITERION IN FLEPO =    10.000


          FOR POINT    2 FIRST  STRUCTURE
 DISTANCE A - B      1.506572
 HEAT               89.035250
 GRADIENT NORM      14.325255
 DIRECTION COSINE    0.508767
 CVB(3:5) noswap html GEO-OK OPT XYZ
      Hydrazoic acid plus ethylene

  C(HETATM    1  C1  HET A   1)   0.09748561 +1  -0.67589052 +1  -0.01314035 +1
  C(HETATM    2  C2  HET A   1)   1.42833461 +1  -0.74460837 +1   0.00060234 +1
  N(HETATM    3  N1  NH3 B   2)  -0.37657175 +1   2.19153925 +1   0.00996117 +1
  N(HETATM    4  N2  NH3 B   2)   0.76023541 +1   2.20668861 +1   0.00856430 +1
  N(HETATM    5  N3  NH3 B   2)   1.96594379 +1   1.91160332 +1   0.00627371 +1
  H(HETATM    6 1H1  HET A   1)  -0.50506472 +1  -0.63409626 +1   0.88048544 +1
  H(HETATM    7 1H2  HET A   1)   2.04231577 +1  -0.75418283 +1  -0.88967267 +1
  H(HETATM    8  H3  NH3 B   2)   2.67798434 +1   2.63353327 +1  -0.01056973 +1
  H(HETATM    9 2H1  HET A   1)  -0.49813157 +1  -0.64344238 +1  -0.91353523 +1
  H(HETATM   10 2H2  HET A   1)   2.02405940 +1  -0.77340110 +1   0.89839276 +1
 
 TIME=     0.03
  REACTANTS AND PRODUCTS SWAPPED AROUND
 *+*+*+*+*+*+*+*+*+*+*+*+*+*+*+*+*+*+*+*+*+*+*+*+*+*+*+*+*+*+*+*+*+*+*+*+*+*+*+*+
            BAR SHORTENED BY       1.000 PERCENT
 GRADIENT CRITERION IN FLEPO =    10.000


          FOR POINT    3 SECOND STRUCTURE
 DISTANCE A - B      1.491506
 HEAT               51.694436
 GRADIENT NORM      48.089856
 DIRECTION COSINE    0.523363
 CVB(3:5) noswap html GEO-OK OPT XYZ
      Hydrazoic acid plus ethylene

  C(HETATM    1  C1  HET A   1)   0.00947438 +1  -0.01254572 +1  -0.00446238 +1
  C(HETATM    2  C2  HET A   1)   1.56092505 +1  -0.02988710 +1  -0.00045605 +1
  N(HETATM    3  N1  NH3 B   2)  -0.34234207 +1   1.47751225 +1  -0.00172939 +1
  N(HETATM    4  N2  NH3 B   2)   0.68165663 +1   2.17571951 +1  -0.00120875 +1
  N(HETATM    5  N3  NH3 B   2)   1.83510015 +1   1.47972199 +1   0.00616442 +1
  H(HETATM    6 1H1  HET A   1)  -0.44555895 +1  -0.49427565 +1   0.89719753 +1
  H(HETATM    7 1H2  HET A   1)   1.98882442 +1  -0.53678254 +1  -0.88675238 +1
  H(HETATM    8  H3  NH3 B   2)   2.67985069 +1   2.03391688 +1   0.00139971 +1
  H(HETATM    9 2H1  HET A   1)  -0.44502104 +1  -0.46359082 +1  -0.90784158 +1
  H(HETATM   10 2H2  HET A   1)   1.98835715 +1  -0.53565605 +1   0.88674801 +1
 
 *+*+*+*+*+*+*+*+*+*+*+*+*+*+*+*+*+*+*+*+*+*+*+*+*+*+*+*+*+*+*+*+*+*+*+*+*+*+*+*+
            BAR SHORTENED BY       1.000 PERCENT
 GRADIENT CRITERION IN FLEPO =    10.000


          FOR POINT    4 SECOND STRUCTURE
 DISTANCE A - B      1.476591
 HEAT               52.320479
 GRADIENT NORM      53.989679
 DIRECTION COSINE    0.955795
 CVB(3:5) noswap html GEO-OK OPT XYZ
      Hydrazoic acid plus ethylene

  C(HETATM    1  C1  HET A   1)   0.00866196 +1  -0.02176633 +1  -0.00114830 +1
  C(HETATM    2  C2  HET A   1)   1.55783618 +1  -0.03520374 +1   0.00126285 +1
  N(HETATM    3  N1  NH3 B   2)  -0.34410483 +1   1.48213119 +1   0.01781952 +1
  N(HETATM    4  N2  NH3 B   2)   0.68423906 +1   2.17828297 +1   0.00306763 +1
  N(HETATM    5  N3  NH3 B   2)   1.83526809 +1   1.48190631 +1   0.00497099 +1
  H(HETATM    6 1H1  HET A   1)  -0.44417274 +1  -0.49425197 +1   0.89355225 +1
  H(HETATM    7 1H2  HET A   1)   1.99213638 +1  -0.53520363 +1  -0.88811378 +1
  H(HETATM    8  H3  NH3 B   2)   2.68212850 +1   2.04173843 +1  -0.00201462 +1
  H(HETATM    9 2H1  HET A   1)  -0.44436360 +1  -0.47415148 +1  -0.90458713 +1
  H(HETATM   10 2H2  HET A   1)   1.99087858 +1  -0.53966632 +1   0.88858856 +1
 
 *+*+*+*+*+*+*+*+*+*+*+*+*+*+*+*+*+*+*+*+*+*+*+*+*+*+*+*+*+*+*+*+*+*+*+*+*+*+*+*+
            BAR SHORTENED BY       1.000 PERCENT
 GRADIENT CRITERION IN FLEPO =    10.000


          FOR POINT    5 SECOND STRUCTURE
 DISTANCE A - B      1.461825
 HEAT               53.040403
 GRADIENT NORM      60.964037
 DIRECTION COSINE    0.973093
 CVB(3:5) noswap html GEO-OK OPT XYZ
      Hydrazoic acid plus ethylene

  C(HETATM    1  C1  HET A   1)   0.01103354 +1  -0.02884922 +1   0.00144630 +1
  C(HETATM    2  C2  HET A   1)   1.55571335 +1  -0.03985154 +1   0.00236686 +1
  N(HETATM    3  N1  NH3 B   2)  -0.33628182 +1   1.48431144 +1   0.01402295 +1
  N(HETATM    4  N2  NH3 B   2)   0.68662766 +1   2.18026654 +1   0.00658156 +1
  N(HETATM    5  N3  NH3 B   2)   1.83790538 +1   1.48378612 +1   0.00370192 +1
  H(HETATM    6 1H1  HET A   1)  -0.44990763 +1  -0.51158266 +1   0.88938761 +1
  H(HETATM    7 1H2  HET A   1)   1.99511394 +1  -0.53858576 +1  -0.88446234 +1
  H(HETATM    8  H3  NH3 B   2)   2.68439156 +1   2.04882181 +1  -0.00561473 +1
  H(HETATM    9 2H1  HET A   1)  -0.44646193 +1  -0.48642151 +1  -0.89961461 +1
  H(HETATM   10 2H2  HET A   1)   1.99294894 +1  -0.54333209 +1   0.88977551 +1
 
 TIME=     0.02
  REACTANTS AND PRODUCTS SWAPPED AROUND
 *+*+*+*+*+*+*+*+*+*+*+*+*+*+*+*+*+*+*+*+*+*+*+*+*+*+*+*+*+*+*+*+*+*+*+*+*+*+*+*+
            BAR SHORTENED BY       0.000 PERCENT
 GRADIENT CRITERION IN FLEPO =    10.000


          FOR POINT    6 FIRST  STRUCTURE
 DISTANCE A - B      1.461825
 HEAT               89.047474
 GRADIENT NORM       9.230108
 DIRECTION COSINE    0.860270
 CVB(3:5) noswap html GEO-OK OPT XYZ
      Hydrazoic acid plus ethylene

  C(HETATM    1  C1  HET A   1)   0.09909614 +1  -0.67379789 +1  -0.01137753 +1
  C(HETATM    2  C2  HET A   1)   1.42675054 +1  -0.74557546 +1  -0.00139973 +1
  N(HETATM    3  N1  NH3 B   2)  -0.37496367 +1   2.19449833 +1   0.01187005 +1
  N(HETATM    4  N2  NH3 B   2)   0.76237783 +1   2.21179991 +1   0.00672900 +1
  N(HETATM    5  N3  NH3 B   2)   1.96388135 +1   1.90963340 +1   0.00806299 +1
  H(HETATM    6 1H1  HET A   1)  -0.50663247 +1  -0.63661968 +1   0.88216057 +1
  H(HETATM    7 1H2  HET A   1)   2.03807137 +1  -0.75243775 +1  -0.89158462 +1
  H(HETATM    8  H3  NH3 B   2)   2.67141592 +1   2.63447938 +1  -0.01220050 +1
  H(HETATM    9 2H1  HET A   1)  -0.49543582 +1  -0.64050262 +1  -0.91080420 +1
  H(HETATM   10 2H2  HET A   1)   2.02037861 +1  -0.77061979 +1   0.90042659 +1
 
 TIME=     0.02
  REACTANTS AND PRODUCTS SWAPPED AROUND
 *+*+*+*+*+*+*+*+*+*+*+*+*+*+*+*+*+*+*+*+*+*+*+*+*+*+*+*+*+*+*+*+*+*+*+*+*+*+*+*+
            BAR SHORTENED BY       1.000 PERCENT
 GRADIENT CRITERION IN FLEPO =     6.230


          FOR POINT    7 SECOND STRUCTURE
 DISTANCE A - B      1.447207
 HEAT               53.759544
 GRADIENT NORM      65.111267
 DIRECTION COSINE    0.847786
 CVB(3:5) noswap html GEO-OK OPT XYZ
      Hydrazoic acid plus ethylene

  C(HETATM    1  C1  HET A   1)   0.01916910 +1  -0.05068937 +1   0.00233627 +1
  C(HETATM    2  C2  HET A   1)   1.56007974 +1  -0.04613357 +1   0.00295977 +1
  N(HETATM    3  N1  NH3 B   2)  -0.33561776 +1   1.47213014 +1   0.00495997 +1
  N(HETATM    4  N2  NH3 B   2)   0.68665553 +1   2.17624305 +1   0.00881814 +1
  N(HETATM    5  N3  NH3 B   2)   1.84107941 +1   1.48502056 +1   0.01415453 +1
  H(HETATM    6 1H1  HET A   1)  -0.44858011 +1  -0.51963771 +1   0.88369950 +1
  H(HETATM    7 1H2  HET A   1)   2.00614213 +1  -0.54212188 +1  -0.88550891 +1
  H(HETATM    8  H3  NH3 B   2)   2.68242166 +1   2.05638508 +1  -0.01707400 +1
  H(HETATM    9 2H1  HET A   1)  -0.44343983 +1  -0.50755476 +1  -0.89394549 +1
  H(HETATM   10 2H2  HET A   1)   1.99980888 +1  -0.54960771 +1   0.88999453 +1
 
 *+*+*+*+*+*+*+*+*+*+*+*+*+*+*+*+*+*+*+*+*+*+*+*+*+*+*+*+*+*+*+*+*+*+*+*+*+*+*+*+
            BAR SHORTENED BY       1.000 PERCENT
 GRADIENT CRITERION IN FLEPO =    10.000


          FOR POINT    8 SECOND STRUCTURE
 DISTANCE A - B      1.432735
 HEAT               54.680240
 GRADIENT NORM      72.281430
 DIRECTION COSINE    0.959049
 CVB(3:5) noswap html GEO-OK OPT XYZ
      Hydrazoic acid plus ethylene

  C(HETATM    1  C1  HET A   1)   0.02030147 +1  -0.05278036 +1   0.00096275 +1
  C(HETATM    2  C2  HET A   1)   1.56176960 +1  -0.05642714 +1   0.00288507 +1
  N(HETATM    3  N1  NH3 B   2)  -0.33605567 +1   1.47443733 +1   0.00677225 +1
  N(HETATM    4  N2  NH3 B   2)   0.68779211 +1   2.16661741 +1   0.00751033 +1
  N(HETATM    5  N3  NH3 B   2)   1.84171357 +1   1.48156333 +1   0.01637215 +1
  H(HETATM    6 1H1  HET A   1)  -0.44997214 +1  -0.52366687 +1   0.88392027 +1
  H(HETATM    7 1H2  HET A   1)   2.00629519 +1  -0.54904878 +1  -0.88505165 +1
  H(HETATM    8  H3  NH3 B   2)   2.68262632 +1   2.06558811 +1  -0.01698584 +1
  H(HETATM    9 2H1  HET A   1)  -0.44234605 +1  -0.53212365 +1  -0.89264228 +1
  H(HETATM   10 2H2  HET A   1)   2.00218497 +1  -0.56060186 +1   0.88812615 +1
 
 *+*+*+*+*+*+*+*+*+*+*+*+*+*+*+*+*+*+*+*+*+*+*+*+*+*+*+*+*+*+*+*+*+*+*+*+*+*+*+*+
            BAR SHORTENED BY       1.000 PERCENT
 GRADIENT CRITERION IN FLEPO =    10.000


          FOR POINT    9 SECOND STRUCTURE
 DISTANCE A - B      1.418408
 HEAT               55.635416
 GRADIENT NORM      75.880944
 DIRECTION COSINE    0.971379
 CVB(3:5) noswap html GEO-OK OPT XYZ
      Hydrazoic acid plus ethylene

  C(HETATM    1  C1  HET A   1)   0.02146896 +1  -0.05875485 +1  -0.00060369 +1
  C(HETATM    2  C2  HET A   1)   1.56568039 +1  -0.06756115 +1   0.00365561 +1
  N(HETATM    3  N1  NH3 B   2)  -0.33740668 +1   1.47488195 +1   0.00283187 +1
  N(HETATM    4  N2  NH3 B   2)   0.69011493 +1   2.16880707 +1   0.00772135 +1
  N(HETATM    5  N3  NH3 B   2)   1.84441370 +1   1.48263346 +1   0.01939521 +1
  H(HETATM    6 1H1  HET A   1)  -0.45095449 +1  -0.52980324 +1   0.87917757 +1
  H(HETATM    7 1H2  HET A   1)   2.00815535 +1  -0.55351007 +1  -0.88562830 +1
  H(HETATM    8  H3  NH3 B   2)   2.67962939 +1   2.07559653 +1  -0.01854432 +1
  H(HETATM    9 2H1  HET A   1)  -0.43858715 +1  -0.52968225 +1  -0.88986934 +1
  H(HETATM   10 2H2  HET A   1)   2.00236551 +1  -0.56713161 +1   0.88917564 +1
 
 TIME=     0.03
  REACTANTS AND PRODUCTS SWAPPED AROUND
 *+*+*+*+*+*+*+*+*+*+*+*+*+*+*+*+*+*+*+*+*+*+*+*+*+*+*+*+*+*+*+*+*+*+*+*+*+*+*+*+
            BAR SHORTENED BY       0.000 PERCENT
 GRADIENT CRITERION IN FLEPO =    10.000


          FOR POINT   10 FIRST  STRUCTURE
 DISTANCE A - B      1.418408
 HEAT               89.047474
 GRADIENT NORM       9.230052
 DIRECTION COSINE    0.877983
 CVB(3:5) noswap html GEO-OK OPT XYZ
      Hydrazoic acid plus ethylene

  C(HETATM    1  C1  HET A   1)   0.09909614 +1  -0.67379789 +1  -0.01137753 +1
  C(HETATM    2  C2  HET A   1)   1.42675054 +1  -0.74557546 +1  -0.00139973 +1
  N(HETATM    3  N1  NH3 B   2)  -0.37496367 +1   2.19449833 +1   0.01187005 +1
  N(HETATM    4  N2  NH3 B   2)   0.76237783 +1   2.21179991 +1   0.00672900 +1
  N(HETATM    5  N3  NH3 B   2)   1.96388135 +1   1.90963340 +1   0.00806299 +1
  H(HETATM    6 1H1  HET A   1)  -0.50663247 +1  -0.63661968 +1   0.88216057 +1
  H(HETATM    7 1H2  HET A   1)   2.03807137 +1  -0.75243775 +1  -0.89158462 +1
  H(HETATM    8  H3  NH3 B   2)   2.67141592 +1   2.63447938 +1  -0.01220050 +1
  H(HETATM    9 2H1  HET A   1)  -0.49543582 +1  -0.64050262 +1  -0.91080420 +1
  H(HETATM   10 2H2  HET A   1)   2.02037861 +1  -0.77061979 +1   0.90042659 +1
 
 TIME=     0.02
  REACTANTS AND PRODUCTS SWAPPED AROUND
 *+*+*+*+*+*+*+*+*+*+*+*+*+*+*+*+*+*+*+*+*+*+*+*+*+*+*+*+*+*+*+*+*+*+*+*+*+*+*+*+
            BAR SHORTENED BY       1.000 PERCENT
 GRADIENT CRITERION IN FLEPO =     6.230


          FOR POINT   11 SECOND STRUCTURE
 DISTANCE A - B      1.404224
 HEAT               56.640947
 GRADIENT NORM      78.306067
 DIRECTION COSINE    0.854609
 CVB(3:5) noswap html GEO-OK OPT XYZ
      Hydrazoic acid plus ethylene

  C(HETATM    1  C1  HET A   1)   0.02474342 +1  -0.06736088 +1  -0.00177211 +1
  C(HETATM    2  C2  HET A   1)   1.56278417 +1  -0.07535894 +1   0.00285465 +1
  N(HETATM    3  N1  NH3 B   2)  -0.33182104 +1   1.46671835 +1   0.00218805 +1
  N(HETATM    4  N2  NH3 B   2)   0.69154055 +1   2.16700593 +1   0.00807097 +1
  N(HETATM    5  N3  NH3 B   2)   1.84941674 +1   1.48693528 +1   0.02336357 +1
  H(HETATM    6 1H1  HET A   1)  -0.45088498 +1  -0.53645157 +1   0.87824990 +1
  H(HETATM    7 1H2  HET A   1)   2.01133968 +1  -0.56019467 +1  -0.88501688 +1
  H(HETATM    8  H3  NH3 B   2)   2.67774071 +1   2.09152242 +1  -0.02021116 +1
  H(HETATM    9 2H1  HET A   1)  -0.44039336 +1  -0.53258109 +1  -0.89078561 +1
  H(HETATM   10 2H2  HET A   1)   2.00298964 +1  -0.57363939 +1   0.88903494 +1
 
 *+*+*+*+*+*+*+*+*+*+*+*+*+*+*+*+*+*+*+*+*+*+*+*+*+*+*+*+*+*+*+*+*+*+*+*+*+*+*+*+
            BAR SHORTENED BY       1.000 PERCENT
 GRADIENT CRITERION IN FLEPO =    10.000


          FOR POINT   12 SECOND STRUCTURE
 DISTANCE A - B      1.390181
 HEAT               57.789553
 GRADIENT NORM      85.728281
 DIRECTION COSINE    0.996142
 CVB(3:5) noswap html GEO-OK OPT XYZ
      Hydrazoic acid plus ethylene

  C(HETATM    1  C1  HET A   1)   0.02548695 +1  -0.07342525 +1  -0.00186817 +1
  C(HETATM    2  C2  HET A   1)   1.56142383 +1  -0.08206111 +1   0.00281211 +1
  N(HETATM    3  N1  NH3 B   2)  -0.33225246 +1   1.47399615 +1   0.00228487 +1
  N(HETATM    4  N2  NH3 B   2)   0.69224892 +1   2.16745387 +1   0.00805755 +1
  N(HETATM    5  N3  NH3 B   2)   1.85056139 +1   1.49116226 +1   0.02321057 +1
  H(HETATM    6 1H1  HET A   1)  -0.45144246 +1  -0.53745325 +1   0.87828901 +1
  H(HETATM    7 1H2  HET A   1)   2.01160699 +1  -0.56211710 +1  -0.88508256 +1
  H(HETATM    8  H3  NH3 B   2)   2.67767747 +1   2.09695199 +1  -0.02013105 +1
  H(HETATM    9 2H1  HET A   1)  -0.44094379 +1  -0.53366031 +1  -0.89098580 +1
  H(HETATM   10 2H2  HET A   1)   2.00316353 +1  -0.57560920 +1   0.88914886 +1
 
 *+*+*+*+*+*+*+*+*+*+*+*+*+*+*+*+*+*+*+*+*+*+*+*+*+*+*+*+*+*+*+*+*+*+*+*+*+*+*+*+
            BAR SHORTENED BY       1.000 PERCENT
 GRADIENT CRITERION IN FLEPO =    10.000


          FOR POINT   13 SECOND STRUCTURE
 DISTANCE A - B      1.376280
 HEAT               58.972789
 GRADIENT NORM      89.478075
 DIRECTION COSINE    0.998443
 CVB(3:5) noswap html GEO-OK OPT XYZ
      Hydrazoic acid plus ethylene

  C(HETATM    1  C1  HET A   1)   0.02699897 +1  -0.07849115 +1  -0.00262501 +1
  C(HETATM    2  C2  HET A   1)   1.55951685 +1  -0.08859695 +1   0.00312121 +1
  N(HETATM    3  N1  NH3 B   2)  -0.33288076 +1   1.47870985 +1   0.00286395 +1
  N(HETATM    4  N2  NH3 B   2)   0.69393715 +1   2.16858316 +1   0.00762566 +1
  N(HETATM    5  N3  NH3 B   2)   1.85023321 +1   1.49165169 +1   0.01895035 +1
  H(HETATM    6 1H1  HET A   1)  -0.45318192 +1  -0.54057833 +1   0.87867551 +1
  H(HETATM    7 1H2  HET A   1)   2.01322669 +1  -0.56687002 +1  -0.88593784 +1
  H(HETATM    8  H3  NH3 B   2)   2.67769756 +1   2.10606858 +1  -0.01948888 +1
  H(HETATM    9 2H1  HET A   1)  -0.44300941 +1  -0.53705689 +1  -0.89266016 +1
  H(HETATM   10 2H2  HET A   1)   2.00456689 +1  -0.58062636 +1   0.89056582 +1
 
 TIME=     0.02
  REACTANTS AND PRODUCTS SWAPPED AROUND
 *+*+*+*+*+*+*+*+*+*+*+*+*+*+*+*+*+*+*+*+*+*+*+*+*+*+*+*+*+*+*+*+*+*+*+*+*+*+*+*+
            BAR SHORTENED BY       0.000 PERCENT
 GRADIENT CRITERION IN FLEPO =    10.000


          FOR POINT   14 FIRST  STRUCTURE
 DISTANCE A - B      1.376280
 HEAT               89.047474
 GRADIENT NORM       9.230052
 DIRECTION COSINE    0.867726
 CVB(3:5) noswap html GEO-OK OPT XYZ
      Hydrazoic acid plus ethylene

  C(HETATM    1  C1  HET A   1)   0.09909614 +1  -0.67379789 +1  -0.01137753 +1
  C(HETATM    2  C2  HET A   1)   1.42675054 +1  -0.74557546 +1  -0.00139973 +1
  N(HETATM    3  N1  NH3 B   2)  -0.37496367 +1   2.19449833 +1   0.01187005 +1
  N(HETATM    4  N2  NH3 B   2)   0.76237783 +1   2.21179991 +1   0.00672900 +1
  N(HETATM    5  N3  NH3 B   2)   1.96388135 +1   1.90963340 +1   0.00806299 +1
  H(HETATM    6 1H1  HET A   1)  -0.50663247 +1  -0.63661968 +1   0.88216057 +1
  H(HETATM    7 1H2  HET A   1)   2.03807137 +1  -0.75243775 +1  -0.89158462 +1
  H(HETATM    8  H3  NH3 B   2)   2.67141592 +1   2.63447938 +1  -0.01220050 +1
  H(HETATM    9 2H1  HET A   1)  -0.49543582 +1  -0.64050262 +1  -0.91080420 +1
  H(HETATM   10 2H2  HET A   1)   2.02037861 +1  -0.77061979 +1   0.90042659 +1
 
 TIME=     0.02
  REACTANTS AND PRODUCTS SWAPPED AROUND
 *+*+*+*+*+*+*+*+*+*+*+*+*+*+*+*+*+*+*+*+*+*+*+*+*+*+*+*+*+*+*+*+*+*+*+*+*+*+*+*+
            BAR SHORTENED BY       1.000 PERCENT
 GRADIENT CRITERION IN FLEPO =     6.230


          FOR POINT   15 SECOND STRUCTURE
 DISTANCE A - B      1.362517
 HEAT               60.223252
 GRADIENT NORM      93.486137
 DIRECTION COSINE    0.868245
 CVB(3:5) noswap html GEO-OK OPT XYZ
      Hydrazoic acid plus ethylene

  C(HETATM    1  C1  HET A   1)   0.02813213 +1  -0.08409801 +1  -0.00322667 +1
  C(HETATM    2  C2  HET A   1)   1.55830610 +1  -0.09588037 +1   0.00308333 +1
  N(HETATM    3  N1  NH3 B   2)  -0.32815668 +1   1.47971267 +1   0.00306770 +1
  N(HETATM    4  N2  NH3 B   2)   0.69587406 +1   2.16948990 +1   0.00725791 +1
  N(HETATM    5  N3  NH3 B   2)   1.85127957 +1   1.49441700 +1   0.01948955 +1
  H(HETATM    6 1H1  HET A   1)  -0.45470969 +1  -0.54368488 +1   0.87351054 +1
  H(HETATM    7 1H2  HET A   1)   2.01507276 +1  -0.57302423 +1  -0.88627310 +1
  H(HETATM    8  H3  NH3 B   2)   2.66401926 +1   2.11576256 +1  -0.01745147 +1
  H(HETATM    9 2H1  HET A   1)  -0.44411660 +1  -0.53922239 +1  -0.89303321 +1
  H(HETATM   10 2H2  HET A   1)   2.00554650 +1  -0.58967647 +1   0.89107604 +1
 
 *+*+*+*+*+*+*+*+*+*+*+*+*+*+*+*+*+*+*+*+*+*+*+*+*+*+*+*+*+*+*+*+*+*+*+*+*+*+*+*+
            BAR SHORTENED BY       1.000 PERCENT
 GRADIENT CRITERION IN FLEPO =    10.000


          FOR POINT   16 SECOND STRUCTURE
 DISTANCE A - B      1.348892
 HEAT               61.471585
 GRADIENT NORM      95.499821
 DIRECTION COSINE    0.994790
 CVB(3:5) noswap html GEO-OK OPT XYZ
      Hydrazoic acid plus ethylene

  C(HETATM    1  C1  HET A   1)   0.02958065 +1  -0.08788250 +1  -0.00601981 +1
  C(HETATM    2  C2  HET A   1)   1.55782036 +1  -0.10246025 +1   0.00325245 +1
  N(HETATM    3  N1  NH3 B   2)  -0.32987402 +1   1.48275469 +1  -0.00040566 +1
  N(HETATM    4  N2  NH3 B   2)   0.69710173 +1   2.17017346 +1   0.00688406 +1
  N(HETATM    5  N3  NH3 B   2)   1.85127372 +1   1.49468742 +1   0.01910818 +1
  H(HETATM    6 1H1  HET A   1)  -0.45663811 +1  -0.54638200 +1   0.87468393 +1
  H(HETATM    7 1H2  HET A   1)   2.01498679 +1  -0.59213106 +1  -0.88618503 +1
  H(HETATM    8  H3  NH3 B   2)   2.66949776 +1   2.12454072 +1  -0.01819154 +1
  H(HETATM    9 2H1  HET A   1)  -0.44524013 +1  -0.54152612 +1  -0.89403241 +1
  H(HETATM   10 2H2  HET A   1)   2.00498783 +1  -0.59499577 +1   0.89043074 +1
 
 *+*+*+*+*+*+*+*+*+*+*+*+*+*+*+*+*+*+*+*+*+*+*+*+*+*+*+*+*+*+*+*+*+*+*+*+*+*+*+*+
            BAR SHORTENED BY       1.000 PERCENT
 GRADIENT CRITERION IN FLEPO =    10.000


          FOR POINT   17 SECOND STRUCTURE
 DISTANCE A - B      1.335403
 HEAT               62.790657
 GRADIENT NORM     100.888949
 DIRECTION COSINE    0.997921
 CVB(3:5) noswap html GEO-OK OPT XYZ
      Hydrazoic acid plus ethylene

  C(HETATM    1  C1  HET A   1)   0.03027581 +1  -0.09374166 +1  -0.00607338 +1
  C(HETATM    2  C2  HET A   1)   1.55650966 +1  -0.10889140 +1   0.00320593 +1
  N(HETATM    3  N1  NH3 B   2)  -0.33032492 +1   1.48987212 +1  -0.00028290 +1
  N(HETATM    4  N2  NH3 B   2)   0.69775449 +1   2.17058973 +1   0.00688251 +1
  N(HETATM    5  N3  NH3 B   2)   1.85239980 +1   1.49883688 +1   0.01899773 +1
  H(HETATM    6 1H1  HET A   1)  -0.45713806 +1  -0.54728438 +1   0.87475869 +1
  H(HETATM    7 1H2  HET A   1)   2.01521764 +1  -0.59373413 +1  -0.88623902 +1
  H(HETATM    8  H3  NH3 B   2)   2.66951694 +1   2.12964011 +1  -0.01813162 +1
  H(HETATM    9 2H1  HET A   1)  -0.44574209 +1  -0.54251589 +1  -0.89420013 +1
  H(HETATM   10 2H2  HET A   1)   2.00514174 +1  -0.59675201 +1   0.89053070 +1
 
 TIME=     0.02
  REACTANTS AND PRODUCTS SWAPPED AROUND
 *+*+*+*+*+*+*+*+*+*+*+*+*+*+*+*+*+*+*+*+*+*+*+*+*+*+*+*+*+*+*+*+*+*+*+*+*+*+*+*+
            BAR SHORTENED BY       0.000 PERCENT
 GRADIENT CRITERION IN FLEPO =    10.000


          FOR POINT   18 FIRST  STRUCTURE
 DISTANCE A - B      1.335403
 HEAT               89.047474
 GRADIENT NORM       9.230052
 DIRECTION COSINE    0.881053
 CVB(3:5) noswap html GEO-OK OPT XYZ
      Hydrazoic acid plus ethylene

  C(HETATM    1  C1  HET A   1)   0.09909614 +1  -0.67379789 +1  -0.01137753 +1
  C(HETATM    2  C2  HET A   1)   1.42675054 +1  -0.74557546 +1  -0.00139973 +1
  N(HETATM    3  N1  NH3 B   2)  -0.37496367 +1   2.19449833 +1   0.01187005 +1
  N(HETATM    4  N2  NH3 B   2)   0.76237783 +1   2.21179991 +1   0.00672900 +1
  N(HETATM    5  N3  NH3 B   2)   1.96388135 +1   1.90963340 +1   0.00806299 +1
  H(HETATM    6 1H1  HET A   1)  -0.50663247 +1  -0.63661968 +1   0.88216057 +1
  H(HETATM    7 1H2  HET A   1)   2.03807137 +1  -0.75243775 +1  -0.89158462 +1
  H(HETATM    8  H3  NH3 B   2)   2.67141592 +1   2.63447938 +1  -0.01220050 +1
  H(HETATM    9 2H1  HET A   1)  -0.49543582 +1  -0.64050262 +1  -0.91080420 +1
  H(HETATM   10 2H2  HET A   1)   2.02037861 +1  -0.77061979 +1   0.90042659 +1
 
 TIME=     0.00
  REACTANTS AND PRODUCTS SWAPPED AROUND
 *+*+*+*+*+*+*+*+*+*+*+*+*+*+*+*+*+*+*+*+*+*+*+*+*+*+*+*+*+*+*+*+*+*+*+*+*+*+*+*+
            BAR SHORTENED BY       1.000 PERCENT
 GRADIENT CRITERION IN FLEPO =     6.230


          FOR POINT   19 SECOND STRUCTURE
 DISTANCE A - B      1.322049
 HEAT               64.110960
 GRADIENT NORM     103.065501
 DIRECTION COSINE    0.873059
 CVB(3:5) noswap html GEO-OK OPT XYZ
      Hydrazoic acid plus ethylene

  C(HETATM    1  C1  HET A   1)   0.03186726 +1  -0.09745299 +1  -0.00522377 +1
  C(HETATM    2  C2  HET A   1)   1.55558624 +1  -0.11739322 +1   0.00211595 +1
  N(HETATM    3  N1  NH3 B   2)  -0.33139036 +1   1.49266127 +1   0.00076465 +1
  N(HETATM    4  N2  NH3 B   2)   0.69956188 +1   2.17153535 +1   0.00545659 +1
  N(HETATM    5  N3  NH3 B   2)   1.85422612 +1   1.50112925 +1   0.00326408 +1
  H(HETATM    6 1H1  HET A   1)  -0.45945871 +1  -0.55156551 +1   0.87369039 +1
  H(HETATM    7 1H2  HET A   1)   2.01456246 +1  -0.59389775 +1  -0.88495615 +1
  H(HETATM    8  H3  NH3 B   2)   2.67327416 +1   2.14008437 +1  -0.01735942 +1
  H(HETATM    9 2H1  HET A   1)  -0.44710797 +1  -0.54477396 +1  -0.89521472 +1
  H(HETATM   10 2H2  HET A   1)   2.00537590 +1  -0.60035411 +1   0.89086558 +1
 
 *+*+*+*+*+*+*+*+*+*+*+*+*+*+*+*+*+*+*+*+*+*+*+*+*+*+*+*+*+*+*+*+*+*+*+*+*+*+*+*+
            BAR SHORTENED BY       1.000 PERCENT
 GRADIENT CRITERION IN FLEPO =    10.000


          FOR POINT   20 SECOND STRUCTURE
 DISTANCE A - B      1.308828
 HEAT               65.498305
 GRADIENT NORM     107.463086
 DIRECTION COSINE    0.998435
 CVB(3:5) noswap html GEO-OK OPT XYZ
      Hydrazoic acid plus ethylene

  C(HETATM    1  C1  HET A   1)   0.03253954 +1  -0.10321644 +1  -0.00528530 +1
  C(HETATM    2  C2  HET A   1)   1.55429788 +1  -0.12367504 +1   0.00208079 +1
  N(HETATM    3  N1  NH3 B   2)  -0.33182610 +1   1.49967964 +1   0.00087570 +1
  N(HETATM    4  N2  NH3 B   2)   0.70019004 +1   2.17193800 +1   0.00546932 +1
  N(HETATM    5  N3  NH3 B   2)   1.85532267 +1   1.50521430 +1   0.00331206 +1
  H(HETATM    6 1H1  HET A   1)  -0.45993045 +1  -0.55241606 +1   0.87377509 +1
  H(HETATM    7 1H2  HET A   1)   2.01479755 +1  -0.59548315 +1  -0.88502244 +1
  H(HETATM    8  H3  NH3 B   2)   2.67325558 +1   2.14502832 +1  -0.01730783 +1
  H(HETATM    9 2H1  HET A   1)  -0.44759124 +1  -0.54573125 +1  -0.89537061 +1
  H(HETATM   10 2H2  HET A   1)   2.00552593 +1  -0.60205676 +1   0.89096119 +1
 
 *+*+*+*+*+*+*+*+*+*+*+*+*+*+*+*+*+*+*+*+*+*+*+*+*+*+*+*+*+*+*+*+*+*+*+*+*+*+*+*+
            BAR SHORTENED BY       1.000 PERCENT
 GRADIENT CRITERION IN FLEPO =    10.000


          FOR POINT   21 SECOND STRUCTURE
 DISTANCE A - B      1.295740
 HEAT               66.834190
 GRADIENT NORM     108.666174
 DIRECTION COSINE    0.997435
 CVB(3:5) noswap html GEO-OK OPT XYZ
      Hydrazoic acid plus ethylene

  C(HETATM    1  C1  HET A   1)   0.03192952 +1  -0.10743971 +1  -0.00636892 +1
  C(HETATM    2  C2  HET A   1)   1.55237003 +1  -0.13209964 +1   0.00308460 +1
  N(HETATM    3  N1  NH3 B   2)  -0.33021649 +1   1.49785464 +1   0.00228159 +1
  N(HETATM    4  N2  NH3 B   2)   0.70101284 +1   2.17172707 +1   0.00309020 +1
  N(HETATM    5  N3  NH3 B   2)   1.85502227 +1   1.50919209 +1   0.00777739 +1
  H(HETATM    6 1H1  HET A   1)  -0.46038347 +1  -0.55286795 +1   0.87195294 +1
  H(HETATM    7 1H2  HET A   1)   2.01551674 +1  -0.60167038 +1  -0.88583053 +1
  H(HETATM    8  H3  NH3 B   2)   2.67241528 +1   2.16023129 +1  -0.01373237 +1
  H(HETATM    9 2H1  HET A   1)  -0.44755046 +1  -0.54603637 +1  -0.89417198 +1
  H(HETATM   10 2H2  HET A   1)   2.00498314 +1  -0.60566303 +1   0.88994617 +1
 
 TIME=     0.03
  REACTANTS AND PRODUCTS SWAPPED AROUND
 *+*+*+*+*+*+*+*+*+*+*+*+*+*+*+*+*+*+*+*+*+*+*+*+*+*+*+*+*+*+*+*+*+*+*+*+*+*+*+*+
            BAR SHORTENED BY       0.000 PERCENT
 GRADIENT CRITERION IN FLEPO =    10.000


          FOR POINT   22 FIRST  STRUCTURE
 DISTANCE A - B      1.295740
 HEAT               89.047474
 GRADIENT NORM       9.274346
 DIRECTION COSINE    0.896048
 CVB(3:5) noswap html GEO-OK OPT XYZ
      Hydrazoic acid plus ethylene

  C(HETATM    1  C1  HET A   1)   0.09909614 +1  -0.67379789 +1  -0.01137753 +1
  C(HETATM    2  C2  HET A   1)   1.42675054 +1  -0.74557546 +1  -0.00139973 +1
  N(HETATM    3  N1  NH3 B   2)  -0.37496367 +1   2.19449833 +1   0.01187005 +1
  N(HETATM    4  N2  NH3 B   2)   0.76237783 +1   2.21179991 +1   0.00672900 +1
  N(HETATM    5  N3  NH3 B   2)   1.96388135 +1   1.90963340 +1   0.00806299 +1
  H(HETATM    6 1H1  HET A   1)  -0.50663247 +1  -0.63661968 +1   0.88216057 +1
  H(HETATM    7 1H2  HET A   1)   2.03807137 +1  -0.75243775 +1  -0.89158462 +1
  H(HETATM    8  H3  NH3 B   2)   2.67141592 +1   2.63447938 +1  -0.01220050 +1
  H(HETATM    9 2H1  HET A   1)  -0.49543582 +1  -0.64050262 +1  -0.91080420 +1
  H(HETATM   10 2H2  HET A   1)   2.02037861 +1  -0.77061979 +1   0.90042659 +1
 
 TIME=     0.00
  REACTANTS AND PRODUCTS SWAPPED AROUND
 *+*+*+*+*+*+*+*+*+*+*+*+*+*+*+*+*+*+*+*+*+*+*+*+*+*+*+*+*+*+*+*+*+*+*+*+*+*+*+*+
            BAR SHORTENED BY       1.000 PERCENT
 GRADIENT CRITERION IN FLEPO =     6.274


          FOR POINT   23 SECOND STRUCTURE
 DISTANCE A - B      1.282782
 HEAT               68.172250
 GRADIENT NORM     108.886790
 DIRECTION COSINE    0.870464
 CVB(3:5) noswap html GEO-OK OPT XYZ
      Hydrazoic acid plus ethylene

  C(HETATM    1  C1  HET A   1)   0.03353088 +1  -0.10925812 +1  -0.00543769 +1
  C(HETATM    2  C2  HET A   1)   1.54948760 +1  -0.13795393 +1   0.00152749 +1
  N(HETATM    3  N1  NH3 B   2)  -0.33066715 +1   1.49872323 +1   0.00193503 +1
  N(HETATM    4  N2  NH3 B   2)   0.70178395 +1   2.17276724 +1   0.00454017 +1
  N(HETATM    5  N3  NH3 B   2)   1.85857247 +1   1.51263449 +1   0.01069181 +1
  H(HETATM    6 1H1  HET A   1)  -0.46261994 +1  -0.55500864 +1   0.87383673 +1
  H(HETATM    7 1H2  HET A   1)   2.01732047 +1  -0.60345836 +1  -0.88481076 +1
  H(HETATM    8  H3  NH3 B   2)   2.67000575 +1   2.17658943 +1  -0.01251483 +1
  H(HETATM    9 2H1  HET A   1)  -0.44982229 +1  -0.54856503 +1  -0.89584297 +1
  H(HETATM   10 2H2  HET A   1)   2.00636192 +1  -0.60902935 +1   0.89161318 +1
 
 *+*+*+*+*+*+*+*+*+*+*+*+*+*+*+*+*+*+*+*+*+*+*+*+*+*+*+*+*+*+*+*+*+*+*+*+*+*+*+*+
            BAR SHORTENED BY       1.000 PERCENT
 GRADIENT CRITERION IN FLEPO =    10.000


          FOR POINT   24 SECOND STRUCTURE
 DISTANCE A - B      1.269955
 HEAT               69.586006
 GRADIENT NORM     112.094743
 DIRECTION COSINE    0.998671
 CVB(3:5) noswap html GEO-OK OPT XYZ
      Hydrazoic acid plus ethylene

  C(HETATM    1  C1  HET A   1)   0.03418654 +1  -0.11490352 +1  -0.00549708 +1
  C(HETATM    2  C2  HET A   1)   1.54826023 +1  -0.14403015 +1   0.00149822 +1
  N(HETATM    3  N1  NH3 B   2)  -0.33111011 +1   1.50568098 +1   0.00203438 +1
  N(HETATM    4  N2  NH3 B   2)   0.70238989 +1   2.17315756 +1   0.00456206 +1
  N(HETATM    5  N3  NH3 B   2)   1.85962556 +1   1.51660447 +1   0.01066552 +1
  H(HETATM    6 1H1  HET A   1)  -0.46306006 +1  -0.55582475 +1   0.87391997 +1
  H(HETATM    7 1H2  HET A   1)   2.01752798 +1  -0.60494815 +1  -0.88487850 +1
  H(HETATM    8  H3  NH3 B   2)   2.67001985 +1   2.18116832 +1  -0.01251168 +1
  H(HETATM    9 2H1  HET A   1)  -0.45027842 +1  -0.54948440 +1  -0.89599258 +1
  H(HETATM   10 2H2  HET A   1)   2.00650208 +1  -0.61064525 +1   0.89170131 +1
 
 *+*+*+*+*+*+*+*+*+*+*+*+*+*+*+*+*+*+*+*+*+*+*+*+*+*+*+*+*+*+*+*+*+*+*+*+*+*+*+*+
            BAR SHORTENED BY       1.000 PERCENT
 GRADIENT CRITERION IN FLEPO =    10.000


          FOR POINT   25 SECOND STRUCTURE
 DISTANCE A - B      1.257255
 HEAT               71.023724
 GRADIENT NORM     115.075369
 DIRECTION COSINE    0.998891
 CVB(3:5) noswap html GEO-OK OPT XYZ
      Hydrazoic acid plus ethylene

  C(HETATM    1  C1  HET A   1)   0.03483563 +1  -0.12049246 +1  -0.00555589 +1
  C(HETATM    2  C2  HET A   1)   1.54704514 +1  -0.15004560 +1   0.00146924 +1
  N(HETATM    3  N1  NH3 B   2)  -0.33154865 +1   1.51256915 +1   0.00213274 +1
  N(HETATM    4  N2  NH3 B   2)   0.70298977 +1   2.17354399 +1   0.00458373 +1
  N(HETATM    5  N3  NH3 B   2)   1.86066812 +1   1.52053476 +1   0.01063949 +1
  H(HETATM    6 1H1  HET A   1)  -0.46349579 +1  -0.55663270 +1   0.87400237 +1
  H(HETATM    7 1H2  HET A   1)   2.01773341 +1  -0.60642305 +1  -0.88494556 +1
  H(HETATM    8  H3  NH3 B   2)   2.67003381 +1   2.18570144 +1  -0.01250857 +1
  H(HETATM    9 2H1  HET A   1)  -0.45073000 +1  -0.55039459 +1  -0.89614070 +1
  H(HETATM   10 2H2  HET A   1)   2.00664085 +1  -0.61224500 +1   0.89178857 +1
 
 TIME=     0.02
  REACTANTS AND PRODUCTS SWAPPED AROUND
 *+*+*+*+*+*+*+*+*+*+*+*+*+*+*+*+*+*+*+*+*+*+*+*+*+*+*+*+*+*+*+*+*+*+*+*+*+*+*+*+
            BAR SHORTENED BY       0.000 PERCENT
 GRADIENT CRITERION IN FLEPO =    10.000


          FOR POINT   26 FIRST  STRUCTURE
 DISTANCE A - B      1.257255
 HEAT               88.993136
 GRADIENT NORM       9.274346
 DIRECTION COSINE    0.886663
 CVB(3:5) noswap html GEO-OK OPT XYZ
      Hydrazoic acid plus ethylene

  C(HETATM    1  C1  HET A   1)   0.09909614 +1  -0.67379789 +1  -0.01137753 +1
  C(HETATM    2  C2  HET A   1)   1.42675054 +1  -0.74557546 +1  -0.00139973 +1
  N(HETATM    3  N1  NH3 B   2)  -0.37496367 +1   2.19449833 +1   0.01187005 +1
  N(HETATM    4  N2  NH3 B   2)   0.76237783 +1   2.21179991 +1   0.00672900 +1
  N(HETATM    5  N3  NH3 B   2)   1.96388135 +1   1.90963340 +1   0.00806299 +1
  H(HETATM    6 1H1  HET A   1)  -0.50663247 +1  -0.63661968 +1   0.88216057 +1
  H(HETATM    7 1H2  HET A   1)   2.03807137 +1  -0.75243775 +1  -0.89158462 +1
  H(HETATM    8  H3  NH3 B   2)   2.67141592 +1   2.63447938 +1  -0.01220050 +1
  H(HETATM    9 2H1  HET A   1)  -0.49543582 +1  -0.64050262 +1  -0.91080420 +1
  H(HETATM   10 2H2  HET A   1)   2.02037861 +1  -0.77061979 +1   0.90042659 +1
 
 TIME=     0.00
  REACTANTS AND PRODUCTS SWAPPED AROUND
 *+*+*+*+*+*+*+*+*+*+*+*+*+*+*+*+*+*+*+*+*+*+*+*+*+*+*+*+*+*+*+*+*+*+*+*+*+*+*+*+
            BAR SHORTENED BY       1.000 PERCENT
 GRADIENT CRITERION IN FLEPO =     6.274


          FOR POINT   27 SECOND STRUCTURE
 DISTANCE A - B      1.244683
 HEAT               72.359940
 GRADIENT NORM     114.022973
 DIRECTION COSINE    0.893642
 CVB(3:5) noswap html GEO-OK OPT XYZ
      Hydrazoic acid plus ethylene

  C(HETATM    1  C1  HET A   1)   0.03530657 +1  -0.12264790 +1  -0.00640711 +1
  C(HETATM    2  C2  HET A   1)   1.54584820 +1  -0.16059874 +1   0.00115920 +1
  N(HETATM    3  N1  NH3 B   2)  -0.32805490 +1   1.50469917 +1   0.00419374 +1
  N(HETATM    4  N2  NH3 B   2)   0.70282454 +1   2.17474653 +1   0.00656235 +1
  N(HETATM    5  N3  NH3 B   2)   1.86204919 +1   1.53451902 +1   0.01478143 +1
  H(HETATM    6 1H1  HET A   1)  -0.46464852 +1  -0.55562102 +1   0.87399397 +1
  H(HETATM    7 1H2  HET A   1)   2.01804861 +1  -0.60843003 +1  -0.88459569 +1
  H(HETATM    8  H3  NH3 B   2)   2.66612203 +1   2.20070645 +1  -0.01083097 +1
  H(HETATM    9 2H1  HET A   1)  -0.45180924 +1  -0.55034997 +1  -0.89500486 +1
  H(HETATM   10 2H2  HET A   1)   2.00576441 +1  -0.62048484 +1   0.89287435 +1
 
 *+*+*+*+*+*+*+*+*+*+*+*+*+*+*+*+*+*+*+*+*+*+*+*+*+*+*+*+*+*+*+*+*+*+*+*+*+*+*+*+
            BAR SHORTENED BY       1.000 PERCENT
 GRADIENT CRITERION IN FLEPO =    10.000


          FOR POINT   28 SECOND STRUCTURE
 DISTANCE A - B      1.232236
 HEAT               73.762156
 GRADIENT NORM     114.495964
 DIRECTION COSINE    0.994200
 CVB(3:5) noswap html GEO-OK OPT XYZ
      Hydrazoic acid plus ethylene

  C(HETATM    1  C1  HET A   1)   0.03796214 +1  -0.12798380 +1  -0.00509881 +1
  C(HETATM    2  C2  HET A   1)   1.54273594 +1  -0.16945959 +1   0.00290231 +1
  N(HETATM    3  N1  NH3 B   2)  -0.32276767 +1   1.50640804 +1   0.00352673 +1
  N(HETATM    4  N2  NH3 B   2)   0.70402830 +1   2.17699598 +1   0.00759482 +1
  N(HETATM    5  N3  NH3 B   2)   1.86725156 +1   1.53675671 +1   0.01384356 +1
  H(HETATM    6 1H1  HET A   1)  -0.46673612 +1  -0.55800696 +1   0.87534849 +1
  H(HETATM    7 1H2  HET A   1)   2.01993944 +1  -0.61182206 +1  -0.88627357 +1
  H(HETATM    8  H3  NH3 B   2)   2.66728738 +1   2.20735913 +1  -0.01288293 +1
  H(HETATM    9 2H1  HET A   1)  -0.45414835 +1  -0.55304311 +1  -0.89661511 +1
  H(HETATM   10 2H2  HET A   1)   2.00661877 +1  -0.62277804 +1   0.89342561 +1
 
 *+*+*+*+*+*+*+*+*+*+*+*+*+*+*+*+*+*+*+*+*+*+*+*+*+*+*+*+*+*+*+*+*+*+*+*+*+*+*+*+
            BAR SHORTENED BY       1.000 PERCENT
 GRADIENT CRITERION IN FLEPO =    10.000


          FOR POINT   29 SECOND STRUCTURE
 DISTANCE A - B      1.219913
 HEAT               75.150407
 GRADIENT NORM     114.223601
 DIRECTION COSINE    0.996899
 CVB(3:5) noswap html GEO-OK OPT XYZ
      Hydrazoic acid plus ethylene

  C(HETATM    1  C1  HET A   1)   0.03942901 +1  -0.13254675 +1  -0.00487734 +1
  C(HETATM    2  C2  HET A   1)   1.54116356 +1  -0.17793387 +1   0.00259468 +1
  N(HETATM    3  N1  NH3 B   2)  -0.32433888 +1   1.50942596 +1   0.00343046 +1
  N(HETATM    4  N2  NH3 B   2)   0.70593257 +1   2.17845948 +1   0.00709033 +1
  N(HETATM    5  N3  NH3 B   2)   1.86714561 +1   1.54188226 +1   0.01382146 +1
  H(HETATM    6 1H1  HET A   1)  -0.46777751 +1  -0.55931327 +1   0.87576711 +1
  H(HETATM    7 1H2  HET A   1)   2.02068241 +1  -0.61411168 +1  -0.88714344 +1
  H(HETATM    8  H3  NH3 B   2)   2.66845036 +1   2.21285428 +1  -0.01425146 +1
  H(HETATM    9 2H1  HET A   1)  -0.45521005 +1  -0.55430086 +1  -0.89695245 +1
  H(HETATM   10 2H2  HET A   1)   2.00744225 +1  -0.62497840 +1   0.89418177 +1
 
 TIME=     0.03
  REACTANTS AND PRODUCTS SWAPPED AROUND
 *+*+*+*+*+*+*+*+*+*+*+*+*+*+*+*+*+*+*+*+*+*+*+*+*+*+*+*+*+*+*+*+*+*+*+*+*+*+*+*+
            BAR SHORTENED BY       0.000 PERCENT
 GRADIENT CRITERION IN FLEPO =    10.000


          FOR POINT   30 FIRST  STRUCTURE
 DISTANCE A - B      1.219913
 HEAT               89.047474
 GRADIENT NORM       9.230052
 DIRECTION COSINE    0.876919
 CVB(3:5) noswap html GEO-OK OPT XYZ
      Hydrazoic acid plus ethylene

  C(HETATM    1  C1  HET A   1)   0.09909614 +1  -0.67379789 +1  -0.01137753 +1
  C(HETATM    2  C2  HET A   1)   1.42675054 +1  -0.74557546 +1  -0.00139973 +1
  N(HETATM    3  N1  NH3 B   2)  -0.37496367 +1   2.19449833 +1   0.01187005 +1
  N(HETATM    4  N2  NH3 B   2)   0.76237783 +1   2.21179991 +1   0.00672900 +1
  N(HETATM    5  N3  NH3 B   2)   1.96388135 +1   1.90963340 +1   0.00806299 +1
  H(HETATM    6 1H1  HET A   1)  -0.50663247 +1  -0.63661968 +1   0.88216057 +1
  H(HETATM    7 1H2  HET A   1)   2.03807137 +1  -0.75243775 +1  -0.89158462 +1
  H(HETATM    8  H3  NH3 B   2)   2.67141592 +1   2.63447938 +1  -0.01220050 +1
  H(HETATM    9 2H1  HET A   1)  -0.49543582 +1  -0.64050262 +1  -0.91080420 +1
  H(HETATM   10 2H2  HET A   1)   2.02037861 +1  -0.77061979 +1   0.90042659 +1
 
 TIME=     0.02
  REACTANTS AND PRODUCTS SWAPPED AROUND
 *+*+*+*+*+*+*+*+*+*+*+*+*+*+*+*+*+*+*+*+*+*+*+*+*+*+*+*+*+*+*+*+*+*+*+*+*+*+*+*+
            BAR SHORTENED BY       1.000 PERCENT
 GRADIENT CRITERION IN FLEPO =     6.230


          FOR POINT   31 SECOND STRUCTURE
 DISTANCE A - B      1.207714
 HEAT               76.552844
 GRADIENT NORM     115.944539
 DIRECTION COSINE    0.884616
 CVB(3:5) noswap html GEO-OK OPT XYZ
      Hydrazoic acid plus ethylene

  C(HETATM    1  C1  HET A   1)   0.04002568 +1  -0.13795926 +1  -0.00494234 +1
  C(HETATM    2  C2  HET A   1)   1.54001943 +1  -0.18361028 +1   0.00255474 +1
  N(HETATM    3  N1  NH3 B   2)  -0.32484513 +1   1.51627669 +1   0.00351486 +1
  N(HETATM    4  N2  NH3 B   2)   0.70649702 +1   2.17879289 +1   0.00708672 +1
  N(HETATM    5  N3  NH3 B   2)   1.86811296 +1   1.54555977 +1   0.01376388 +1
  H(HETATM    6 1H1  HET A   1)  -0.46816606 +1  -0.56008634 +1   0.87583104 +1
  H(HETATM    7 1H2  HET A   1)   2.02085630 +1  -0.61549494 +1  -0.88718785 +1
  H(HETATM    8  H3  NH3 B   2)   2.66848001 +1   2.21707053 +1  -0.01423095 +1
  H(HETATM    9 2H1  HET A   1)  -0.45561231 +1  -0.55516288 +1  -0.89709096 +1
  H(HETATM   10 2H2  HET A   1)   2.00757162 +1  -0.62643482 +1   0.89424422 +1
 
 *+*+*+*+*+*+*+*+*+*+*+*+*+*+*+*+*+*+*+*+*+*+*+*+*+*+*+*+*+*+*+*+*+*+*+*+*+*+*+*+
            BAR SHORTENED BY       1.000 PERCENT
 GRADIENT CRITERION IN FLEPO =    10.000


          FOR POINT   32 SECOND STRUCTURE
 DISTANCE A - B      1.195637
 HEAT               77.958610
 GRADIENT NORM     117.502758
 DIRECTION COSINE    0.999085
 CVB(3:5) noswap html GEO-OK OPT XYZ
      Hydrazoic acid plus ethylene

  C(HETATM    1  C1  HET A   1)   0.04061639 +1  -0.14331765 +1  -0.00500669 +1
  C(HETATM    2  C2  HET A   1)   1.53888674 +1  -0.18922994 +1   0.00251519 +1
  N(HETATM    3  N1  NH3 B   2)  -0.32534631 +1   1.52305890 +1   0.00359841 +1
  N(HETATM    4  N2  NH3 B   2)   0.70705583 +1   2.17912296 +1   0.00708314 +1
  N(HETATM    5  N3  NH3 B   2)   1.86907065 +1   1.54920051 +1   0.01370687 +1
  H(HETATM    6 1H1  HET A   1)  -0.46855072 +1  -0.56085167 +1   0.87589434 +1
  H(HETATM    7 1H2  HET A   1)   2.02102845 +1  -0.61686436 +1  -0.88723182 +1
  H(HETATM    8  H3  NH3 B   2)   2.66850937 +1   2.22124461 +1  -0.01421065 +1
  H(HETATM    9 2H1  HET A   1)  -0.45601055 +1  -0.55601627 +1  -0.89722810 +1
  H(HETATM   10 2H2  HET A   1)   2.00769969 +1  -0.62787667 +1   0.89430605 +1
 
 *+*+*+*+*+*+*+*+*+*+*+*+*+*+*+*+*+*+*+*+*+*+*+*+*+*+*+*+*+*+*+*+*+*+*+*+*+*+*+*+
            BAR SHORTENED BY       1.000 PERCENT
 GRADIENT CRITERION IN FLEPO =    10.000


          FOR POINT   33 SECOND STRUCTURE
 DISTANCE A - B      1.183681
 HEAT               79.307379
 GRADIENT NORM     115.348637
 DIRECTION COSINE    0.995172
 CVB(3:5) noswap html GEO-OK OPT XYZ
      Hydrazoic acid plus ethylene

  C(HETATM    1  C1  HET A   1)   0.04265832 +1  -0.14684649 +1  -0.00452432 +1
  C(HETATM    2  C2  HET A   1)   1.53555918 +1  -0.20005505 +1   0.00275843 +1
  N(HETATM    3  N1  NH3 B   2)  -0.32627037 +1   1.52407558 +1   0.00361542 +1
  N(HETATM    4  N2  NH3 B   2)   0.70854404 +1   2.18211819 +1   0.00709083 +1
  N(HETATM    5  N3  NH3 B   2)   1.86972923 +1   1.55242330 +1   0.01300789 +1
  H(HETATM    6 1H1  HET A   1)  -0.47039608 +1  -0.56191236 +1   0.87663048 +1
  H(HETATM    7 1H2  HET A   1)   2.02197295 +1  -0.61949594 +1  -0.88820447 +1
  H(HETATM    8  H3  NH3 B   2)   2.66900730 +1   2.22772722 +1  -0.00291899 +1
  H(HETATM    9 2H1  HET A   1)  -0.45724456 +1  -0.55693250 +1  -0.89769016 +1
  H(HETATM   10 2H2  HET A   1)   2.00974216 +1  -0.63126830 +1   0.89680688 +1
 
 TIME=     0.02
  REACTANTS AND PRODUCTS SWAPPED AROUND
 *+*+*+*+*+*+*+*+*+*+*+*+*+*+*+*+*+*+*+*+*+*+*+*+*+*+*+*+*+*+*+*+*+*+*+*+*+*+*+*+
            BAR SHORTENED BY       0.000 PERCENT
 GRADIENT CRITERION IN FLEPO =    10.000


          FOR POINT   34 FIRST  STRUCTURE
 DISTANCE A - B      1.183681
 HEAT               89.047474
 GRADIENT NORM       9.230052
 DIRECTION COSINE    0.871642
 CVB(3:5) noswap html GEO-OK OPT XYZ
      Hydrazoic acid plus ethylene

  C(HETATM    1  C1  HET A   1)   0.09909614 +1  -0.67379789 +1  -0.01137753 +1
  C(HETATM    2  C2  HET A   1)   1.42675054 +1  -0.74557546 +1  -0.00139973 +1
  N(HETATM    3  N1  NH3 B   2)  -0.37496367 +1   2.19449833 +1   0.01187005 +1
  N(HETATM    4  N2  NH3 B   2)   0.76237783 +1   2.21179991 +1   0.00672900 +1
  N(HETATM    5  N3  NH3 B   2)   1.96388135 +1   1.90963340 +1   0.00806299 +1
  H(HETATM    6 1H1  HET A   1)  -0.50663247 +1  -0.63661968 +1   0.88216057 +1
  H(HETATM    7 1H2  HET A   1)   2.03807137 +1  -0.75243775 +1  -0.89158462 +1
  H(HETATM    8  H3  NH3 B   2)   2.67141592 +1   2.63447938 +1  -0.01220050 +1
  H(HETATM    9 2H1  HET A   1)  -0.49543582 +1  -0.64050262 +1  -0.91080420 +1
  H(HETATM   10 2H2  HET A   1)   2.02037861 +1  -0.77061979 +1   0.90042659 +1
 
 TIME=     0.00
  REACTANTS AND PRODUCTS SWAPPED AROUND
 *+*+*+*+*+*+*+*+*+*+*+*+*+*+*+*+*+*+*+*+*+*+*+*+*+*+*+*+*+*+*+*+*+*+*+*+*+*+*+*+
            BAR SHORTENED BY       1.000 PERCENT
 GRADIENT CRITERION IN FLEPO =     6.230


          FOR POINT   35 SECOND STRUCTURE
 DISTANCE A - B      1.171844
 HEAT               80.661131
 GRADIENT NORM     116.236895
 DIRECTION COSINE    0.885030
 CVB(3:5) noswap html GEO-OK OPT XYZ
      Hydrazoic acid plus ethylene

  C(HETATM    1  C1  HET A   1)   0.04340078 +1  -0.15226920 +1  -0.00466749 +1
  C(HETATM    2  C2  HET A   1)   1.53416148 +1  -0.20535589 +1   0.00281864 +1
  N(HETATM    3  N1  NH3 B   2)  -0.32370476 +1   1.52967168 +1   0.00355679 +1
  N(HETATM    4  N2  NH3 B   2)   0.70912594 +1   2.18257532 +1   0.00715338 +1
  N(HETATM    5  N3  NH3 B   2)   1.87061854 +1   1.55656150 +1   0.01269731 +1
  H(HETATM    6 1H1  HET A   1)  -0.47094707 +1  -0.56248015 +1   0.87671728 +1
  H(HETATM    7 1H2  HET A   1)   2.02227793 +1  -0.62108471 +1  -0.88838525 +1
  H(HETATM    8  H3  NH3 B   2)   2.66901243 +1   2.23270863 +1  -0.00447657 +1
  H(HETATM    9 2H1  HET A   1)  -0.46357421 +1  -0.55763605 +1  -0.89781696 +1
  H(HETATM   10 2H2  HET A   1)   2.00984337 +1  -0.63294295 +1   0.89698510 +1
 
 *+*+*+*+*+*+*+*+*+*+*+*+*+*+*+*+*+*+*+*+*+*+*+*+*+*+*+*+*+*+*+*+*+*+*+*+*+*+*+*+
            BAR SHORTENED BY       1.000 PERCENT
 GRADIENT CRITERION IN FLEPO =    10.000


          FOR POINT   36 SECOND STRUCTURE
 DISTANCE A - B      1.160125
 HEAT               81.983307
 GRADIENT NORM     114.855340
 DIRECTION COSINE    0.991600
 CVB(3:5) noswap html GEO-OK OPT XYZ
      Hydrazoic acid plus ethylene

  C(HETATM    1  C1  HET A   1)   0.04484349 +1  -0.15511911 +1  -0.00486290 +1
  C(HETATM    2  C2  HET A   1)   1.53215173 +1  -0.21286146 +1   0.00320943 +1
  N(HETATM    3  N1  NH3 B   2)  -0.32435412 +1   1.52919633 +1   0.00318957 +1
  N(HETATM    4  N2  NH3 B   2)   0.71053717 +1   2.18393578 +1   0.00715219 +1
  N(HETATM    5  N3  NH3 B   2)   1.87168559 +1   1.57206506 +1   0.01187416 +1
  H(HETATM    6 1H1  HET A   1)  -0.47207346 +1  -0.56011755 +1   0.87712722 +1
  H(HETATM    7 1H2  HET A   1)   2.02298280 +1  -0.62299705 +1  -0.88910591 +1
  H(HETATM    8  H3  NH3 B   2)   2.66937848 +1   2.23846007 +1  -0.00909287 +1
  H(HETATM    9 2H1  HET A   1)  -0.46189371 +1  -0.55699921 +1  -0.89716667 +1
  H(HETATM   10 2H2  HET A   1)   2.01005691 +1  -0.63473644 +1   0.89766051 +1
 
 *+*+*+*+*+*+*+*+*+*+*+*+*+*+*+*+*+*+*+*+*+*+*+*+*+*+*+*+*+*+*+*+*+*+*+*+*+*+*+*+
            BAR SHORTENED BY       1.000 PERCENT
 GRADIENT CRITERION IN FLEPO =    10.000


          FOR POINT   37 SECOND STRUCTURE
 DISTANCE A - B      1.148524
 HEAT               83.237001
 GRADIENT NORM     111.587116
 DIRECTION COSINE    0.990425
 CVB(3:5) noswap html GEO-OK OPT XYZ
      Hydrazoic acid plus ethylene

  C(HETATM    1  C1  HET A   1)   0.04724505 +1  -0.16344205 +1  -0.00455328 +1
  C(HETATM    2  C2  HET A   1)   1.52939541 +1  -0.22956862 +1   0.00288662 +1
  N(HETATM    3  N1  NH3 B   2)  -0.32166528 +1   1.52111285 +1   0.00409860 +1
  N(HETATM    4  N2  NH3 B   2)   0.70994207 +1   2.18681038 +1   0.00697989 +1
  N(HETATM    5  N3  NH3 B   2)   1.87407065 +1   1.57369610 +1   0.00421275 +1
  H(HETATM    6 1H1  HET A   1)  -0.47385039 +1  -0.56257421 +1   0.87755820 +1
  H(HETATM    7 1H2  HET A   1)   2.02324849 +1  -0.62594926 +1  -0.89025497 +1
  H(HETATM    8  H3  NH3 B   2)   2.67160691 +1   2.24834528 +1  -0.01464383 +1
  H(HETATM    9 2H1  HET A   1)  -0.46089026 +1  -0.55637609 +1  -0.89765449 +1
  H(HETATM   10 2H2  HET A   1)   2.01043650 +1  -0.63652598 +1   0.89798345 +1
 
 TIME=     0.03
  REACTANTS AND PRODUCTS SWAPPED AROUND
 *+*+*+*+*+*+*+*+*+*+*+*+*+*+*+*+*+*+*+*+*+*+*+*+*+*+*+*+*+*+*+*+*+*+*+*+*+*+*+*+
            BAR SHORTENED BY       0.000 PERCENT
 GRADIENT CRITERION IN FLEPO =    10.000


          FOR POINT   38 FIRST  STRUCTURE
 DISTANCE A - B      1.148524
 HEAT               89.020227
 GRADIENT NORM       9.256001
 DIRECTION COSINE    0.861728
 CVB(3:5) noswap html GEO-OK OPT XYZ
      Hydrazoic acid plus ethylene

  C(HETATM    1  C1  HET A   1)   0.09909614 +1  -0.67379789 +1  -0.01137753 +1
  C(HETATM    2  C2  HET A   1)   1.42675054 +1  -0.74557546 +1  -0.00139973 +1
  N(HETATM    3  N1  NH3 B   2)  -0.37496367 +1   2.19449833 +1   0.01187005 +1
  N(HETATM    4  N2  NH3 B   2)   0.76237783 +1   2.21179991 +1   0.00672900 +1
  N(HETATM    5  N3  NH3 B   2)   1.96388135 +1   1.90963340 +1   0.00806299 +1
  H(HETATM    6 1H1  HET A   1)  -0.50663247 +1  -0.63661968 +1   0.88216057 +1
  H(HETATM    7 1H2  HET A   1)   2.03807137 +1  -0.75243775 +1  -0.89158462 +1
  H(HETATM    8  H3  NH3 B   2)   2.67141592 +1   2.63447938 +1  -0.01220050 +1
  H(HETATM    9 2H1  HET A   1)  -0.49543582 +1  -0.64050262 +1  -0.91080420 +1
  H(HETATM   10 2H2  HET A   1)   2.02037861 +1  -0.77061979 +1   0.90042659 +1
 
 TIME=     0.00
  REACTANTS AND PRODUCTS SWAPPED AROUND
 *+*+*+*+*+*+*+*+*+*+*+*+*+*+*+*+*+*+*+*+*+*+*+*+*+*+*+*+*+*+*+*+*+*+*+*+*+*+*+*+
            BAR SHORTENED BY       1.000 PERCENT
 GRADIENT CRITERION IN FLEPO =     6.256


          FOR POINT   39 SECOND STRUCTURE
 DISTANCE A - B      1.137039
 HEAT               84.472213
 GRADIENT NORM     111.208692
 DIRECTION COSINE    0.880804
 CVB(3:5) noswap html GEO-OK OPT XYZ
      Hydrazoic acid plus ethylene

  C(HETATM    1  C1  HET A   1)   0.04702090 +1  -0.16795891 +1  -0.00542496 +1
  C(HETATM    2  C2  HET A   1)   1.52639923 +1  -0.23213503 +1   0.00151725 +1
  N(HETATM    3  N1  NH3 B   2)  -0.32012124 +1   1.52626013 +1   0.00487780 +1
  N(HETATM    4  N2  NH3 B   2)   0.70923356 +1   2.18488300 +1   0.00582693 +1
  N(HETATM    5  N3  NH3 B   2)   1.87499187 +1   1.57827384 +1   0.00721258 +1
  H(HETATM    6 1H1  HET A   1)  -0.47473384 +1  -0.56379656 +1   0.87809616 +1
  H(HETATM    7 1H2  HET A   1)   2.02443990 +1  -0.62866609 +1  -0.89169744 +1
  H(HETATM    8  H3  NH3 B   2)   2.67091429 +1   2.25620599 +1  -0.01269816 +1
  H(HETATM    9 2H1  HET A   1)  -0.46701116 +1  -0.56015074 +1  -0.90122530 +1
  H(HETATM   10 2H2  HET A   1)   2.01135977 +1  -0.63850351 +1   0.89894554 +1
 
 *+*+*+*+*+*+*+*+*+*+*+*+*+*+*+*+*+*+*+*+*+*+*+*+*+*+*+*+*+*+*+*+*+*+*+*+*+*+*+*+
            BAR SHORTENED BY       1.000 PERCENT
 GRADIENT CRITERION IN FLEPO =    10.000


          FOR POINT   40 SECOND STRUCTURE
 DISTANCE A - B      1.125669
 HEAT               85.734961
 GRADIENT NORM     111.269647
 DIRECTION COSINE    0.999110
 CVB(3:5) noswap html GEO-OK OPT XYZ
      Hydrazoic acid plus ethylene

  C(HETATM    1  C1  HET A   1)   0.04754165 +1  -0.17301730 +1  -0.00548449 +1
  C(HETATM    2  C2  HET A   1)   1.52540275 +1  -0.23726943 +1   0.00148808 +1
  N(HETATM    3  N1  NH3 B   2)  -0.32066966 +1   1.53294251 +1   0.00494772 +1
  N(HETATM    4  N2  NH3 B   2)   0.70976500 +1   2.18515216 +1   0.00583595 +1
  N(HETATM    5  N3  NH3 B   2)   1.87588077 +1   1.58158744 +1   0.00722109 +1
  H(HETATM    6 1H1  HET A   1)  -0.47505283 +1  -0.56452479 +1   0.87813680 +1
  H(HETATM    7 1H2  HET A   1)   2.02457622 +1  -0.62990381 +1  -0.89169631 +1
  H(HETATM    8  H3  NH3 B   2)   2.67091930 +1   2.25998872 +1  -0.01269318 +1
  H(HETATM    9 2H1  HET A   1)  -0.46729541 +1  -0.56095426 +1  -0.90132109 +1
  H(HETATM   10 2H2  HET A   1)   2.01144996 +1  -0.63982468 +1   0.89896035 +1
 
 *+*+*+*+*+*+*+*+*+*+*+*+*+*+*+*+*+*+*+*+*+*+*+*+*+*+*+*+*+*+*+*+*+*+*+*+*+*+*+*+
            BAR SHORTENED BY       1.000 PERCENT
 GRADIENT CRITERION IN FLEPO =    10.000


          FOR POINT   41 SECOND STRUCTURE
 DISTANCE A - B      1.114412
 HEAT               86.983143
 GRADIENT NORM     111.242303
 DIRECTION COSINE    0.999161
 CVB(3:5) noswap html GEO-OK OPT XYZ
      Hydrazoic acid plus ethylene

  C(HETATM    1  C1  HET A   1)   0.04805720 +1  -0.17802510 +1  -0.00554342 +1
  C(HETATM    2  C2  HET A   1)   1.52441622 +1  -0.24235249 +1   0.00145920 +1
  N(HETATM    3  N1  NH3 B   2)  -0.32121260 +1   1.53955807 +1   0.00501694 +1
  N(HETATM    4  N2  NH3 B   2)   0.71029113 +1   2.18541864 +1   0.00584488 +1
  N(HETATM    5  N3  NH3 B   2)   1.87676077 +1   1.58486790 +1   0.00722951 +1
  H(HETATM    6 1H1  HET A   1)  -0.47536863 +1  -0.56524574 +1   0.87817704 +1
  H(HETATM    7 1H2  HET A   1)   2.02471117 +1  -0.63112915 +1  -0.89169519 +1
  H(HETATM    8  H3  NH3 B   2)   2.67092427 +1   2.26373363 +1  -0.01268826 +1
  H(HETATM    9 2H1  HET A   1)  -0.46757681 +1  -0.56174974 +1  -0.90141592 +1
  H(HETATM   10 2H2  HET A   1)   2.01153925 +1  -0.64113263 +1   0.89897501 +1
 
 TIME=     0.02
  REACTANTS AND PRODUCTS SWAPPED AROUND
 *+*+*+*+*+*+*+*+*+*+*+*+*+*+*+*+*+*+*+*+*+*+*+*+*+*+*+*+*+*+*+*+*+*+*+*+*+*+*+*+
            BAR SHORTENED BY       0.000 PERCENT
 GRADIENT CRITERION IN FLEPO =    10.000


          FOR POINT   42 FIRST  STRUCTURE
 DISTANCE A - B      1.114412
 HEAT               89.020227
 GRADIENT NORM       9.274346
 DIRECTION COSINE    0.894772
 CVB(3:5) noswap html GEO-OK OPT XYZ
      Hydrazoic acid plus ethylene

  C(HETATM    1  C1  HET A   1)   0.09909614 +1  -0.67379789 +1  -0.01137753 +1
  C(HETATM    2  C2  HET A   1)   1.42675054 +1  -0.74557546 +1  -0.00139973 +1
  N(HETATM    3  N1  NH3 B   2)  -0.37496367 +1   2.19449833 +1   0.01187005 +1
  N(HETATM    4  N2  NH3 B   2)   0.76237783 +1   2.21179991 +1   0.00672900 +1
  N(HETATM    5  N3  NH3 B   2)   1.96388135 +1   1.90963340 +1   0.00806299 +1
  H(HETATM    6 1H1  HET A   1)  -0.50663247 +1  -0.63661968 +1   0.88216057 +1
  H(HETATM    7 1H2  HET A   1)   2.03807137 +1  -0.75243775 +1  -0.89158462 +1
  H(HETATM    8  H3  NH3 B   2)   2.67141592 +1   2.63447938 +1  -0.01220050 +1
  H(HETATM    9 2H1  HET A   1)  -0.49543582 +1  -0.64050262 +1  -0.91080420 +1
  H(HETATM   10 2H2  HET A   1)   2.02037861 +1  -0.77061979 +1   0.90042659 +1
 
 TIME=     0.00
  REACTANTS AND PRODUCTS SWAPPED AROUND
 *+*+*+*+*+*+*+*+*+*+*+*+*+*+*+*+*+*+*+*+*+*+*+*+*+*+*+*+*+*+*+*+*+*+*+*+*+*+*+*+
            BAR SHORTENED BY       1.000 PERCENT
 GRADIENT CRITERION IN FLEPO =     6.274


          FOR POINT   43 SECOND STRUCTURE
 DISTANCE A - B      1.103268
 HEAT               88.151708
 GRADIENT NORM     108.239532
 DIRECTION COSINE    0.881867
 CVB(3:5) noswap html GEO-OK OPT XYZ
      Hydrazoic acid plus ethylene

  C(HETATM    1  C1  HET A   1)   0.05027403 +1  -0.18095849 +1  -0.00557542 +1
  C(HETATM    2  C2  HET A   1)   1.52143556 +1  -0.25348470 +1   0.00193088 +1
  N(HETATM    3  N1  NH3 B   2)  -0.32207608 +1   1.54076040 +1   0.00427750 +1
  N(HETATM    4  N2  NH3 B   2)   0.71194915 +1   2.18751078 +1   0.00619536 +1
  N(HETATM    5  N3  NH3 B   2)   1.87801332 +1   1.59016074 +1   0.01313206 +1
  H(HETATM    6 1H1  HET A   1)  -0.47716375 +1  -0.56229592 +1   0.87912756 +1
  H(HETATM    7 1H2  HET A   1)   2.02512034 +1  -0.63212613 +1  -0.89217738 +1
  H(HETATM    8  H3  NH3 B   2)   2.67036303 +1   2.27125144 +1  -0.01192222 +1
  H(HETATM    9 2H1  HET A   1)  -0.46268923 +1  -0.55668302 +1  -0.89549362 +1
  H(HETATM   10 2H2  HET A   1)   2.01210913 +1  -0.64194225 +1   0.90024507 +1
 
 *+*+*+*+*+*+*+*+*+*+*+*+*+*+*+*+*+*+*+*+*+*+*+*+*+*+*+*+*+*+*+*+*+*+*+*+*+*+*+*+
            BAR SHORTENED BY       1.000 PERCENT
 GRADIENT CRITERION IN FLEPO =    10.000


          FOR POINT   44 SECOND STRUCTURE
 DISTANCE A - B      1.092235
 HEAT               89.338404
 GRADIENT NORM     107.628408
 DIRECTION COSINE    0.999176
 CVB(3:5) noswap html GEO-OK OPT XYZ
      Hydrazoic acid plus ethylene

  C(HETATM    1  C1  HET A   1)   0.05076225 +1  -0.18588688 +1  -0.00563344 +1
  C(HETATM    2  C2  HET A   1)   1.52048871 +1  -0.25840560 +1   0.00189757 +1
  N(HETATM    3  N1  NH3 B   2)  -0.32260496 +1   1.54729778 +1   0.00435343 +1
  N(HETATM    4  N2  NH3 B   2)   0.71245343 +1   2.18775367 +1   0.00620069 +1
  N(HETATM    5  N3  NH3 B   2)   1.87887200 +1   1.59335547 +1   0.01308137 +1
  H(HETATM    6 1H1  HET A   1)  -0.47745843 +1  -0.56303916 +1   0.87915789 +1
  H(HETATM    7 1H2  HET A   1)   2.02524985 +1  -0.63332925 +1  -0.89217146 +1
  H(HETATM    8  H3  NH3 B   2)   2.67037356 +1   2.27488372 +1  -0.01192500 +1
  H(HETATM    9 2H1  HET A   1)  -0.46301670 +1  -0.55752121 +1  -0.89564672 +1
  H(HETATM   10 2H2  HET A   1)   2.01219183 +1  -0.64322902 +1   0.90024689 +1
 
 TIME=     0.02
  REACTANTS AND PRODUCTS SWAPPED AROUND
 *+*+*+*+*+*+*+*+*+*+*+*+*+*+*+*+*+*+*+*+*+*+*+*+*+*+*+*+*+*+*+*+*+*+*+*+*+*+*+*+
            BAR SHORTENED BY       1.000 PERCENT
 GRADIENT CRITERION IN FLEPO =    10.000


          FOR POINT   45 FIRST  STRUCTURE
 DISTANCE A - B      1.081313
 HEAT               89.091963
 GRADIENT NORM      11.081177
 DIRECTION COSINE    0.892289
 CVB(3:5) noswap html GEO-OK OPT XYZ
      Hydrazoic acid plus ethylene

  C(HETATM    1  C1  HET A   1)   0.09861280 +1  -0.66891878 +1  -0.01132009 +1
  C(HETATM    2  C2  HET A   1)   1.42768792 +1  -0.74070376 +1  -0.00136675 +1
  N(HETATM    3  N1  NH3 B   2)  -0.37444008 +1   2.18802632 +1   0.01179488 +1
  N(HETATM    4  N2  NH3 B   2)   0.76187859 +1   2.21155945 +1   0.00672371 +1
  N(HETATM    5  N3  NH3 B   2)   1.96303126 +1   1.90647063 +1   0.00811318 +1
  H(HETATM    6 1H1  HET A   1)  -0.50634073 +1  -0.63588388 +1   0.88213054 +1
  H(HETATM    7 1H2  HET A   1)   2.03794316 +1  -0.75124666 +1  -0.89159048 +1
  H(HETATM    8  H3  NH3 B   2)   2.67140550 +1   2.63088342 +1  -0.01219775 +1
  H(HETATM    9 2H1  HET A   1)  -0.49511163 +1  -0.63967281 +1  -0.91065263 +1
  H(HETATM   10 2H2  HET A   1)   2.02029674 +1  -0.76934588 +1   0.90042479 +1
 
 *+*+*+*+*+*+*+*+*+*+*+*+*+*+*+*+*+*+*+*+*+*+*+*+*+*+*+*+*+*+*+*+*+*+*+*+*+*+*+*+
            BAR SHORTENED BY       1.000 PERCENT
 GRADIENT CRITERION IN FLEPO =     8.081


          FOR POINT   46 FIRST  STRUCTURE
 DISTANCE A - B      1.070500
 HEAT               89.178752
 GRADIENT NORM      10.053724
 DIRECTION COSINE    0.874698
 CVB(3:5) noswap html GEO-OK OPT XYZ
      Hydrazoic acid plus ethylene

  C(HETATM    1  C1  HET A   1)   0.09875562 +1  -0.66836035 +1  -0.01065758 +1
  C(HETATM    2  C2  HET A   1)   1.42790869 +1  -0.73548251 +1  -0.00092470 +1
  N(HETATM    3  N1  NH3 B   2)  -0.37481551 +1   2.18090016 +1   0.01092469 +1
  N(HETATM    4  N2  NH3 B   2)   0.76202119 +1   2.20935988 +1   0.00674351 +1
  N(HETATM    5  N3  NH3 B   2)   1.96184374 +1   1.90541877 +1   0.00858737 +1
  H(HETATM    6 1H1  HET A   1)  -0.50517119 +1  -0.63433825 +1   0.88409643 +1
  H(HETATM    7 1H2  HET A   1)   2.03712091 +1  -0.74746787 +1  -0.89282395 +1
  H(HETATM    8  H3  NH3 B   2)   2.67767990 +1   2.62557942 +1  -0.01351763 +1
  H(HETATM    9 2H1  HET A   1)  -0.49481052 +1  -0.63604754 +1  -0.91104630 +1
  H(HETATM   10 2H2  HET A   1)   2.02035798 +1  -0.76016036 +1   0.90206824 +1
 
 *+*+*+*+*+*+*+*+*+*+*+*+*+*+*+*+*+*+*+*+*+*+*+*+*+*+*+*+*+*+*+*+*+*+*+*+*+*+*+*+
            BAR SHORTENED BY       1.000 PERCENT
 GRADIENT CRITERION IN FLEPO =     7.054


          FOR POINT   47 FIRST  STRUCTURE
 DISTANCE A - B      1.059795
 HEAT               89.290745
 GRADIENT NORM      13.141566
 DIRECTION COSINE    0.904372
 CVB(3:5) noswap html GEO-OK OPT XYZ
      Hydrazoic acid plus ethylene

  C(HETATM    1  C1  HET A   1)   0.09827568 +1  -0.66353561 +1  -0.01060734 +1
  C(HETATM    2  C2  HET A   1)   1.42883449 +1  -0.73071174 +1  -0.00089647 +1
  N(HETATM    3  N1  NH3 B   2)  -0.37429340 +1   2.17456414 +1   0.01085897 +1
  N(HETATM    4  N2  NH3 B   2)   0.76152551 +1   2.20914382 +1   0.00673808 +1
  N(HETATM    5  N3  NH3 B   2)   1.96101402 +1   1.90229814 +1   0.00863231 +1
  H(HETATM    6 1H1  HET A   1)  -0.50489406 +1  -0.63362526 +1   0.88404704 +1
  H(HETATM    7 1H2  HET A   1)   2.03700220 +1  -0.74632649 +1  -0.89281742 +1
  H(HETATM    8  H3  NH3 B   2)   2.67760683 +1   2.62207247 +1  -0.01350170 +1
  H(HETATM    9 2H1  HET A   1)  -0.49449258 +1  -0.63526228 +1  -0.91089230 +1
  H(HETATM   10 2H2  HET A   1)   2.02027632 +1  -0.75899104 +1   0.90205002 +1
 
 TIME=     0.02
  REACTANTS AND PRODUCTS SWAPPED AROUND
 *+*+*+*+*+*+*+*+*+*+*+*+*+*+*+*+*+*+*+*+*+*+*+*+*+*+*+*+*+*+*+*+*+*+*+*+*+*+*+*+
            BAR SHORTENED BY       0.000 PERCENT
 GRADIENT CRITERION IN FLEPO =    10.000


          FOR POINT   48 SECOND STRUCTURE
 DISTANCE A - B      1.059795
 HEAT               89.352231
 GRADIENT NORM     107.636169
 DIRECTION COSINE    0.849092
 CVB(3:5) noswap html GEO-OK OPT XYZ
      Hydrazoic acid plus ethylene

  C(HETATM    1  C1  HET A   1)   0.05076225 +1  -0.18588688 +1  -0.00563344 +1
  C(HETATM    2  C2  HET A   1)   1.52048871 +1  -0.25840560 +1   0.00189757 +1
  N(HETATM    3  N1  NH3 B   2)  -0.32260496 +1   1.54729778 +1   0.00435343 +1
  N(HETATM    4  N2  NH3 B   2)   0.71245343 +1   2.18775367 +1   0.00620069 +1
  N(HETATM    5  N3  NH3 B   2)   1.87887200 +1   1.59335547 +1   0.01308137 +1
  H(HETATM    6 1H1  HET A   1)  -0.47745843 +1  -0.56303916 +1   0.87915789 +1
  H(HETATM    7 1H2  HET A   1)   2.02524985 +1  -0.63332925 +1  -0.89217146 +1
  H(HETATM    8  H3  NH3 B   2)   2.67037356 +1   2.27488372 +1  -0.01192500 +1
  H(HETATM    9 2H1  HET A   1)  -0.46301670 +1  -0.55752121 +1  -0.89564672 +1
  H(HETATM   10 2H2  HET A   1)   2.01219183 +1  -0.64322902 +1   0.90024689 +1
 
 TIME=     0.02
  REACTANTS AND PRODUCTS SWAPPED AROUND
 *+*+*+*+*+*+*+*+*+*+*+*+*+*+*+*+*+*+*+*+*+*+*+*+*+*+*+*+*+*+*+*+*+*+*+*+*+*+*+*+
            BAR SHORTENED BY       1.000 PERCENT
 GRADIENT CRITERION IN FLEPO =    10.000


          FOR POINT   49 FIRST  STRUCTURE
 DISTANCE A - B      1.049197
 HEAT               89.404713
 GRADIENT NORM      10.561927
 DIRECTION COSINE    0.973365
 CVB(3:5) noswap html GEO-OK OPT XYZ
      Hydrazoic acid plus ethylene

  C(HETATM    1  C1  HET A   1)   0.09909188 +1  -0.65977348 +1  -0.00962663 +1
  C(HETATM    2  C2  HET A   1)   1.42850492 +1  -0.72663719 +1  -0.00039087 +1
  N(HETATM    3  N1  NH3 B   2)  -0.37487623 +1   2.16862201 +1   0.01081767 +1
  N(HETATM    4  N2  NH3 B   2)   0.76195119 +1   2.20315941 +1   0.00661147 +1
  N(HETATM    5  N3  NH3 B   2)   1.96263191 +1   1.90163495 +1   0.00971676 +1
  H(HETATM    6 1H1  HET A   1)  -0.50424159 +1  -0.63068311 +1   0.88440280 +1
  H(HETATM    7 1H2  HET A   1)   2.03285984 +1  -0.74190902 +1  -0.89343413 +1
  H(HETATM    8  H3  NH3 B   2)   2.67699452 +1   2.61800072 +1  -0.01577928 +1
  H(HETATM    9 2H1  HET A   1)  -0.49111557 +1  -0.62864458 +1  -0.91120155 +1
  H(HETATM   10 2H2  HET A   1)   2.02040889 +1  -0.75044541 +1   0.90293943 +1
 
 TIME=     0.00
  REACTANTS AND PRODUCTS SWAPPED AROUND
 *+*+*+*+*+*+*+*+*+*+*+*+*+*+*+*+*+*+*+*+*+*+*+*+*+*+*+*+*+*+*+*+*+*+*+*+*+*+*+*+
            BAR SHORTENED BY       1.000 PERCENT
 GRADIENT CRITERION IN FLEPO =     7.562


          FOR POINT   50 SECOND STRUCTURE
 DISTANCE A - B      1.038705
 HEAT               90.398377
 GRADIENT NORM     105.372719
 DIRECTION COSINE    0.975538
 CVB(3:5) noswap html GEO-OK OPT XYZ
      Hydrazoic acid plus ethylene

  C(HETATM    1  C1  HET A   1)   0.05331131 +1  -0.19283977 +1  -0.00370546 +1
  C(HETATM    2  C2  HET A   1)   1.51730012 +1  -0.26550492 +1   0.00350176 +1
  N(HETATM    3  N1  NH3 B   2)  -0.31704511 +1   1.55046220 +1   0.00275354 +1
  N(HETATM    4  N2  NH3 B   2)   0.71461806 +1   2.18973783 +1   0.00781434 +1
  N(HETATM    5  N3  NH3 B   2)   1.88148499 +1   1.59974506 +1   0.01135101 +1
  H(HETATM    6 1H1  HET A   1)  -0.47946754 +1  -0.56099674 +1   0.88133000 +1
  H(HETATM    7 1H2  HET A   1)   2.02681446 +1  -0.63190227 +1  -0.89392046 +1
  H(HETATM    8  H3  NH3 B   2)   2.67304737 +1   2.27657324 +1  -0.01409391 +1
  H(HETATM    9 2H1  HET A   1)  -0.46538224 +1  -0.55968935 +1  -0.89801992 +1
  H(HETATM   10 2H2  HET A   1)   2.01413087 +1  -0.63779698 +1   0.90261781 +1
 
 TIME=     0.02
  REACTANTS AND PRODUCTS SWAPPED AROUND
 *+*+*+*+*+*+*+*+*+*+*+*+*+*+*+*+*+*+*+*+*+*+*+*+*+*+*+*+*+*+*+*+*+*+*+*+*+*+*+*+
            BAR SHORTENED BY       1.000 PERCENT
 GRADIENT CRITERION IN FLEPO =    10.000


          FOR POINT   51 FIRST  STRUCTURE
 DISTANCE A - B      1.028318
 HEAT               89.520942
 GRADIENT NORM      13.600078
 DIRECTION COSINE    0.858072
 CVB(3:5) noswap html GEO-OK OPT XYZ
      Hydrazoic acid plus ethylene

  C(HETATM    1  C1  HET A   1)   0.09863407 +1  -0.65510414 +1  -0.00956742 +1
  C(HETATM    2  C2  HET A   1)   1.42939287 +1  -0.72202587 +1  -0.00035194 +1
  N(HETATM    3  N1  NH3 B   2)  -0.37429792 +1   2.16244041 +1   0.01073703 +1
  N(HETATM    4  N2  NH3 B   2)   0.76147786 +1   2.20302519 +1   0.00662350 +1
  N(HETATM    5  N3  NH3 B   2)   1.96182044 +1   1.89861605 +1   0.00973310 +1
  H(HETATM    6 1H1  HET A   1)  -0.50399384 +1  -0.62998625 +1   0.88437207 +1
  H(HETATM    7 1H2  HET A   1)   2.03279939 +1  -0.74080895 +1  -0.89343899 +1
  H(HETATM    8  H3  NH3 B   2)   2.67695505 +1   2.61458645 +1  -0.01576243 +1
  H(HETATM    9 2H1  HET A   1)  -0.49085824 +1  -0.62795503 +1  -0.91106973 +1
  H(HETATM   10 2H2  HET A   1)   2.02034611 +1  -0.74931893 +1   0.90293621 +1
 
 *+*+*+*+*+*+*+*+*+*+*+*+*+*+*+*+*+*+*+*+*+*+*+*+*+*+*+*+*+*+*+*+*+*+*+*+*+*+*+*+
            BAR SHORTENED BY       1.000 PERCENT
 GRADIENT CRITERION IN FLEPO =    10.000


          FOR POINT   52 FIRST  STRUCTURE
 DISTANCE A - B      1.018035
 HEAT               89.615584
 GRADIENT NORM      11.711749
 DIRECTION COSINE    0.832880
 CVB(3:5) noswap html GEO-OK OPT XYZ
      Hydrazoic acid plus ethylene

  C(HETATM    1  C1  HET A   1)   0.09929715 +1  -0.65715879 +1  -0.00863861 +1
  C(HETATM    2  C2  HET A   1)   1.42918910 +1  -0.71697178 +1   0.00068125 +1
  N(HETATM    3  N1  NH3 B   2)  -0.37465027 +1   2.15485621 +1   0.00774208 +1
  N(HETATM    4  N2  NH3 B   2)   0.76188721 +1   2.19751310 +1   0.00626248 +1
  N(HETATM    5  N3  NH3 B   2)   1.96136917 +1   1.89611071 +1   0.01091323 +1
  H(HETATM    6 1H1  HET A   1)  -0.50494651 +1  -0.62717041 +1   0.88489882 +1
  H(HETATM    7 1H2  HET A   1)   2.03362474 +1  -0.73380691 +1  -0.89435602 +1
  H(HETATM    8  H3  NH3 B   2)   2.68247762 +1   2.61014107 +1  -0.01805693 +1
  H(HETATM    9 2H1  HET A   1)  -0.49139010 +1  -0.62431706 +1  -0.91141627 +1
  H(HETATM   10 2H2  HET A   1)   2.02102762 +1  -0.73778208 +1   0.90364304 +1
 
 *+*+*+*+*+*+*+*+*+*+*+*+*+*+*+*+*+*+*+*+*+*+*+*+*+*+*+*+*+*+*+*+*+*+*+*+*+*+*+*+
            BAR SHORTENED BY       1.000 PERCENT
 GRADIENT CRITERION IN FLEPO =     8.712


          FOR POINT   53 FIRST  STRUCTURE
 DISTANCE A - B      1.007854
 HEAT               89.734344
 GRADIENT NORM      14.463349
 DIRECTION COSINE    0.928525
 CVB(3:5) noswap html GEO-OK OPT XYZ
      Hydrazoic acid plus ethylene

  C(HETATM    1  C1  HET A   1)   0.09883729 +1  -0.65251560 +1  -0.00858927 +1
  C(HETATM    2  C2  HET A   1)   1.43007021 +1  -0.71245711 +1   0.00070946 +1
  N(HETATM    3  N1  NH3 B   2)  -0.37407422 +1   2.14881227 +1   0.00769219 +1
  N(HETATM    4  N2  NH3 B   2)   0.76141452 +1   2.19743534 +1   0.00627800 +1
  N(HETATM    5  N3  NH3 B   2)   1.96057033 +1   1.89314706 +1   0.01091761 +1
  H(HETATM    6 1H1  HET A   1)  -0.50469172 +1  -0.62650868 +1   0.88486314 +1
  H(HETATM    7 1H2  HET A   1)   2.03355664 +1  -0.73278786 +1  -0.89435167 +1
  H(HETATM    8  H3  NH3 B   2)   2.68238332 +1   2.60680539 +1  -0.01801730 +1
  H(HETATM    9 2H1  HET A   1)  -0.49113002 +1  -0.62367078 +1  -0.91128231 +1
  H(HETATM   10 2H2  HET A   1)   2.02095865 +1  -0.73678223 +1   0.90363279 +1
 
 TIME=     0.05
  REACTANTS AND PRODUCTS SWAPPED AROUND
 *+*+*+*+*+*+*+*+*+*+*+*+*+*+*+*+*+*+*+*+*+*+*+*+*+*+*+*+*+*+*+*+*+*+*+*+*+*+*+*+
            BAR SHORTENED BY       0.000 PERCENT
 GRADIENT CRITERION IN FLEPO =    10.000


          FOR POINT   54 SECOND STRUCTURE
 DISTANCE A - B      1.007854
 HEAT               90.398377
 GRADIENT NORM     105.372734
 DIRECTION COSINE    0.833833
 CVB(3:5) noswap html GEO-OK OPT XYZ
      Hydrazoic acid plus ethylene

  C(HETATM    1  C1  HET A   1)   0.05331131 +1  -0.19283977 +1  -0.00370546 +1
  C(HETATM    2  C2  HET A   1)   1.51730012 +1  -0.26550492 +1   0.00350176 +1
  N(HETATM    3  N1  NH3 B   2)  -0.31704511 +1   1.55046220 +1   0.00275354 +1
  N(HETATM    4  N2  NH3 B   2)   0.71461806 +1   2.18973783 +1   0.00781434 +1
  N(HETATM    5  N3  NH3 B   2)   1.88148499 +1   1.59974506 +1   0.01135101 +1
  H(HETATM    6 1H1  HET A   1)  -0.47946754 +1  -0.56099674 +1   0.88133000 +1
  H(HETATM    7 1H2  HET A   1)   2.02681446 +1  -0.63190227 +1  -0.89392046 +1
  H(HETATM    8  H3  NH3 B   2)   2.67304737 +1   2.27657324 +1  -0.01409391 +1
  H(HETATM    9 2H1  HET A   1)  -0.46538224 +1  -0.55968935 +1  -0.89801992 +1
  H(HETATM   10 2H2  HET A   1)   2.01413087 +1  -0.63779698 +1   0.90261781 +1
 
 TIME=     0.00
  REACTANTS AND PRODUCTS SWAPPED AROUND
 *+*+*+*+*+*+*+*+*+*+*+*+*+*+*+*+*+*+*+*+*+*+*+*+*+*+*+*+*+*+*+*+*+*+*+*+*+*+*+*+
            BAR SHORTENED BY       1.000 PERCENT
 GRADIENT CRITERION IN FLEPO =    10.000


          FOR POINT   55 FIRST  STRUCTURE
 DISTANCE A - B      0.997776
 HEAT               89.805621
 GRADIENT NORM      12.410041
 DIRECTION COSINE    0.918010
 CVB(3:5) noswap html GEO-OK OPT XYZ
      Hydrazoic acid plus ethylene

  C(HETATM    1  C1  HET A   1)   0.09961170 +1  -0.64714220 +1  -0.00755189 +1
  C(HETATM    2  C2  HET A   1)   1.42976067 +1  -0.71217747 +1   0.00090042 +1
  N(HETATM    3  N1  NH3 B   2)  -0.37453715 +1   2.14194648 +1   0.00826834 +1
  N(HETATM    4  N2  NH3 B   2)   0.76166282 +1   2.19000328 +1   0.00567583 +1
  N(HETATM    5  N3  NH3 B   2)   1.96386683 +1   1.89118623 +1   0.01239304 +1
  H(HETATM    6 1H1  HET A   1)  -0.50479418 +1  -0.62216374 +1   0.88552004 +1
  H(HETATM    7 1H2  HET A   1)   2.03392575 +1  -0.72849284 +1  -0.89444487 +1
  H(HETATM    8  H3  NH3 B   2)   2.68104824 +1   2.60212766 +1  -0.01755028 +1
  H(HETATM    9 2H1  HET A   1)  -0.49142122 +1  -0.61591636 +1  -0.90731041 +1
  H(HETATM   10 2H2  HET A   1)   2.02202891 +1  -0.73188762 +1   0.90455545 +1
 
 *+*+*+*+*+*+*+*+*+*+*+*+*+*+*+*+*+*+*+*+*+*+*+*+*+*+*+*+*+*+*+*+*+*+*+*+*+*+*+*+
            BAR SHORTENED BY       1.000 PERCENT
 GRADIENT CRITERION IN FLEPO =     9.410


          FOR POINT   56 FIRST  STRUCTURE
 DISTANCE A - B      0.987798
 HEAT               89.929294
 GRADIENT NORM      15.765526
 DIRECTION COSINE    0.951221
 CVB(3:5) noswap html GEO-OK OPT XYZ
      Hydrazoic acid plus ethylene

  C(HETATM    1  C1  HET A   1)   0.09914870 +1  -0.64259917 +1  -0.00751343 +1
  C(HETATM    2  C2  HET A   1)   1.43063607 +1  -0.70771074 +1   0.00092643 +1
  N(HETATM    3  N1  NH3 B   2)  -0.37396223 +1   2.13603163 +1   0.00821319 +1
  N(HETATM    4  N2  NH3 B   2)   0.76119237 +1   2.19000063 +1   0.00569721 +1
  N(HETATM    5  N3  NH3 B   2)   1.96304301 +1   1.88827182 +1   0.01238262 +1
  H(HETATM    6 1H1  HET A   1)  -0.50454091 +1  -0.62155207 +1   0.88547814 +1
  H(HETATM    7 1H2  HET A   1)   2.03385464 +1  -0.72752693 +1  -0.89443963 +1
  H(HETATM    8  H3  NH3 B   2)   2.68096823 +1   2.59887211 +1  -0.01751572 +1
  H(HETATM    9 2H1  HET A   1)  -0.49116083 +1  -0.61535409 +1  -0.90721751 +1
  H(HETATM   10 2H2  HET A   1)   2.02194993 +1  -0.73094672 +1   0.90453607 +1
 
 *+*+*+*+*+*+*+*+*+*+*+*+*+*+*+*+*+*+*+*+*+*+*+*+*+*+*+*+*+*+*+*+*+*+*+*+*+*+*+*+
            BAR SHORTENED BY       1.000 PERCENT
 GRADIENT CRITERION IN FLEPO =    10.000


          FOR POINT   57 FIRST  STRUCTURE
 DISTANCE A - B      0.977920
 HEAT               90.030925
 GRADIENT NORM      12.224404
 DIRECTION COSINE    0.813706
 CVB(3:5) noswap html GEO-OK OPT XYZ
      Hydrazoic acid plus ethylene

  C(HETATM    1  C1  HET A   1)   0.10010360 +1  -0.64358440 +1  -0.00646064 +1
  C(HETATM    2  C2  HET A   1)   1.43012012 +1  -0.70401247 +1   0.00147611 +1
  N(HETATM    3  N1  NH3 B   2)  -0.37461553 +1   2.13095604 +1   0.00817667 +1
  N(HETATM    4  N2  NH3 B   2)   0.76176228 +1   2.18661373 +1   0.00563498 +1
  N(HETATM    5  N3  NH3 B   2)   1.96199147 +1   1.88478894 +1   0.01341913 +1
  H(HETATM    6 1H1  HET A   1)  -0.50478885 +1  -0.61812431 +1   0.88654545 +1
  H(HETATM    7 1H2  HET A   1)   2.03405765 +1  -0.71685973 +1  -0.89455178 +1
  H(HETATM    8  H3  NH3 B   2)   2.68142688 +1   2.59051302 +1  -0.02552288 +1
  H(HETATM    9 2H1  HET A   1)  -0.49191752 +1  -0.61259430 +1  -0.90814307 +1
  H(HETATM   10 2H2  HET A   1)   2.02235214 +1  -0.72228279 +1   0.90463062 +1
 
 TIME=     0.03
  REACTANTS AND PRODUCTS SWAPPED AROUND
 *+*+*+*+*+*+*+*+*+*+*+*+*+*+*+*+*+*+*+*+*+*+*+*+*+*+*+*+*+*+*+*+*+*+*+*+*+*+*+*+
            BAR SHORTENED BY       0.000 PERCENT
 GRADIENT CRITERION IN FLEPO =     9.224


          FOR POINT   58 SECOND STRUCTURE
 DISTANCE A - B      0.977920
 HEAT               90.384443
 GRADIENT NORM     105.365252
 DIRECTION COSINE    0.971623
 CVB(3:5) noswap html GEO-OK OPT XYZ
      Hydrazoic acid plus ethylene

  C(HETATM    1  C1  HET A   1)   0.05331131 +1  -0.19283977 +1  -0.00370546 +1
  C(HETATM    2  C2  HET A   1)   1.51730012 +1  -0.26550492 +1   0.00350176 +1
  N(HETATM    3  N1  NH3 B   2)  -0.31704511 +1   1.55046220 +1   0.00275354 +1
  N(HETATM    4  N2  NH3 B   2)   0.71461806 +1   2.18973783 +1   0.00781434 +1
[...]
 
 TIME=     0.03
  REACTANTS AND PRODUCTS SWAPPED AROUND
 *+*+*+*+*+*+*+*+*+*+*+*+*+*+*+*+*+*+*+*+*+*+*+*+*+*+*+*+*+*+*+*+*+*+*+*+*+*+*+*+
            BAR SHORTENED BY       1.000 PERCENT
 GRADIENT CRITERION IN FLEPO =     1.091


          FOR POINT  539 FIRST  STRUCTURE
 DISTANCE A - B      0.011056
 HEAT              104.445152
 GRADIENT NORM       1.594701
 DIRECTION COSINE    0.666822
 CVB(3:5) noswap html GEO-OK OPT XYZ
      Hydrazoic acid plus ethylene

  C(HETATM    1  C1  HET A   1)   0.09695606 +1  -0.38145006 +1   0.00326373 +1
  C(HETATM    2  C2  HET A   1)   1.46340637 +1  -0.41038531 +1   0.00819494 +1
  N(HETATM    3  N1  NH3 B   2)  -0.33072815 +1   1.70822653 +1   0.02395783 +1
  N(HETATM    4  N2  NH3 B   2)   0.74041551 +1   2.17144298 +1   0.01757852 +1
  N(HETATM    5  N3  NH3 B   2)   1.91575764 +1   1.71038349 +1   0.02129413 +1
  H(HETATM    6 1H1  HET A   1)  -0.49128795 +1  -0.49400292 +1   0.90503461 +1
  H(HETATM    7 1H2  HET A   1)   2.04644999 +1  -0.51344558 +1  -0.89771370 +1
  H(HETATM    8  H3  NH3 B   2)   2.73105420 +1   2.29221932 +1  -0.04278414 +1
  H(HETATM    9 2H1  HET A   1)  -0.48370595 +1  -0.48252307 +1  -0.90411448 +1
  H(HETATM   10 2H2  HET A   1)   2.03866458 +1  -0.52087614 +1   0.91936035 +1
 
 TIME=     0.00
  REACTANTS AND PRODUCTS SWAPPED AROUND
 *+*+*+*+*+*+*+*+*+*+*+*+*+*+*+*+*+*+*+*+*+*+*+*+*+*+*+*+*+*+*+*+*+*+*+*+*+*+*+*+
            BAR SHORTENED BY       1.000 PERCENT
 GRADIENT CRITERION IN FLEPO =     1.091


          FOR POINT  540 SECOND STRUCTURE
 DISTANCE A - B      0.010945
 HEAT              104.445190
 GRADIENT NORM       1.702359
 DIRECTION COSINE    0.661521
 CVB(3:5) noswap html GEO-OK OPT XYZ
      Hydrazoic acid plus ethylene

  C(HETATM    1  C1  HET A   1)   0.09601880 +1  -0.37588496 +1   0.00335630 +1
  C(HETATM    2  C2  HET A   1)   1.46436906 +1  -0.40526750 +1   0.00860633 +1
  N(HETATM    3  N1  NH3 B   2)  -0.32914766 +1   1.70187632 +1   0.02421261 +1
  N(HETATM    4  N2  NH3 B   2)   0.74001509 +1   2.17325049 +1   0.01784243 +1
  N(HETATM    5  N3  NH3 B   2)   1.91496457 +1   1.70763381 +1   0.02146336 +1
  H(HETATM    6 1H1  HET A   1)  -0.49132081 +1  -0.49396253 +1   0.90520103 +1
  H(HETATM    7 1H2  HET A   1)   2.04667704 +1  -0.51296145 +1  -0.89755451 +1
  H(HETATM    8  H3  NH3 B   2)   2.73073354 +1   2.28990436 +1  -0.04273195 +1
  H(HETATM    9 2H1  HET A   1)  -0.48375003 +1  -0.48265315 +1  -0.90422894 +1
  H(HETATM   10 2H2  HET A   1)   2.03848041 +1  -0.52077225 +1   0.91977508 +1
 
 TIME=     0.02
  REACTANTS AND PRODUCTS SWAPPED AROUND
 *+*+*+*+*+*+*+*+*+*+*+*+*+*+*+*+*+*+*+*+*+*+*+*+*+*+*+*+*+*+*+*+*+*+*+*+*+*+*+*+
            BAR SHORTENED BY       1.000 PERCENT
 GRADIENT CRITERION IN FLEPO =     1.091


          FOR POINT  541 FIRST  STRUCTURE
 DISTANCE A - B      0.010836
 HEAT              104.445311
 GRADIENT NORM       1.568262
 DIRECTION COSINE    0.655645
 CVB(3:5) noswap html GEO-OK OPT XYZ
      Hydrazoic acid plus ethylene

  C(HETATM    1  C1  HET A   1)   0.09694669 +1  -0.38139440 +1   0.00326465 +1
  C(HETATM    2  C2  HET A   1)   1.46341600 +1  -0.41033413 +1   0.00819906 +1
  N(HETATM    3  N1  NH3 B   2)  -0.33071235 +1   1.70816303 +1   0.02396038 +1
  N(HETATM    4  N2  NH3 B   2)   0.74041150 +1   2.17146105 +1   0.01758116 +1
  N(HETATM    5  N3  NH3 B   2)   1.91574971 +1   1.71035600 +1   0.02129582 +1
  H(HETATM    6 1H1  HET A   1)  -0.49128828 +1  -0.49400252 +1   0.90503628 +1
  H(HETATM    7 1H2  HET A   1)   2.04645226 +1  -0.51344074 +1  -0.89771211 +1
  H(HETATM    8  H3  NH3 B   2)   2.73105099 +1   2.29219617 +1  -0.04278362 +1
  H(HETATM    9 2H1  HET A   1)  -0.48370639 +1  -0.48252437 +1  -0.90411562 +1
  H(HETATM   10 2H2  HET A   1)   2.03866273 +1  -0.52087510 +1   0.91936450 +1
 
 TIME=     0.02
  REACTANTS AND PRODUCTS SWAPPED AROUND
 *+*+*+*+*+*+*+*+*+*+*+*+*+*+*+*+*+*+*+*+*+*+*+*+*+*+*+*+*+*+*+*+*+*+*+*+*+*+*+*+
            BAR SHORTENED BY       1.000 PERCENT
 GRADIENT CRITERION IN FLEPO =     1.091


          FOR POINT  542 SECOND STRUCTURE
 DISTANCE A - B      0.010728
 HEAT              104.445350
 GRADIENT NORM       1.674263
 DIRECTION COSINE    0.650204
 CVB(3:5) noswap html GEO-OK OPT XYZ
      Hydrazoic acid plus ethylene

  C(HETATM    1  C1  HET A   1)   0.09602808 +1  -0.37594006 +1   0.00335538 +1
  C(HETATM    2  C2  HET A   1)   1.46435953 +1  -0.40531817 +1   0.00860226 +1
  N(HETATM    3  N1  NH3 B   2)  -0.32916330 +1   1.70193918 +1   0.02421009 +1
  N(HETATM    4  N2  NH3 B   2)   0.74001906 +1   2.17323259 +1   0.01783982 +1
  N(HETATM    5  N3  NH3 B   2)   1.91497243 +1   1.70766103 +1   0.02146168 +1
  H(HETATM    6 1H1  HET A   1)  -0.49132048 +1  -0.49396293 +1   0.90519938 +1
  H(HETATM    7 1H2  HET A   1)   2.04667479 +1  -0.51296624 +1  -0.89755609 +1
  H(HETATM    8  H3  NH3 B   2)   2.73073671 +1   2.28992727 +1  -0.04273247 +1
  H(HETATM    9 2H1  HET A   1)  -0.48374960 +1  -0.48265186 +1  -0.90422780 +1
  H(HETATM   10 2H2  HET A   1)   2.03848223 +1  -0.52077328 +1   0.91977098 +1
 
 TIME=     0.00
  REACTANTS AND PRODUCTS SWAPPED AROUND
 *+*+*+*+*+*+*+*+*+*+*+*+*+*+*+*+*+*+*+*+*+*+*+*+*+*+*+*+*+*+*+*+*+*+*+*+*+*+*+*+
            BAR SHORTENED BY       1.000 PERCENT
 GRADIENT CRITERION IN FLEPO =     1.091


          FOR POINT  543 FIRST  STRUCTURE
 DISTANCE A - B      0.010620
 HEAT              104.445464
 GRADIENT NORM       1.542431
 DIRECTION COSINE    0.644166
 CVB(3:5) noswap html GEO-OK OPT XYZ
      Hydrazoic acid plus ethylene

  C(HETATM    1  C1  HET A   1)   0.09693750 +1  -0.38133986 +1   0.00326556 +1
  C(HETATM    2  C2  HET A   1)   1.46342544 +1  -0.41028397 +1   0.00820309 +1
  N(HETATM    3  N1  NH3 B   2)  -0.33069686 +1   1.70810079 +1   0.02396288 +1
  N(HETATM    4  N2  NH3 B   2)   0.74040758 +1   2.17147877 +1   0.01758375 +1
  N(HETATM    5  N3  NH3 B   2)   1.91574194 +1   1.71032905 +1   0.02129748 +1
  H(HETATM    6 1H1  HET A   1)  -0.49128860 +1  -0.49400212 +1   0.90503791 +1
  H(HETATM    7 1H2  HET A   1)   2.04645448 +1  -0.51343600 +1  -0.89771055 +1
  H(HETATM    8  H3  NH3 B   2)   2.73104785 +1   2.29217348 +1  -0.04278311 +1
  H(HETATM    9 2H1  HET A   1)  -0.48370682 +1  -0.48252564 +1  -0.90411674 +1
  H(HETATM   10 2H2  HET A   1)   2.03866093 +1  -0.52087408 +1   0.91936857 +1
 
 TIME=     0.02
  REACTANTS AND PRODUCTS SWAPPED AROUND
 *+*+*+*+*+*+*+*+*+*+*+*+*+*+*+*+*+*+*+*+*+*+*+*+*+*+*+*+*+*+*+*+*+*+*+*+*+*+*+*+
            BAR SHORTENED BY       1.000 PERCENT
 GRADIENT CRITERION IN FLEPO =     1.091


          FOR POINT  544 SECOND STRUCTURE
 DISTANCE A - B      0.010514
 HEAT              104.445504
 GRADIENT NORM       1.646829
 DIRECTION COSINE    0.638583
 CVB(3:5) noswap html GEO-OK OPT XYZ
      Hydrazoic acid plus ethylene

  C(HETATM    1  C1  HET A   1)   0.09603717 +1  -0.37599405 +1   0.00335448 +1
  C(HETATM    2  C2  HET A   1)   1.46435019 +1  -0.40536783 +1   0.00859827 +1
  N(HETATM    3  N1  NH3 B   2)  -0.32917864 +1   1.70200080 +1   0.02420761 +1
  N(HETATM    4  N2  NH3 B   2)   0.74002294 +1   2.17321505 +1   0.01783726 +1
  N(HETATM    5  N3  NH3 B   2)   1.91498012 +1   1.70768771 +1   0.02146004 +1
  H(HETATM    6 1H1  HET A   1)  -0.49132017 +1  -0.49396332 +1   0.90519777 +1
  H(HETATM    7 1H2  HET A   1)   2.04667258 +1  -0.51297094 +1  -0.89755763 +1
  H(HETATM    8  H3  NH3 B   2)   2.73073982 +1   2.28994974 +1  -0.04273298 +1
  H(HETATM    9 2H1  HET A   1)  -0.48374917 +1  -0.48265060 +1  -0.90422669 +1
  H(HETATM   10 2H2  HET A   1)   2.03848402 +1  -0.52077429 +1   0.91976695 +1
 
 TIME=     0.02
  REACTANTS AND PRODUCTS SWAPPED AROUND
 *+*+*+*+*+*+*+*+*+*+*+*+*+*+*+*+*+*+*+*+*+*+*+*+*+*+*+*+*+*+*+*+*+*+*+*+*+*+*+*+
            BAR SHORTENED BY       1.000 PERCENT
 GRADIENT CRITERION IN FLEPO =     1.091


          FOR POINT  545 FIRST  STRUCTURE
 DISTANCE A - B      0.010409
 HEAT              104.445611
 GRADIENT NORM       1.517198
 DIRECTION COSINE    0.632382
 CVB(3:5) noswap html GEO-OK OPT XYZ
      Hydrazoic acid plus ethylene

  C(HETATM    1  C1  HET A   1)   0.09692850 +1  -0.38128640 +1   0.00326645 +1
  C(HETATM    2  C2  HET A   1)   1.46343468 +1  -0.41023481 +1   0.00820704 +1
  N(HETATM    3  N1  NH3 B   2)  -0.33068167 +1   1.70803979 +1   0.02396533 +1
  N(HETATM    4  N2  NH3 B   2)   0.74040373 +1   2.17149613 +1   0.01758628 +1
  N(HETATM    5  N3  NH3 B   2)   1.91573432 +1   1.71030263 +1   0.02129911 +1
  H(HETATM    6 1H1  HET A   1)  -0.49128892 +1  -0.49400173 +1   0.90503950 +1
  H(HETATM    7 1H2  HET A   1)   2.04645667 +1  -0.51343135 +1  -0.89770902 +1
  H(HETATM    8  H3  NH3 B   2)   2.73104477 +1   2.29215124 +1  -0.04278261 +1
  H(HETATM    9 2H1  HET A   1)  -0.48370724 +1  -0.48252689 +1  -0.90411784 +1
  H(HETATM   10 2H2  HET A   1)   2.03865916 +1  -0.52087308 +1   0.91937255 +1
 
 TIME=     0.02
  REACTANTS AND PRODUCTS SWAPPED AROUND
 *+*+*+*+*+*+*+*+*+*+*+*+*+*+*+*+*+*+*+*+*+*+*+*+*+*+*+*+*+*+*+*+*+*+*+*+*+*+*+*+
            BAR SHORTENED BY       1.000 PERCENT
 GRADIENT CRITERION IN FLEPO =     1.091


          FOR POINT  546 SECOND STRUCTURE
 DISTANCE A - B      0.010305
 HEAT              104.445651
 GRADIENT NORM       1.620045
 DIRECTION COSINE    0.626656
 CVB(3:5) noswap html GEO-OK OPT XYZ
      Hydrazoic acid plus ethylene

  C(HETATM    1  C1  HET A   1)   0.09604609 +1  -0.37604698 +1   0.00335360 +1
  C(HETATM    2  C2  HET A   1)   1.46434103 +1  -0.40541650 +1   0.00859436 +1
  N(HETATM    3  N1  NH3 B   2)  -0.32919367 +1   1.70206119 +1   0.02420519 +1
  N(HETATM    4  N2  NH3 B   2)   0.74002675 +1   2.17319786 +1   0.01783475 +1
  N(HETATM    5  N3  NH3 B   2)   1.91498766 +1   1.70771386 +1   0.02145843 +1
  H(HETATM    6 1H1  HET A   1)  -0.49131985 +1  -0.49396371 +1   0.90519619 +1
  H(HETATM    7 1H2  HET A   1)   2.04667043 +1  -0.51297555 +1  -0.89755914 +1
  H(HETATM    8  H3  NH3 B   2)   2.73074287 +1   2.28997175 +1  -0.04273347 +1
  H(HETATM    9 2H1  HET A   1)  -0.48374875 +1  -0.48264936 +1  -0.90422561 +1
  H(HETATM   10 2H2  HET A   1)   2.03848577 +1  -0.52077528 +1   0.91976301 +1
 
 TIME=     0.00
  REACTANTS AND PRODUCTS SWAPPED AROUND
 *+*+*+*+*+*+*+*+*+*+*+*+*+*+*+*+*+*+*+*+*+*+*+*+*+*+*+*+*+*+*+*+*+*+*+*+*+*+*+*+
            BAR SHORTENED BY       1.000 PERCENT
 GRADIENT CRITERION IN FLEPO =     1.091


          FOR POINT  547 FIRST  STRUCTURE
 DISTANCE A - B      0.010202
 HEAT              104.445752
 GRADIENT NORM       1.492553
 DIRECTION COSINE    0.620291
 CVB(3:5) noswap html GEO-OK OPT XYZ
      Hydrazoic acid plus ethylene

  C(HETATM    1  C1  HET A   1)   0.09691968 +1  -0.38123401 +1   0.00326732 +1
  C(HETATM    2  C2  HET A   1)   1.46344375 +1  -0.41018663 +1   0.00821091 +1
  N(HETATM    3  N1  NH3 B   2)  -0.33066679 +1   1.70798000 +1   0.02396772 +1
  N(HETATM    4  N2  NH3 B   2)   0.74039996 +1   2.17151315 +1   0.01758877 +1
  N(HETATM    5  N3  NH3 B   2)   1.91572686 +1   1.71027675 +1   0.02130070 +1
  H(HETATM    6 1H1  HET A   1)  -0.49128923 +1  -0.49400135 +1   0.90504107 +1
  H(HETATM    7 1H2  HET A   1)   2.04645880 +1  -0.51342679 +1  -0.89770752 +1
  H(HETATM    8  H3  NH3 B   2)   2.73104175 +1   2.29212945 +1  -0.04278212 +1
  H(HETATM    9 2H1  HET A   1)  -0.48370766 +1  -0.48252812 +1  -0.90411892 +1
  H(HETATM   10 2H2  HET A   1)   2.03865743 +1  -0.52087210 +1   0.91937645 +1
 
 TIME=     0.03
  REACTANTS AND PRODUCTS SWAPPED AROUND
 *+*+*+*+*+*+*+*+*+*+*+*+*+*+*+*+*+*+*+*+*+*+*+*+*+*+*+*+*+*+*+*+*+*+*+*+*+*+*+*+
            BAR SHORTENED BY       1.000 PERCENT
 GRADIENT CRITERION IN FLEPO =     1.091


          FOR POINT  548 SECOND STRUCTURE
 DISTANCE A - B      0.010100
 HEAT              104.445793
 GRADIENT NORM       1.593896
 DIRECTION COSINE    0.614422
 CVB(3:5) noswap html GEO-OK OPT XYZ
      Hydrazoic acid plus ethylene

  C(HETATM    1  C1  HET A   1)   0.09605482 +1  -0.37609885 +1   0.00335274 +1
  C(HETATM    2  C2  HET A   1)   1.46433206 +1  -0.40546420 +1   0.00859052 +1
  N(HETATM    3  N1  NH3 B   2)  -0.32920840 +1   1.70212038 +1   0.02420282 +1
  N(HETATM    4  N2  NH3 B   2)   0.74003048 +1   2.17318102 +1   0.01783229 +1
  N(HETATM    5  N3  NH3 B   2)   1.91499506 +1   1.70773949 +1   0.02145686 +1
  H(HETATM    6 1H1  HET A   1)  -0.49131955 +1  -0.49396409 +1   0.90519464 +1
  H(HETATM    7 1H2  HET A   1)   2.04666831 +1  -0.51298006 +1  -0.89756063 +1
  H(HETATM    8  H3  NH3 B   2)   2.73074586 +1   2.28999333 +1  -0.04273396 +1
  H(HETATM    9 2H1  HET A   1)  -0.48374834 +1  -0.48264815 +1  -0.90422454 +1
  H(HETATM   10 2H2  HET A   1)   2.03848749 +1  -0.52077624 +1   0.91975914 +1
 
 TIME=     0.02
  REACTANTS AND PRODUCTS SWAPPED AROUND
 *+*+*+*+*+*+*+*+*+*+*+*+*+*+*+*+*+*+*+*+*+*+*+*+*+*+*+*+*+*+*+*+*+*+*+*+*+*+*+*+
            BAR SHORTENED BY       1.000 PERCENT
 AT END OF STEPWISE ASCENT OF REACTION BARRIER

 -------------------------------------------------------------------------------
 CVB(3:5) noswap html GEO-OK OPT XYZ
      Hydrazoic acid plus ethylene



     TRANSITION STATE LOCATED USING THE "SADDLE" TECHNIQUE    
     SCF FIELD WAS ACHIEVED                                   


                              PM7 CALCULATION
                                                       MOPAC2016 (Version: 21.151W)
                                                       Wed Jun  2 13:51:01 2021
                                                       No. of days remaining = 363




          FINAL H.O.F PLUS STRESS =        104.44579 KCAL/MOL =     437.00120 KJ/MOL
          FINAL STRESS            =          0.00000 KCAL/MOL =       0.00000 KJ/MOL
          FINAL HEAT OF FORMATION =        104.44579 KCAL/MOL =     437.00120 KJ/MOL
          TOTAL DISTORTION        =          0.00024 Angstroms
          AVERAGE DISTORTION      =          0.00002 Angstroms per atom (all atoms)
          RMS DISTORTION          =          0.00003 Angstroms per atom (all atoms)


          TOTAL ENERGY            =       -868.04534 EV
          ELECTRONIC ENERGY       =      -2953.10863 EV  POINT GROUP:     Cs  
          CORE-CORE REPULSION     =       2085.06329 EV
          COSMO AREA              =        108.10 SQUARE ANGSTROMS
          COSMO VOLUME            =         93.44 CUBIC ANGSTROMS

          GRADIENT NORM           =          0.73197 = 0.23147 PER ATOM
          IONIZATION POTENTIAL    =         10.001278 EV
          HOMO LUMO ENERGIES (EV) =        -10.001 -0.771
          NO. OF FILLED LEVELS    =         14
          MOLECULAR WEIGHT        =         71.0816

          MOLECULAR DIMENSIONS (Angstroms)

            Atom       Atom       Distance
            H     8    H     6     4.36243
            N     3    H    10     3.36619
            H     7    N     4     1.83010


          SCF CALCULATIONS        =       1906
 
          WALL-CLOCK TIME         =          7.078 SECONDS
          COMPUTATION TIME        =          4.750 SECONDS




   ATOM                 CHEMICAL                   X               Y               Z
  NUMBER                 SYMBOL               (ANGSTROMS)     (ANGSTROMS)     (ANGSTROMS)
 
     1       C(HETATM    1  C1  HET A   1)    0.09606348  *  -0.37615019  *   0.00335189  *
     2       C(HETATM    2  C2  HET A   1)    1.46432318  *  -0.40551140  *   0.00858673  *
     3       N(HETATM    3  N1  NH3 B   2)   -0.32922298  *   1.70217900  *   0.02420047  *
     4       N(HETATM    4  N2  NH3 B   2)    0.74003418  *   2.17316434  *   0.01782985  *
     5       N(HETATM    5  N3  NH3 B   2)    1.91500237  *   1.70776486  *   0.02145529  *
     6       H(HETATM    6 1H1  HET A   1)   -0.49131924  *  -0.49396446  *   0.90519310  *
     7       H(HETATM    7 1H2  HET A   1)    2.04666621  *  -0.51298453  *  -0.89756210  *
     8       H(HETATM    8  H3  NH3 B   2)    2.73074882  *   2.29001469  *  -0.04273444  *
     9       H(HETATM    9 2H1  HET A   1)   -0.48374793  *  -0.48264695  *  -0.90422348  *
    10       H(HETATM   10 2H2  HET A   1)    2.03848919  *  -0.52077720  *   0.91975532  *

                             CARTESIAN COORDINATES

   1    C        0.096063475    -0.376150187     0.003351887
   2    C        1.464323176    -0.405511402     0.008586725
   3    N       -0.329222981     1.702178996     0.024200465
   4    N        0.740034179     2.173164341     0.017829851
   5    N        1.915002374     1.707764864     0.021455294
   6    H       -0.491319243    -0.493964458     0.905193101
   7    H        2.046666214    -0.512984525    -0.897562097
   8    H        2.730748822     2.290014694    -0.042734442
   9    H       -0.483747932    -0.482646949    -0.904223482
  10    H        2.038489189    -0.520777202     0.919755317


           Empirical Formula: C2 H5 N3  =    10 atoms



      MOLECULAR POINT GROUP   :   Cs  


                  EIGENVALUES  
 -42.17839 -35.09811 -26.90337 -22.98435 -20.61691 -18.34148 -16.90087 -15.71929
 -15.10404 -14.37543 -12.28273 -11.64536 -10.14201 -10.00128  -0.77067   0.79791
   0.97325   2.36939   5.38290   5.42206   5.43300   6.11334   6.29061   6.39000
   6.49692


              NET ATOMIC CHARGES AND DIPOLE CONTRIBUTIONS

  ATOM NO.                 TYPE                        CHARGE      No. of ELECS.   s-Pop       p-Pop       
    1          C(HETATM    1  C1  HET A   1)          -0.303089        4.3031     1.10186     3.20123
    2          C(HETATM    2  C2  HET A   1)          -0.150729        4.1507     1.11123     3.03950
    3          N(HETATM    3  N1  NH3 B   2)          -0.201483        5.2015     1.86701     3.33447
    4          N(HETATM    4  N2  NH3 B   2)           0.285823        4.7142     1.55199     3.16219
    5          N(HETATM    5  N3  NH3 B   2)          -0.533905        5.5339     1.72994     3.80397
    6          H(HETATM    6 1H1  HET A   1)           0.155369        0.8446     0.84463
    7          H(HETATM    7 1H2  HET A   1)           0.142099        0.8579     0.85790
    8          H(HETATM    8  H3  NH3 B   2)           0.307678        0.6923     0.69232
    9          H(HETATM    9 2H1  HET A   1)           0.154468        0.8455     0.84553
   10          H(HETATM   10 2H2  HET A   1)           0.143768        0.8562     0.85623

          NET CHARGE ON RESIDUES

      Residue         Charge  Anion or
                              Cation?
      HET A   1       +0.142
      NH3 B   2       -0.142
 


 DIPOLE           X         Y         Z       TOTAL
 POINT-CHG.     1.338    -0.254    -0.101     1.366
 HYBRID         0.843     0.455    -0.064     0.960
 SUM            2.181     0.201    -0.165     2.196


          ATOMIC ORBITAL ELECTRON POPULATIONS

                   Atom                  s        px        py        pz   
   C(HETATM    1  C1  HET A   1)   1.10186   1.03123   1.01037   1.15963
   C(HETATM    2  C2  HET A   1)   1.11123   1.02806   0.87302   1.13841
   N(HETATM    3  N1  NH3 B   2)   1.86701   1.07780   0.95032   1.30635
   N(HETATM    4  N2  NH3 B   2)   1.55199   0.97523   1.15177   1.03519
   N(HETATM    5  N3  NH3 B   2)   1.72994   0.99889   1.14767   1.65741
   H(HETATM    6 1H1  HET A   1)   0.84463
   H(HETATM    7 1H2  HET A   1)   0.85790
   H(HETATM    8  H3  NH3 B   2)   0.69232
   H(HETATM    9 2H1  HET A   1)   0.84553
   H(HETATM   10 2H2  HET A   1)   0.85623

 **********************
 *                    *
 * JOB ENDED NORMALLY *
 *                    *
 **********************



 TOTAL JOB TIME:             7.09 SECONDS

 == MOPAC DONE ==
