 *******************************************************************************
 ** Site#: 37037        For non-commercial use only           Version 21.153W **
 *******************************************************************************
 ** Cite this program as: MOPAC2016, Version: 21.153W, James J. P. Stewart,   **
 ** Stewart Computational Chemistry, web: HTTP://OpenMOPAC.net. Days left: 365**
 *******************************************************************************
 **                                                                           **
 **                                MOPAC2016                                  **
 **                                                                           **
 *******************************************************************************

                              PM7 CALCULATION RESULTS

 *******************************************************************************
 *  CALCULATION DONE:                                Wed Jun  2 17:13:36 2021  *
 *  GEO_DAT    - DATA SET GEOMETRY IS IN FILE "SADDLE HCN-HNC.arc"
 *  TS         - USE EF ROUTINE FOR TS SEARCH
 *  T=         - A TIME OF 172800.0 SECONDS REQUESTED
 *  DUMP=N     - RESTART FILE WRITTEN EVERY 7200.0 SECONDS REQUESTED
 *******************************************************************************
geo_dat="SADDLE HCN-HNC.arc" TS


   ATOM                 CHEMICAL                   X               Y               Z
  NUMBER                 SYMBOL               (ANGSTROMS)     (ANGSTROMS)     (ANGSTROMS)
 
     1       H(HETATM    1  H   CYN A   1)    0.10907005  *   0.08140825  *   0.13790679  *
     2       C(HETATM    2  C   CYN A   1)    1.24702612  *   0.80617480  *   0.39324854  *
     3       N(HETATM    3  N   CYN A   1)    1.45360334  *  -0.10410185  *  -0.37371786  *
 

 General Reference for PM7:
 "Optimization of Parameters for Semiempirical Methods VI: More Modifications to the 
 NDDO Approximations and Re-optimization of Parameters", J. J. P. Stewart, J. Mol. Mod., 1:32, 19 (2013)
 https://link.springer.com/article/10.1007/s00894-012-1667-x

           Empirical Formula: C H N  =     3 atoms



      MOLECULAR POINT GROUP   :   Cs  


      RHF CALCULATION, NO. OF DOUBLY OCCUPIED LEVELS = 5


          Transition state refinement using EF

          HESSIAN CALCULATED NUMERICALLY

 CYCLE:     1 TIME:   0.016 TIME LEFT:  2.00D  GRAD.:    23.977 HEAT:  115.3166
 CYCLE:     2 TIME:   0.000 TIME LEFT:  2.00D  GRAD.:     4.710 HEAT:  115.9222
 CYCLE:     3 TIME:   0.000 TIME LEFT:  2.00D  GRAD.:     0.396 HEAT:  115.9291

     GRADIENT =  0.39603 IS LESS THAN CUTOFF =  1.00000



 -------------------------------------------------------------------------------
 TS




     GEOMETRY OPTIMISED USING EIGENVECTOR FOLLOWING (TS).     
     SCF FIELD WAS ACHIEVED                                   


                              PM7 CALCULATION
                                                       MOPAC2016 (Version: 21.153W)
                                                       Wed Jun  2 17:13:36 2021
                                                       No. of days remaining = 365




          FINAL HEAT OF FORMATION =        115.92907 KCAL/MOL =     485.04725 KJ/MOL


          TOTAL ENERGY            =       -317.98329 EV
          ELECTRONIC ENERGY       =       -577.41482 EV  POINT GROUP:     Cs  
          CORE-CORE REPULSION     =        259.43153 EV
          COSMO AREA              =         62.72 SQUARE ANGSTROMS
          COSMO VOLUME            =         45.27 CUBIC ANGSTROMS

          GRADIENT NORM           =          0.39603 = 0.22865 PER ATOM
          IONIZATION POTENTIAL    =         11.471200 EV
          HOMO LUMO ENERGIES (EV) =        -11.471 -0.294
          NO. OF FILLED LEVELS    =          5
          MOLECULAR WEIGHT        =         27.0256

          MOLECULAR DIMENSIONS (Angstroms)

            Atom       Atom       Distance
            N     3    H     1     1.49219
            H     1    C     2     1.02198
            N     3    C     2     0.00000


          SCF CALCULATIONS        =         13
 
          WALL-CLOCK TIME         =          0.031 SECONDS
          COMPUTATION TIME        =          0.031 SECONDS




   ATOM                 CHEMICAL                   X               Y               Z
  NUMBER                 SYMBOL               (ANGSTROMS)     (ANGSTROMS)     (ANGSTROMS)
 
     1       H(HETATM    1  H   CYN A   1)    0.10120696  *   0.12313007  *   0.17262217  *
     2       C(HETATM    2  C   CYN A   1)    1.23235182  *   0.79418848  *   0.38789473  *
     3       N(HETATM    3  N   CYN A   1)    1.46930135  *  -0.10419415  *  -0.37807253  *

                             CARTESIAN COORDINATES

   1    H        0.101206956     0.123130069     0.172622173
   2    C        1.232351824     0.794188479     0.387894726
   3    N        1.469301353    -0.104194149    -0.378072531


           Empirical Formula: C H N  =     3 atoms



      MOLECULAR POINT GROUP   :   Cs  


                  EIGENVALUES  
 -35.78994 -18.01251 -15.56875 -13.32335 -11.47120  -0.29428   1.19194   1.87003
   5.32378


              NET ATOMIC CHARGES AND DIPOLE CONTRIBUTIONS

  ATOM NO.                 TYPE                        CHARGE      No. of ELECS.   s-Pop       p-Pop       
    1          H(HETATM    1  H   CYN A   1)           0.351797        0.6482     0.64820
    2          C(HETATM    2  C   CYN A   1)           0.065506        3.9345     1.58862     2.34587
    3          N(HETATM    3  N   CYN A   1)          -0.417302        5.4173     1.84195     3.57535

          NET CHARGE ON RESIDUES

      Residue         Charge  Anion or
                              Cation?
      CYN A   1       +0.000
 


 DIPOLE           X         Y         Z       TOTAL
 POINT-CHG.    -2.386     0.667     1.172     2.741
 HYBRID        -0.209    -0.802    -0.569     1.006
 SUM           -2.595    -0.135     0.602     2.667


          ATOMIC ORBITAL ELECTRON POPULATIONS

                   Atom                  s        px        py        pz   
   H(HETATM    1  H   CYN A   1)   0.64820
   C(HETATM    2  C   CYN A   1)   1.58862   0.62287   0.89197   0.83103
   N(HETATM    3  N   CYN A   1)   1.84195   0.90133   1.33338   1.34064
 *******************************************************************************
 ** Site#: 37037        For non-commercial use only           Version 21.153W **
 *******************************************************************************
 ** Cite this program as: MOPAC2016, Version: 21.153W, James J. P. Stewart,   **
 ** Stewart Computational Chemistry, web: HTTP://OpenMOPAC.net. Days left: 365**
 *******************************************************************************
 **                                                                           **
 **                                MOPAC2016                                  **
 **                                                                           **
 *******************************************************************************

                              PM7 CALCULATION RESULTS

 *******************************************************************************
 *  CALCULATION DONE:                                Wed Jun  2 17:13:36 2021  *
 *  IRC=N      - INTRINSIC REACTION COORDINATE  1 DEFINED
 *  DRC        - DYNAMIC REACTION COORDINATE CALCULATION
 *  OLDGEO     - PREVIOUS GEOMETRY TO BE USED
 *  T=         - A TIME OF 172800.0 SECONDS REQUESTED
 *  DUMP=N     - RESTART FILE WRITTEN EVERY 7200.0 SECONDS REQUESTED
 *  CYCLES=    - DO A MAXIMUM OF 200 STEPS
 *  HTML       - WRITE HTML SCRIPT TO GENERATE ANIMATION USING JSMOL
 *             - TO DISPLAY IN PDB FORMAT, ADD "PDBOUT"
 *  T-PRIOR    - TIME TAKES PRIORITY IN DRC
 *******************************************************************************
HTML IRC=1*  oldgeo DRC T-priority=0.5 cycles=200
  Dynamic reaction coordinate for HCN <=> HNC Reaction

   ATOM                 CHEMICAL                   X               Y               Z
  NUMBER                 SYMBOL               (ANGSTROMS)     (ANGSTROMS)     (ANGSTROMS)
 
     1       H(HETATM    1  H   CYN A   1)    0.10120696  *   0.12313007  *   0.17262217  *
     2       C(HETATM    2  C   CYN A   1)    1.23235182  *   0.79418848  *   0.38789473  *
     3       N(HETATM    3  N   CYN A   1)    1.46930135  *  -0.10419415  *  -0.37807253  *
 

 General Reference for PM7:
 "Optimization of Parameters for Semiempirical Methods VI: More Modifications to the 
 NDDO Approximations and Re-optimization of Parameters", J. J. P. Stewart, J. Mol. Mod., 1:32, 19 (2013)
 https://link.springer.com/article/10.1007/s00894-012-1667-x

           Empirical Formula: C H N  =     3 atoms



      MOLECULAR POINT GROUP   :   Cs  


      RHF CALCULATION, NO. OF DOUBLY OCCUPIED LEVELS = 5



          HEAT OF FORMATION =     115.929075 KCALS/MOLE


          GRADIENT NORM =   0.44053

          MOLECULAR WEIGHT =   27.03


          ESTIMATED TIME TO COMPLETE CALCULATION =        0.00 SECONDS

    FOR POINT-GROUP Cs   THERE ARE   2 UNIQUE SYMMETRY FUNCTIONS.

 STEP:   1 TIME =     0.00 SECS, INTEGRAL =      0.00 TIME LEFT: 172800.00
 STEP:   2 TIME =     0.00 SECS, INTEGRAL =      0.00 TIME LEFT: 172800.00
 STEP:   3 TIME =     0.00 SECS, INTEGRAL =      0.00 TIME LEFT: 172800.00
 STEP:   4 TIME =     0.02 SECS, INTEGRAL =      0.02 TIME LEFT: 172799.98
 STEP:   5 TIME =     0.00 SECS, INTEGRAL =      0.02 TIME LEFT: 172799.98
 STEP:   6 TIME =     0.00 SECS, INTEGRAL =      0.02 TIME LEFT: 172799.98
 STEP:   7 TIME =     0.00 SECS, INTEGRAL =      0.02 TIME LEFT: 172799.98
 STEP:   8 TIME =     0.00 SECS, INTEGRAL =      0.02 TIME LEFT: 172799.98
 STEP:   9 TIME =     0.00 SECS, INTEGRAL =      0.02 TIME LEFT: 172799.98
           INITIAL VELOCITY IN DRC (Angstroms/Femtosecond)
        -0.26744         0.79908         0.00000
         0.08775        -0.02801         0.00000
        -0.05600        -0.03348        -0.00000
 THE VIBRATIONAL FREQUENCY ( -1360.61CM(-1)) IS TOO SMALL
 FOR ONE QUANTUM TO BE USED
 INSTEAD 0.3KCAL/MOLE WILL BE USED TO START THE IRC

 TIME PRIORITY, INTERVAL = 0.50 FEMTOSECONDS



 FEMTOSECONDS  POINT  POTENTIAL + KINETIC  =   TOTAL     ERROR    REF%   MOVEMENT
     0.000       1   115.92912    0.30000   116.22912   0.00000     1   %  0.0000
     0.500       5   115.92321    0.30562   116.22882  -0.00030     2   %  0.0085
     1.000       5   115.90679    0.32197   116.22876  -0.00036     3   %  0.0171
     1.500      12   115.87855    0.35054   116.22909  -0.00003     4   %  0.0261
     2.000      15   115.83703    0.39204   116.22907  -0.00005     5   %  0.0355
     2.500      17   115.77961    0.44944   116.22905  -0.00007     6   %  0.0455
     3.000      19   115.70277    0.52625   116.22902  -0.00010     7   %  0.0562
     3.500      21   115.60192    0.62706   116.22898  -0.00014     8   %  0.0679
     4.000      23   115.47117    0.75775   116.22892  -0.00020     9   %  0.0807
     4.500      25   115.30293    0.92592   116.22884  -0.00027    10   %  0.0949
     5.000      26   115.08797    1.14078   116.22875  -0.00037    11   %  0.1105
     5.500      28   114.81461    1.41403   116.22864  -0.00048    12   %  0.1279
     6.000      29   114.46935    1.75913   116.22849  -0.00063    13   %  0.1473
     6.500      30   114.03429    2.19426   116.22855  -0.00057    14   %  0.1690
     7.000      32   113.49041    2.73828   116.22868  -0.00043    15   %  0.1932
     7.500      33   112.81395    3.41488   116.22883  -0.00029    16   %  0.2202
     8.000      35   111.97834    4.25065   116.22899  -0.00012    17   %  0.2504
     8.500      37   110.95264    5.27653   116.22917   0.00006    18   %  0.2840
     9.000      38   109.70457    6.52477   116.22934   0.00023    19   %  0.3215
     9.500      40   108.19756    8.03193   116.22949   0.00039    20   %  0.3630
    10.000      42   106.39399    9.83563   116.22963   0.00052    21   %  0.4091
    10.500      44   104.25642   11.97332   116.22974   0.00064    22   %  0.4600
    11.000      45   101.75016   14.47975   116.22991   0.00081    23   %  0.5161
    11.500      47    98.84646   17.38383   116.23028   0.00120    24   %  0.5776
    12.000      49    95.52756   20.70364   116.23120   0.00212    25   %  0.6448
    12.500      51    91.79417   24.43827   116.23244   0.00337    26   %  0.7180
    13.000      54    87.67280   28.55906   116.23186   0.00279    27   %  0.7973
    13.500      57    83.22359   33.00855   116.23214   0.00309    28   %  0.8826
    14.000      61    78.54470   37.68684   116.23154   0.00250    29   %  0.9741
    14.500      66    73.77316   42.45786   116.23102   0.00200    30   %  1.0713
    15.000      71    69.07805   47.15316   116.23122   0.00221    31   %  1.1739
    15.500      76    64.64877   51.58259   116.23135   0.00236    32   %  1.2812
    16.000      81    60.67826   55.55309   116.23135   0.00238    33   %  1.3926
    16.500      86    57.34433   58.88682   116.23114   0.00219    34   %  1.5069
    17.000      91    54.78991   61.44073   116.23064   0.00171    35   %  1.6232
    17.500      96    53.10426   63.12558   116.22984   0.00092    36   %  1.7400
    18.000     101    52.30861   63.92035   116.22896   0.00007    37   %  1.8561
    18.500     106    52.35117   63.87738   116.22854  -0.00032    38   %  1.9700
    19.000     111    53.11464   63.11412   116.22876  -0.00009    39   %  2.0804
    19.500     116    54.43456   61.79456   116.22911   0.00029    40   %  2.1859
    20.000     121    56.12290   60.10645   116.22935   0.00055    41   %  2.2854
    20.500     126    57.99009   58.23937   116.22946   0.00068    42   %  2.3779
    21.000     131    59.86119   56.36830   116.22949   0.00072    43   %  2.4627
    21.500     136    61.58547   54.64399   116.22945   0.00071    44   %  2.5390
    22.000     141    63.04176   53.18761   116.22938   0.00065    45   %  2.6065
    22.500     146    64.14287   52.08640   116.22927   0.00056    46   %  2.6648
    23.000     151    64.84187   51.38724   116.22911   0.00042    47   %  2.7138
    23.500     156    65.14192   51.08697   116.22889   0.00022    48   %  2.7536
    24.000     161    65.10878   51.11984   116.22861  -0.00004    49   %  2.7843
    24.500     166    64.88324   51.34516   116.22840  -0.00024    50   %  2.8064
    25.000     171    64.68711   51.54138   116.22848  -0.00014    51   %  2.8205
    25.500     176    64.81333   51.41548   116.22881   0.00021    52   %  2.8275
    26.000     181    65.58956   50.63946   116.22902   0.00043    53   %  2.8287
    26.500     186    67.31070   48.91825   116.22894   0.00038    54   %  2.8255
    27.000     191    70.15218   46.07646   116.22864   0.00009    55   %  2.8198
    27.500     196    74.09587   42.13241   116.22828  -0.00026    56   %  2.8136
    28.000     201    78.90694   37.32109   116.22802  -0.00050    57   %  2.8088
    28.500     206    84.18119   32.04678   116.22797  -0.00054    58   %  2.8072
    29.000     211    89.44789   26.78019   116.22808  -0.00041    59   %  2.8103
    29.500     216    94.28737   21.94092   116.22829  -0.00020    60   %  2.8191
    30.000     221    98.41978   17.80871   116.22849   0.00001    61   %  2.8340
    30.500     226   101.73978   14.48884   116.22862   0.00015    62   %  2.8549
    31.000     231   104.29696   11.93171   116.22867   0.00020    63   %  2.8812
    31.500     236   106.24085    9.98780   116.22865   0.00018    64   %  2.9117
    32.000     241   107.75484    8.47373   116.22857   0.00010    65   %  2.9452
    32.500     246   108.99986    7.22861   116.22846   0.00000    66   %  2.9803
    33.000     251   110.07991    6.14846   116.22836  -0.00010    67   %  3.0154
    33.500     256   111.03248    5.19580   116.22829  -0.00017    68   %  3.0492
    34.000     260   111.83956    4.38860   116.22816  -0.00030    69   %  3.0804
    34.500     264   112.45039    3.77763   116.22803  -0.00043    70   %  3.1078
    35.000     268   112.80732    3.42082   116.22814  -0.00031    71   %  3.1306
    35.500     272   112.86803    3.36030   116.22833  -0.00013    72   %  3.1481
    36.000     277   112.61945    3.60892   116.22837  -0.00008    73   %  3.1598
    36.500     282   112.08300    4.14540   116.22840  -0.00005    74   %  3.1655
    37.000     287   111.31112    4.91730   116.22842  -0.00003    75   %  3.1650
    37.500     292   110.37627    5.85215   116.22842  -0.00003    76   %  3.1583
    38.000     297   109.35396    6.87445   116.22841  -0.00004    77   %  3.1456
    38.500     302   108.30214    7.92624   116.22838  -0.00006    78   %  3.1272
    39.000     307   107.24060    8.98776   116.22835  -0.00009    79   %  3.1036
    39.500     312   106.13486   10.09348   116.22834  -0.00010    80   %  3.0751
    40.000     317   104.88992   11.33843   116.22835  -0.00008    81   %  3.0424
    40.500     322   103.35766   12.87073   116.22839  -0.00004    82   %  3.0061
    41.000     327   101.35949   14.86896   116.22845   0.00003    83   %  2.9672
    41.500     332    98.72104   17.50750   116.22853   0.00012    84   %  2.9266
    42.000     336    95.31190   20.91690   116.22880   0.00038    85   %  2.8853
    42.500     341    91.08137   25.14738   116.22875   0.00035    86   %  2.8445
    43.000     346    86.08164   30.14724   116.22887   0.00048    87   %  2.8054
    43.500     351    80.47341   35.75560   116.22901   0.00063    88   %  2.7693
    44.000     356    74.51723   41.71194   116.22917   0.00080    89   %  2.7374
    44.500     361    68.55760   47.67177   116.22937   0.00102    90   %  2.7104
    45.000     366    63.00640   53.22316   116.22956   0.00122    91   %  2.6887
    45.500     371    58.31788   57.91170   116.22958   0.00127    92   %  2.6723
    46.000     376    54.93374   61.29558   116.22933   0.00103    93   %  2.6604
    46.500     381    53.18899   63.03988   116.22887   0.00059    94   %  2.6515
    47.000     386    53.21097   63.01742   116.22839   0.00014    95   %  2.6439
    47.500     391    54.86732   61.36070   116.22802  -0.00021    96   %  2.6356
    48.000     396    57.79269   58.43509   116.22778  -0.00043    97   %  2.6245
    48.500     401    61.47719   54.75051   116.22770  -0.00049    98   %  2.6089
    49.000     406    65.37382   50.85393   116.22775  -0.00042    99   %  2.5872
    49.500     411    68.98791   47.23995   116.22786  -0.00029   100   %  2.5581
    50.000     416    71.93154   44.29643   116.22797  -0.00017   101   %  2.5208
    50.500     421    73.94400   42.28402   116.22801  -0.00011   102   %  2.4746
    51.000     426    74.88886   41.33911   116.22798  -0.00013   103   %  2.4191
    51.500     431    74.73930   41.48856   116.22786  -0.00023   104   %  2.3542
    52.000     436    73.56066   42.66708   116.22774  -0.00034   105   %  2.2800
    52.500     441    71.49617   44.73150   116.22767  -0.00039   106   %  2.1969
    53.000     446    68.75919   47.46850   116.22769  -0.00036   107   %  2.1054
    53.500     451    65.63372   50.59408   116.22780  -0.00023   108   %  2.0063
    54.000     456    62.48274   53.74523   116.22797  -0.00005   109   %  1.9007
    54.500     461    59.75871   56.46945   116.22816   0.00017   110   %  1.7900
    55.000     466    58.00029   58.22799   116.22828   0.00030   111   %  1.6761
    55.500     471    57.78577   58.44240   116.22817   0.00022   112   %  1.5611
    56.000     476    59.61001   56.61773   116.22773  -0.00020   113   %  1.4475
    56.500     481    63.68377   52.54327   116.22703  -0.00088   114   %  1.3378
    57.000     486    69.72911   46.49732   116.22644  -0.00146   115   %  1.2342
    57.500     491    76.90956   39.31681   116.22637  -0.00152   116   %  1.1381
    58.000     496    84.00613   32.22085   116.22698  -0.00089   117   %  1.0502
    58.500     501    89.81617   26.41180   116.22797   0.00011   118   %  0.9700
    59.000     506    93.59383   22.63495   116.22878   0.00093   119   %  0.8969
    59.500     511    95.29524   20.93381   116.22905   0.00121   120   %  0.8302
    60.000     516    95.50920   20.71962   116.22882   0.00098   121   %  0.7700
    60.500     521    95.14960   21.07871   116.22830   0.00047   122   %  0.7172
    61.000     526    95.09306   21.13467   116.22773  -0.00009   123   %  0.6730
    61.500     531    95.92040   20.30689   116.22729  -0.00053   124   %  0.6388
    62.000     536    97.82599   18.40106   116.22704  -0.00077   125   %  0.6153
    62.500     541   100.66825   15.55874   116.22699  -0.00082   126   %  0.6023
    63.000     546   104.09034   12.13673   116.22707  -0.00073   127   %  0.5989
    63.500     551   107.64560    8.58162   116.22722  -0.00058   128   %  0.6029
    64.000     556   110.89233    5.33504   116.22737  -0.00042   129   %  0.6120
    64.500     561   113.45049    2.77702   116.22752  -0.00028   130   %  0.6239
    65.000     566   115.02841    1.19913   116.22755  -0.00025   131   %  0.6370
    65.500     570   115.43097    0.79671   116.22768  -0.00011   132   %  0.6504
    66.000     573   114.56135    1.66661   116.22796   0.00017   133   %  0.6636
    66.500     576   112.42169    3.80669   116.22838   0.00059   134   %  0.6772
    67.000     580   109.11436    7.11363   116.22800   0.00021   135   %  0.6923
    67.500     585   104.84449   11.38359   116.22808   0.00029   136   %  0.7104
    68.000     590    99.91878   16.30939   116.22817   0.00039   137   %  0.7336
    68.500     595    94.73146   21.49678   116.22824   0.00046   138   %  0.7639
    69.000     600    89.72247   26.50576   116.22823   0.00047   139   %  0.8028
    69.500     605    85.29390   30.93421   116.22811   0.00036   140   %  0.8515
    70.000     610    81.68304   34.54484   116.22788   0.00014   141   %  0.9102
    70.500     615    78.82460   37.40308   116.22768  -0.00005   142   %  0.9787
    71.000     620    76.28146   39.94640   116.22786   0.00014   143   %  1.0566
    71.500     625    73.34793   42.88086   116.22878   0.00108   144   %  1.1433
    72.000     630    69.37825   46.85228   116.23053   0.00285   145   %  1.2383
    72.500     635    64.23871   51.99368   116.23240   0.00473   146   %  1.3415
    73.000     640    58.58120   57.65183   116.23303   0.00538   147   %  1.4525
    73.500     645    53.62886   62.60290   116.23176   0.00413   148   %  1.5702
    74.000     650    50.55685   65.67258   116.22943   0.00183   149   %  1.6930
    74.500     655    49.93696   66.29052   116.22748  -0.00011   150   %  1.8181
    75.000     660    51.59948   64.62701   116.22649  -0.00108   151   %  1.9427
    75.500     665    54.87762   61.34865   116.22626  -0.00128   152   %  2.0641
    76.000     670    58.97192   57.25454   116.22645  -0.00107   153   %  2.1799
    76.500     675    63.21243   53.01433   116.22677  -0.00073   154   %  2.2881
    77.000     680    67.15297   49.07406   116.22703  -0.00045   155   %  2.3875
    77.500     685    70.54378   45.68342   116.22720  -0.00027   156   %  2.4771
    78.000     690    73.25603   42.97124   116.22727  -0.00018   157   %  2.5563
    78.500     695    75.21116   41.01614   116.22730  -0.00013   158   %  2.6245
    79.000     700    76.33952   39.88779   116.22731  -0.00011   159   %  2.6815
    79.500     705    76.57279   39.65454   116.22733  -0.00008   160   %  2.7272
    80.000     710    75.86482   40.36255   116.22737  -0.00002   161   %  2.7613
    80.500     715    74.23293   41.99452   116.22745   0.00007   162   %  2.7842
    81.000     720    71.81067   44.41689   116.22756   0.00019   163   %  2.7962
    81.500     725    68.89991   47.32778   116.22769   0.00034   164   %  2.7979
    82.000     730    66.00156   50.22622   116.22778   0.00045   165   %  2.7907
    82.500     735    63.79100   52.43672   116.22772   0.00041   166   %  2.7762
    83.000     740    62.99903   53.22834   116.22737   0.00007   167   %  2.7567
    83.500     745    64.18527   52.04142   116.22669  -0.00059   168   %  2.7351
    84.000     750    67.46897   48.75691   116.22587  -0.00139   169   %  2.7147
    84.500     755    72.37514   43.85025   116.22539  -0.00185   170   %  2.6989
    85.000     760    77.95382   38.27182   116.22564  -0.00160   171   %  2.6908
    85.500     765    83.16389   33.06257   116.22645  -0.00077   172   %  2.6925
    86.000     770    87.29383   28.93344   116.22727   0.00006   173   %  2.7052
    86.500     775    90.15733   26.07036   116.22768   0.00048   174   %  2.7287
    87.000     780    92.01198   24.21573   116.22771   0.00052   175   %  2.7620
    87.500     785    93.34160   22.88593   116.22752   0.00034   176   %  2.8033
    88.000     790    94.64340   21.58384   116.22724   0.00006   177   %  2.8502
    88.500     795    96.28312   19.94385   116.22696  -0.00020   178   %  2.9005
    89.000     800    98.43029   17.79648   116.22676  -0.00040   179   %  2.9518
    89.500     805   101.06259   15.16407   116.22666  -0.00050   180   %  3.0021
    90.000     810   104.01473   12.21192   116.22665  -0.00050   181   %  3.0497
    90.500     815   107.04403    9.18268   116.22671  -0.00044   182   %  3.0930
    91.000     820   109.89115    6.33561   116.22676  -0.00039   183   %  3.1310
    91.500     824   112.32456    3.90209   116.22665  -0.00050   184   %  3.1628
    92.000     827   114.16656    2.06007   116.22663  -0.00051   185   %  3.1877
    92.500     830   115.30429    0.92246   116.22675  -0.00039   186   %  3.2053
    93.000     834   115.68756    0.53958   116.22714  -0.00000   187   %  3.2152
    93.500     839   115.32076    0.90641   116.22716   0.00002   188   %  3.2173
    94.000     844   114.25066    1.97652   116.22718   0.00004   189   %  3.2114
    94.500     849   112.55522    3.67199   116.22720   0.00006   190   %  3.1977
    95.000     854   110.33610    5.89115   116.22725   0.00011   191   %  3.1761
    95.500     859   107.71656    8.51076   116.22732   0.00019   192   %  3.1470
    96.000     864   104.84396   11.38347   116.22743   0.00030   193   %  3.1108
    96.500     869   101.89343   14.33414   116.22756   0.00044   194   %  3.0681
    97.000     874    99.06581   17.16189   116.22770   0.00058   195   %  3.0200
    97.500     879    96.56993   19.65787   116.22780   0.00068   196   %  2.9677
    98.000     884    94.57945   21.64835   116.22779   0.00068   197   %  2.9129
    98.500     889    93.16117   23.06645   116.22762   0.00052   198   %  2.8579
    99.000     894    92.18736   24.03992   116.22728   0.00019   199   %  2.8051
    99.500     899    91.26860   24.95828   116.22688  -0.00021   200   %  2.7574


           INITIAL VELOCITY IN DRC (Angstroms/Femtosecond)
         0.26744        -0.79908        -0.00000
        -0.08775         0.02801        -0.00000
         0.05600         0.03348         0.00000
 THE VIBRATIONAL FREQUENCY ( -1360.61CM(-1)) IS TOO SMALL
 FOR ONE QUANTUM TO BE USED
 INSTEAD 0.3KCAL/MOLE WILL BE USED TO START THE IRC

 TIME PRIORITY, INTERVAL = 0.50 FEMTOSECONDS



 FEMTOSECONDS  POINT  POTENTIAL + KINETIC  =   TOTAL     ERROR    REF%   MOVEMENT
     0.000       1   115.92907    0.30000   116.22907   0.00000     1   %  0.0000
     0.500       5   115.92459    0.30422   116.22881  -0.00027     2   %  0.0085
     1.000       5   115.90943    0.31928   116.22871  -0.00036     3   %  0.0171
     1.500      12   115.88209    0.34694   116.22903  -0.00005     4   %  0.0260
     2.000      15   115.84086    0.38814   116.22900  -0.00008     5   %  0.0353
     2.500      17   115.78256    0.44639   116.22895  -0.00012     6   %  0.0453
     3.000      19   115.70284    0.52604   116.22888  -0.00019     7   %  0.0560
     3.500      21   115.59580    0.63297   116.22877  -0.00030     8   %  0.0678
     4.000      23   115.45346    0.77514   116.22860  -0.00047     9   %  0.0807
     4.500      25   115.26497    0.96338   116.22834  -0.00073    10   %  0.0950
     5.000      26   115.01628    1.21162   116.22791  -0.00117    11   %  0.1111
     5.500      28   114.68852    1.53943   116.22795  -0.00112    12   %  0.1291
     6.000      30   114.25707    1.97090   116.22797  -0.00110    13   %  0.1495
     6.500      32   113.69026    2.53776   116.22802  -0.00105    14   %  0.1726
     7.000      34   112.94694    3.28113   116.22807  -0.00100    15   %  0.1988
     7.500      37   111.97587    4.25223   116.22810  -0.00097    16   %  0.2286
     8.000      40   110.71320    5.51494   116.22814  -0.00093    17   %  0.2625
     8.500      43   109.08350    7.14469   116.22818  -0.00088    18   %  0.3011
     9.000      47   107.00159    9.22666   116.22825  -0.00081    19   %  0.3451
     9.500      50   104.37809   11.85030   116.22839  -0.00067    20   %  0.3949
    10.000      54   101.12943   15.09924   116.22868  -0.00038    21   %  0.4512
    10.500      57    97.19321   19.03632   116.22953   0.00049    22   %  0.5145
    11.000      60    92.54547   23.68515   116.23062   0.00158    23   %  0.5853
    11.500      62    87.21931   29.01304   116.23235   0.00332    24   %  0.6638
    12.000      65    81.31701   34.91607   116.23308   0.00406    25   %  0.7502
    12.500      69    75.01652   41.21652   116.23304   0.00403    26   %  0.8443
    13.000      73    68.56188   47.66960   116.23148   0.00249    27   %  0.9457
    13.500      78    62.24878   53.98247   116.23126   0.00229    28   %  1.0536
    14.000      83    56.39620   59.83524   116.23144   0.00249    29   %  1.1673
    14.500      88    51.31420   64.91723   116.23143   0.00250    30   %  1.2854
    15.000      93    47.26763   68.96358   116.23121   0.00230    31   %  1.4065
    15.500      98    44.44258   71.78816   116.23074   0.00186    32   %  1.5292
    16.000     103    42.92284   73.30729   116.23012   0.00127    33   %  1.6517
    16.500     108    42.68272   73.54671   116.22943   0.00060    34   %  1.7723
    17.000     113    43.59848   72.63030   116.22878  -0.00003    35   %  1.8895
    17.500     118    45.47430   70.75403   116.22833  -0.00045    36   %  2.0016
    18.000     123    48.07453   68.15366   116.22819  -0.00056    37   %  2.1074
    18.500     128    51.15344   65.07489   116.22834  -0.00040    38   %  2.2056
    19.000     133    54.47706   61.75154   116.22860  -0.00011    39   %  2.2953
    19.500     138    57.83613   58.39275   116.22889   0.00020    40   %  2.3757
    20.000     143    61.05287   55.17629   116.22916   0.00049    41   %  2.4462
    20.500     148    63.98519   52.24419   116.22938   0.00073    42   %  2.5065
    21.000     153    66.53189   49.69765   116.22953   0.00090    43   %  2.5563
    21.500     158    68.64098   47.58863   116.22962   0.00100    44   %  2.5956
    22.000     163    70.32143   45.90821   116.22965   0.00104    45   %  2.6245
    22.500     168    71.65702   44.57264   116.22966   0.00107    46   %  2.6434
    23.000     173    72.81809   43.41157   116.22966   0.00109    47   %  2.6529
    23.500     178    74.06385   42.16579   116.22964   0.00109    48   %  2.6539
    24.000     183    75.72383   40.50573   116.22955   0.00101    49   %  2.6476
    24.500     188    78.14709   38.08224   116.22933   0.00080    50   %  2.6355
    25.000     193    81.61528   34.61368   116.22895   0.00044    51   %  2.6196
    25.500     198    86.23387   29.99458   116.22844  -0.00006    52   %  2.6020
    26.000     203    91.83857   24.38936   116.22793  -0.00057    53   %  2.5849
    26.500     208    97.96463   18.26294   116.22757  -0.00092    54   %  2.5706
    27.000     213   103.91290   12.31460   116.22750  -0.00098    55   %  2.5613
    27.500     218   108.91049    7.31727   116.22775  -0.00073    56   %  2.5586
    28.000     223   112.32075    3.90749   116.22824  -0.00024    57   %  2.5634
    28.500     228   113.82837    2.40040   116.22877   0.00029    58   %  2.5764
    29.000     233   113.52716    2.70189   116.22905   0.00058    59   %  2.5970
    29.500     238   111.87332    4.35579   116.22911   0.00063    60   %  2.6243
    30.000     243   109.52215    6.70677   116.22893   0.00045    61   %  2.6567
    30.500     248   107.12102    9.10754   116.22856   0.00008    62   %  2.6921
    31.000     253   105.14077   11.08737   116.22814  -0.00033    63   %  2.7286
    31.500     258   103.79676   12.43105   116.22781  -0.00065    64   %  2.7637
    32.000     263   103.06143   13.16624   116.22766  -0.00080    65   %  2.7956
    32.500     268   102.73216   13.49553   116.22769  -0.00077    66   %  2.8223
    33.000     273   102.51208   13.71578   116.22786  -0.00059    67   %  2.8424
    33.500     278   102.07632   14.15179   116.22811  -0.00033    68   %  2.8545
    34.000     283   101.11585   15.11250   116.22835  -0.00009    69   %  2.8577
    34.500     288    99.36374   16.86474   116.22848   0.00004    70   %  2.8511
    35.000     293    96.61218   19.61636   116.22854   0.00011    71   %  2.8342
    35.500     297    92.72779   23.50091   116.22869   0.00027    72   %  2.8067
    36.000     301    87.66921   28.55997   116.22919   0.00078    73   %  2.7684
    36.500     305    81.50759   34.72263   116.23022   0.00182    74   %  2.7194
    37.000     308    74.44224   41.78813   116.23038   0.00199    75   %  2.6600
    37.500     312    66.80341   49.42560   116.22900   0.00063    76   %  2.5911
    38.000     317    59.02259   57.20630   116.22889   0.00054    77   %  2.5138
    38.500     322    51.56983   64.65890   116.22873   0.00040    78   %  2.4294
    39.000     327    44.87312   71.35547   116.22859   0.00028    79   %  2.3399
    39.500     332    39.25873   76.96993   116.22866   0.00038    80   %  2.2470
    40.000     337    34.95332   81.27579   116.22911   0.00085    81   %  2.1527
    40.500     342    32.14435   84.08544   116.22979   0.00157    82   %  2.0586
    41.000     347    31.03673   85.19260   116.22933   0.00114    83   %  1.9660
    41.500     352    31.83114   84.39750   116.22864   0.00048    84   %  1.8758
    42.000     357    34.61711   81.61160   116.22871   0.00058    85   %  1.7886
    42.500     362    39.25937   76.96895   116.22833   0.00022    86   %  1.7044
    43.000     367    45.36859   70.85932   116.22791  -0.00017    87   %  1.6231
    43.500     372    52.38034   63.84733   116.22768  -0.00038    88   %  1.5442
    44.000     377    59.68948   56.53817   116.22765  -0.00039    89   %  1.4673
    44.500     382    66.76806   49.45969   116.22775  -0.00027    90   %  1.3917
    45.000     387    73.22648   43.00143   116.22791  -0.00010    91   %  1.3167
    45.500     392    78.81861   37.40946   116.22807   0.00008    92   %  1.2420
    46.000     397    83.41502   32.81322   116.22824   0.00026    93   %  1.1670
    46.500     402    86.96984   29.25858   116.22842   0.00045    94   %  1.0916


 GRADIENT CONSTANT AND SMALL -- ASSUME ALL MOTION STOPPED
 TO CONTINUE, USE KEYWORD 'GNORM=0'

 **********************
 *                    *
 * JOB ENDED NORMALLY *
 *                    *
 **********************



 TOTAL JOB TIME:             3.48 SECONDS

 == MOPAC DONE ==
