 *******************************************************************************
 ** Site#: 37037        For non-commercial use only           Version 21.153W **
 *******************************************************************************
 ** Cite this program as: MOPAC2016, Version: 21.153W, James J. P. Stewart,   **
 ** Stewart Computational Chemistry, web: HTTP://OpenMOPAC.net. Days left: 365**
 *******************************************************************************
 **                                                                           **
 **                                MOPAC2016                                  **
 **                                                                           **
 *******************************************************************************

                              PM7 CALCULATION RESULTS

 *******************************************************************************
 *  CALCULATION DONE:                                Wed Jun  2 17:06:31 2021  *
 *  GEO-OK     - OVERRIDE INTERATOMIC DISTANCE AND OTHER SAFETY CHECKS
 *  GEO_DAT    - DATA SET GEOMETRY IS IN FILE "HCN for TS.arc"
 *  GEO_REF    - REFERENCE GEOMETRY IS IN FILE "HNC for TS.arc"
 *               (NO BIAS TOWARDS THE REFERENCE GEOMETRY WILL BE APPLIED)
 *  SADDLE     - TRANSITION STATE TO BE OPTIMIZED
 *  T=         - A TIME OF 172800.0 SECONDS REQUESTED
 *  DUMP=N     - RESTART FILE WRITTEN EVERY 7200.0 SECONDS REQUESTED
 *******************************************************************************
geo_dat="HCN for TS.arc" geo_ref="HNC for TS.arc" saddle geo-ok
 Locate and refine the transition state for the HNC - HCN isomerization
 (Geometry data for reactant and products are in other files.)
   ATOM                 CHEMICAL                   X               Y               Z
  NUMBER                 SYMBOL               (ANGSTROMS)     (ANGSTROMS)     (ANGSTROMS)
 
     1       H(HETATM    1  H   CYN A   1)    0.00000000  *   0.00000000  *   0.00000000  *
     2       C(HETATM    2  C   CYN A   1)    1.04916049  *   0.00000000  *   0.00000000  *
     3       N(HETATM    3  N   CYN A   1)    2.09736407  *  -0.50000000  *  -0.00000001  *
 

                        After docking

                     Atoms that move a lot

                     Atom Label             GEO_REF Coordinates       Movement    Integral

            (HETATM    2  C   CYN A   1)   2.006   0.000   0.000        1.17         1.17
            (HETATM    3  N   CYN A   1)   0.899   0.500   0.000        1.14         2.30
            (HETATM    1  H   CYN A   1)   0.000   0.000   0.000        0.25         2.56

     Residues that move a lot and their (Movement in Angstroms, per atom)


   Difference between GEO_DAT and GEO_REF: 2.555 = total,  0.8518 = Average,  0.9517 = RMS, in Angstroms

 General Reference for PM7:
 "Optimization of Parameters for Semiempirical Methods VI: More Modifications to the 
 NDDO Approximations and Re-optimization of Parameters", J. J. P. Stewart, J. Mol. Mod., 1:32, 19 (2013)
 https://link.springer.com/article/10.1007/s00894-012-1667-x

           Empirical Formula: C H N  =     3 atoms



      MOLECULAR POINT GROUP   :   Cs  


      RHF CALCULATION, NO. OF DOUBLY OCCUPIED LEVELS = 5



  CARTESIAN GEOMETRY OF FIRST SYSTEM


   1    H          0.00000       0.00000       0.00000
   2    C          2.00647       0.00000       0.00000
   3    N          0.89883       0.50000       0.00000


  CARTESIAN GEOMETRY OF SECOND SYSTEM


   1    H         -0.00771      -0.25166       0.00000
   2    C          0.87982       0.30783       0.00000
   3    N          2.03318       0.44383      -0.00000


   "DISTANCE":     1.648452


  REACTION COORDINATE VECTOR


   1    H          0.00771       0.25166      -0.00000
   2    C          1.12665      -0.30783      -0.00000
   3    N         -1.13435       0.05617       0.00000
 *+*+*+*+*+*+*+*+*+*+*+*+*+*+*+*+*+*+*+*+*+*+*+*+*+*+*+*+*+*+*+*+*+*+*+*+*+*+*+*+
            BAR SHORTENED BY       0.000 PERCENT
 GRADIENT CRITERION IN FLEPO =     1.000


          FOR POINT    1 SECOND STRUCTURE
 DISTANCE A - B      1.648452
 HEAT               38.684325
 GRADIENT NORM       3.816012
 DIRECTION COSINE   -0.000000
 geo-ok
 Locate and refine the transition state for the HNC - HCN isomerization
 (Geometry data for reactant and products are in other files.)
  H(HETATM    1  H   CYN A   1)   0.00000000 +0    0.0000000 +0    0.0000000 +0
  C(HETATM    2  C   CYN A   1)   2.14349377 +1    0.0000000 +0    0.0000000 +0     1     0     0
  N(HETATM    3  N   CYN A   1)   0.96391841 +1    0.4861220 +1    0.0000000 +0     1     2     0
 
 TIME=     0.01
  REACTANTS AND PRODUCTS SWAPPED AROUND
 *+*+*+*+*+*+*+*+*+*+*+*+*+*+*+*+*+*+*+*+*+*+*+*+*+*+*+*+*+*+*+*+*+*+*+*+*+*+*+*+
            BAR SHORTENED BY       1.000 PERCENT
 GRADIENT CRITERION IN FLEPO =     1.000


          FOR POINT    2 FIRST  STRUCTURE
 DISTANCE A - B      1.631968
 HEAT               30.983712
 GRADIENT NORM     122.458352
 DIRECTION COSINE    0.929025
 geo-ok
 Locate and refine the transition state for the HNC - HCN isomerization
 (Geometry data for reactant and products are in other files.)
  H(HETATM    1  H   CYN A   1)   0.00000000 +0    0.0000000 +0    0.0000000 +0
  C(HETATM    2  C   CYN A   1)   1.04476074 +1    0.0000000 +0    0.0000000 +0     1     0     0
  N(HETATM    3  N   CYN A   1)   1.12767272 +1  178.8136901 +1    0.0000000 +0     2     1     0
 
 *+*+*+*+*+*+*+*+*+*+*+*+*+*+*+*+*+*+*+*+*+*+*+*+*+*+*+*+*+*+*+*+*+*+*+*+*+*+*+*+
            BAR SHORTENED BY       1.000 PERCENT
 GRADIENT CRITERION IN FLEPO =    10.000


          FOR POINT    3 FIRST  STRUCTURE
 DISTANCE A - B      1.615648
 HEAT               33.917178
 GRADIENT NORM     240.634074
 DIRECTION COSINE    0.999691
 geo-ok
 Locate and refine the transition state for the HNC - HCN isomerization
 (Geometry data for reactant and products are in other files.)
  H(HETATM    1  H   CYN A   1)   0.00000000 +0    0.0000000 +0    0.0000000 +0
  C(HETATM    2  C   CYN A   1)   1.05147803 +1    0.0000000 +0    0.0000000 +0     1     0     0
  N(HETATM    3  N   CYN A   1)   1.10534264 +1  177.0370060 +1    0.0000000 +0     2     1     0
 
 *+*+*+*+*+*+*+*+*+*+*+*+*+*+*+*+*+*+*+*+*+*+*+*+*+*+*+*+*+*+*+*+*+*+*+*+*+*+*+*+
            BAR SHORTENED BY       1.000 PERCENT
 GRADIENT CRITERION IN FLEPO =    10.000


          FOR POINT    4 FIRST  STRUCTURE
 DISTANCE A - B      1.599492
 HEAT               38.670223
 GRADIENT NORM     358.368007
 DIRECTION COSINE    0.999396
 geo-ok
 Locate and refine the transition state for the HNC - HCN isomerization
 (Geometry data for reactant and products are in other files.)
  H(HETATM    1  H   CYN A   1)   0.00000000 +0    0.0000000 +0    0.0000000 +0
  C(HETATM    2  C   CYN A   1)   1.04559650 +1    0.0000000 +0    0.0000000 +0     1     0     0
  N(HETATM    3  N   CYN A   1)   1.08451746 +1  173.9771379 +1    0.0000000 +0     2     1     0
 
 TIME=     0.04
  REACTANTS AND PRODUCTS SWAPPED AROUND
 *+*+*+*+*+*+*+*+*+*+*+*+*+*+*+*+*+*+*+*+*+*+*+*+*+*+*+*+*+*+*+*+*+*+*+*+*+*+*+*+
            BAR SHORTENED BY       0.000 PERCENT
 GRADIENT CRITERION IN FLEPO =    10.000


          FOR POINT    5 SECOND STRUCTURE
 DISTANCE A - B      1.599492
 HEAT               38.684325
 GRADIENT NORM       3.816000
 DIRECTION COSINE    0.941854
 geo-ok
 Locate and refine the transition state for the HNC - HCN isomerization
 (Geometry data for reactant and products are in other files.)
  H(HETATM    1  H   CYN A   1)   0.00000000 +0    0.0000000 +0    0.0000000 +0
  C(HETATM    2  C   CYN A   1)   2.14349377 +1    0.0000000 +0    0.0000000 +0     1     0     0
  N(HETATM    3  N   CYN A   1)   0.96391841 +1    0.4861220 +1    0.0000000 +0     1     2     0
 
 TIME=     0.00
  REACTANTS AND PRODUCTS SWAPPED AROUND
 *+*+*+*+*+*+*+*+*+*+*+*+*+*+*+*+*+*+*+*+*+*+*+*+*+*+*+*+*+*+*+*+*+*+*+*+*+*+*+*+
            BAR SHORTENED BY       1.000 PERCENT
 GRADIENT CRITERION IN FLEPO =    10.000


          FOR POINT    6 FIRST  STRUCTURE
 DISTANCE A - B      1.583497
 HEAT               42.064675
 GRADIENT NORM     196.760271
 DIRECTION COSINE    0.978441
 geo-ok
 Locate and refine the transition state for the HNC - HCN isomerization
 (Geometry data for reactant and products are in other files.)
  H(HETATM    1  H   CYN A   1)   0.00000000 +0    0.0000000 +0    0.0000000 +0
  C(HETATM    2  C   CYN A   1)   1.06376354 +1    0.0000000 +0    0.0000000 +0     1     0     0
  N(HETATM    3  N   CYN A   1)   1.11891489 +1  148.9384669 +1    0.0000000 +0     2     1     0
 
 TIME=     0.01
  REACTANTS AND PRODUCTS SWAPPED AROUND
 *+*+*+*+*+*+*+*+*+*+*+*+*+*+*+*+*+*+*+*+*+*+*+*+*+*+*+*+*+*+*+*+*+*+*+*+*+*+*+*+
            BAR SHORTENED BY       1.000 PERCENT
 GRADIENT CRITERION IN FLEPO =    10.000


          FOR POINT    7 SECOND STRUCTURE
 DISTANCE A - B      1.567662
 HEAT               38.891709
 GRADIENT NORM      31.395089
 DIRECTION COSINE    0.983720
 geo-ok
 Locate and refine the transition state for the HNC - HCN isomerization
 (Geometry data for reactant and products are in other files.)
  H(HETATM    1  H   CYN A   1)   0.00000000 +0    0.0000000 +0    0.0000000 +0
  C(HETATM    2  C   CYN A   1)   2.13759623 +1    0.0000000 +0    0.0000000 +0     1     0     0
  N(HETATM    3  N   CYN A   1)   0.96667185 +1    2.5648952 +1    0.0000000 +0     1     2     0
 
 *+*+*+*+*+*+*+*+*+*+*+*+*+*+*+*+*+*+*+*+*+*+*+*+*+*+*+*+*+*+*+*+*+*+*+*+*+*+*+*+
            BAR SHORTENED BY       1.000 PERCENT
 GRADIENT CRITERION IN FLEPO =    10.000


          FOR POINT    8 SECOND STRUCTURE
 DISTANCE A - B      1.551985
 HEAT               39.362260
 GRADIENT NORM      50.370350
 DIRECTION COSINE    0.999306
 geo-ok
 Locate and refine the transition state for the HNC - HCN isomerization
 (Geometry data for reactant and products are in other files.)
  H(HETATM    1  H   CYN A   1)   0.00000000 +0    0.0000000 +0    0.0000000 +0
  C(HETATM    2  C   CYN A   1)   2.13089383 +1    0.0000000 +0    0.0000000 +0     1     0     0
  N(HETATM    3  N   CYN A   1)   0.96878977 +1    4.9093453 +1    0.0000000 +0     1     2     0
 
 *+*+*+*+*+*+*+*+*+*+*+*+*+*+*+*+*+*+*+*+*+*+*+*+*+*+*+*+*+*+*+*+*+*+*+*+*+*+*+*+
            BAR SHORTENED BY       1.000 PERCENT
 GRADIENT CRITERION IN FLEPO =    10.000


          FOR POINT    9 SECOND STRUCTURE
 DISTANCE A - B      1.536465
 HEAT               40.086473
 GRADIENT NORM      66.880741
 DIRECTION COSINE    0.999572
 geo-ok
 Locate and refine the transition state for the HNC - HCN isomerization
 (Geometry data for reactant and products are in other files.)
  H(HETATM    1  H   CYN A   1)   0.00000000 +0    0.0000000 +0    0.0000000 +0
  C(HETATM    2  C   CYN A   1)   2.12187914 +1    0.0000000 +0    0.0000000 +0     1     0     0
  N(HETATM    3  N   CYN A   1)   0.97065440 +1    7.2776069 +1    0.0000000 +0     1     2     0
 
 TIME=     0.00
  REACTANTS AND PRODUCTS SWAPPED AROUND
 *+*+*+*+*+*+*+*+*+*+*+*+*+*+*+*+*+*+*+*+*+*+*+*+*+*+*+*+*+*+*+*+*+*+*+*+*+*+*+*+
            BAR SHORTENED BY       0.000 PERCENT
 GRADIENT CRITERION IN FLEPO =    10.000


          FOR POINT   10 FIRST  STRUCTURE
 DISTANCE A - B      1.536465
 HEAT               42.064675
 GRADIENT NORM     196.760256
 DIRECTION COSINE    0.991341
 geo-ok
 Locate and refine the transition state for the HNC - HCN isomerization
 (Geometry data for reactant and products are in other files.)
  H(HETATM    1  H   CYN A   1)   0.00000000 +0    0.0000000 +0    0.0000000 +0
  C(HETATM    2  C   CYN A   1)   1.06376354 +1    0.0000000 +0    0.0000000 +0     1     0     0
  N(HETATM    3  N   CYN A   1)   1.11891489 +1  148.9384669 +1    0.0000000 +0     2     1     0
 
 TIME=     0.02
  REACTANTS AND PRODUCTS SWAPPED AROUND
 *+*+*+*+*+*+*+*+*+*+*+*+*+*+*+*+*+*+*+*+*+*+*+*+*+*+*+*+*+*+*+*+*+*+*+*+*+*+*+*+
            BAR SHORTENED BY       1.000 PERCENT
 GRADIENT CRITERION IN FLEPO =    10.000


          FOR POINT   11 SECOND STRUCTURE
 DISTANCE A - B      1.521101
 HEAT               41.049163
 GRADIENT NORM      82.144607
 DIRECTION COSINE    0.992495
 geo-ok
 Locate and refine the transition state for the HNC - HCN isomerization
 (Geometry data for reactant and products are in other files.)
  H(HETATM    1  H   CYN A   1)   0.00000000 +0    0.0000000 +0    0.0000000 +0
  C(HETATM    2  C   CYN A   1)   2.10752006 +1    0.0000000 +0    0.0000000 +0     1     0     0
  N(HETATM    3  N   CYN A   1)   0.96952956 +1    9.5881270 +1    0.0000000 +0     1     2     0
 
 *+*+*+*+*+*+*+*+*+*+*+*+*+*+*+*+*+*+*+*+*+*+*+*+*+*+*+*+*+*+*+*+*+*+*+*+*+*+*+*+
            BAR SHORTENED BY       1.000 PERCENT
 GRADIENT CRITERION IN FLEPO =    10.000


          FOR POINT   12 SECOND STRUCTURE
 DISTANCE A - B      1.505890
 HEAT               42.213517
 GRADIENT NORM      93.944608
 DIRECTION COSINE    0.998674
 geo-ok
 Locate and refine the transition state for the HNC - HCN isomerization
 (Geometry data for reactant and products are in other files.)
  H(HETATM    1  H   CYN A   1)   0.00000000 +0    0.0000000 +0    0.0000000 +0
  C(HETATM    2  C   CYN A   1)   2.09082287 +1    0.0000000 +0    0.0000000 +0     1     0     0
  N(HETATM    3  N   CYN A   1)   0.96759807 +1   11.8892862 +1    0.0000000 +0     1     2     0
 
 TIME=     0.00
  REACTANTS AND PRODUCTS SWAPPED AROUND
 *+*+*+*+*+*+*+*+*+*+*+*+*+*+*+*+*+*+*+*+*+*+*+*+*+*+*+*+*+*+*+*+*+*+*+*+*+*+*+*+
            BAR SHORTENED BY       1.000 PERCENT
 GRADIENT CRITERION IN FLEPO =    10.000


          FOR POINT   13 FIRST  STRUCTURE
 DISTANCE A - B      1.490831
 HEAT               44.743012
 GRADIENT NORM     201.546394
 DIRECTION COSINE    0.988846
 geo-ok
 Locate and refine the transition state for the HNC - HCN isomerization
 (Geometry data for reactant and products are in other files.)
  H(HETATM    1  H   CYN A   1)   0.00000000 +0    0.0000000 +0    0.0000000 +0
  C(HETATM    2  C   CYN A   1)   1.06350727 +1    0.0000000 +0    0.0000000 +0     1     0     0
  N(HETATM    3  N   CYN A   1)   1.11911672 +1  145.0659201 +1    0.0000000 +0     2     1     0
 
 TIME=     0.00
  REACTANTS AND PRODUCTS SWAPPED AROUND
 *+*+*+*+*+*+*+*+*+*+*+*+*+*+*+*+*+*+*+*+*+*+*+*+*+*+*+*+*+*+*+*+*+*+*+*+*+*+*+*+
            BAR SHORTENED BY       1.000 PERCENT
 GRADIENT CRITERION IN FLEPO =    10.000


          FOR POINT   14 SECOND STRUCTURE
 DISTANCE A - B      1.475922
 HEAT               43.452559
 GRADIENT NORM      99.768081
 DIRECTION COSINE    0.992467
 geo-ok
 Locate and refine the transition state for the HNC - HCN isomerization
 (Geometry data for reactant and products are in other files.)
  H(HETATM    1  H   CYN A   1)   0.00000000 +0    0.0000000 +0    0.0000000 +0
  C(HETATM    2  C   CYN A   1)   2.08788111 +1    0.0000000 +0    0.0000000 +0     1     0     0
  N(HETATM    3  N   CYN A   1)   0.97974757 +1   14.1720355 +1    0.0000000 +0     1     2     0
 
 *+*+*+*+*+*+*+*+*+*+*+*+*+*+*+*+*+*+*+*+*+*+*+*+*+*+*+*+*+*+*+*+*+*+*+*+*+*+*+*+
            BAR SHORTENED BY       1.000 PERCENT
 GRADIENT CRITERION IN FLEPO =    10.000


          FOR POINT   15 SECOND STRUCTURE
 DISTANCE A - B      1.461163
 HEAT               44.848716
 GRADIENT NORM     110.096252
 DIRECTION COSINE    0.995083
 geo-ok
 Locate and refine the transition state for the HNC - HCN isomerization
 (Geometry data for reactant and products are in other files.)
  H(HETATM    1  H   CYN A   1)   0.00000000 +0    0.0000000 +0    0.0000000 +0
  C(HETATM    2  C   CYN A   1)   2.06274651 +1    0.0000000 +0    0.0000000 +0     1     0     0
  N(HETATM    3  N   CYN A   1)   0.97164746 +1   16.1393268 +1    0.0000000 +0     1     2     0
 
 TIME=     0.02
  REACTANTS AND PRODUCTS SWAPPED AROUND
 *+*+*+*+*+*+*+*+*+*+*+*+*+*+*+*+*+*+*+*+*+*+*+*+*+*+*+*+*+*+*+*+*+*+*+*+*+*+*+*+
            BAR SHORTENED BY       1.000 PERCENT
 GRADIENT CRITERION IN FLEPO =    10.000


          FOR POINT   16 FIRST  STRUCTURE
 DISTANCE A - B      1.446551
 HEAT               45.600998
 GRADIENT NORM     173.085628
 DIRECTION COSINE    0.984143
 geo-ok
 Locate and refine the transition state for the HNC - HCN isomerization
 (Geometry data for reactant and products are in other files.)
  H(HETATM    1  H   CYN A   1)   0.00000000 +0    0.0000000 +0    0.0000000 +0
  C(HETATM    2  C   CYN A   1)   1.06464134 +1    0.0000000 +0    0.0000000 +0     1     0     0
  N(HETATM    3  N   CYN A   1)   1.12644872 +1  142.7241640 +1    0.0000000 +0     2     1     0
 
 TIME=     0.00
  REACTANTS AND PRODUCTS SWAPPED AROUND
 *+*+*+*+*+*+*+*+*+*+*+*+*+*+*+*+*+*+*+*+*+*+*+*+*+*+*+*+*+*+*+*+*+*+*+*+*+*+*+*+
            BAR SHORTENED BY       1.000 PERCENT
 GRADIENT CRITERION IN FLEPO =    10.000


          FOR POINT   17 SECOND STRUCTURE
 DISTANCE A - B      1.432086
 HEAT               46.201104
 GRADIENT NORM      91.106207
 DIRECTION COSINE    0.998131
 geo-ok
 Locate and refine the transition state for the HNC - HCN isomerization
 (Geometry data for reactant and products are in other files.)
  H(HETATM    1  H   CYN A   1)   0.00000000 +0    0.0000000 +0    0.0000000 +0
  C(HETATM    2  C   CYN A   1)   2.05665617 +1    0.0000000 +0    0.0000000 +0     1     0     0
  N(HETATM    3  N   CYN A   1)   0.98103800 +1   18.7525129 +1    0.0000000 +0     1     2     0
 
 TIME=     0.00
  REACTANTS AND PRODUCTS SWAPPED AROUND
 *+*+*+*+*+*+*+*+*+*+*+*+*+*+*+*+*+*+*+*+*+*+*+*+*+*+*+*+*+*+*+*+*+*+*+*+*+*+*+*+
            BAR SHORTENED BY       1.000 PERCENT
 GRADIENT CRITERION IN FLEPO =    10.000


          FOR POINT   18 FIRST  STRUCTURE
 DISTANCE A - B      1.417765
 HEAT               47.955245
 GRADIENT NORM     177.321821
 DIRECTION COSINE    0.998596
 geo-ok
 Locate and refine the transition state for the HNC - HCN isomerization
 (Geometry data for reactant and products are in other files.)
  H(HETATM    1  H   CYN A   1)   0.00000000 +0    0.0000000 +0    0.0000000 +0
  C(HETATM    2  C   CYN A   1)   1.06729989 +1    0.0000000 +0    0.0000000 +0     1     0     0
  N(HETATM    3  N   CYN A   1)   1.12682428 +1  139.7775751 +1    0.0000000 +0     2     1     0
 
 TIME=     0.00
  REACTANTS AND PRODUCTS SWAPPED AROUND
 *+*+*+*+*+*+*+*+*+*+*+*+*+*+*+*+*+*+*+*+*+*+*+*+*+*+*+*+*+*+*+*+*+*+*+*+*+*+*+*+
            BAR SHORTENED BY       1.000 PERCENT
 GRADIENT CRITERION IN FLEPO =    10.000


          FOR POINT   19 SECOND STRUCTURE
 DISTANCE A - B      1.403587
 HEAT               47.661305
 GRADIENT NORM     120.413337
 DIRECTION COSINE    0.982908
 geo-ok
 Locate and refine the transition state for the HNC - HCN isomerization
 (Geometry data for reactant and products are in other files.)
  H(HETATM    1  H   CYN A   1)   0.00000000 +0    0.0000000 +0    0.0000000 +0
  C(HETATM    2  C   CYN A   1)   2.03589512 +1    0.0000000 +0    0.0000000 +0     1     0     0
  N(HETATM    3  N   CYN A   1)   0.97875154 +1   19.7919670 +1    0.0000000 +0     1     2     0
 
 *+*+*+*+*+*+*+*+*+*+*+*+*+*+*+*+*+*+*+*+*+*+*+*+*+*+*+*+*+*+*+*+*+*+*+*+*+*+*+*+
            BAR SHORTENED BY       1.000 PERCENT
 GRADIENT CRITERION IN FLEPO =    10.000


          FOR POINT   20 SECOND STRUCTURE
 DISTANCE A - B      1.389552
 HEAT               49.018440
 GRADIENT NORM     121.614643
 DIRECTION COSINE    0.993303
 geo-ok
 Locate and refine the transition state for the HNC - HCN isomerization
 (Geometry data for reactant and products are in other files.)
  H(HETATM    1  H   CYN A   1)   0.00000000 +0    0.0000000 +0    0.0000000 +0
  C(HETATM    2  C   CYN A   1)   2.04042380 +1    0.0000000 +0    0.0000000 +0     1     0     0
  N(HETATM    3  N   CYN A   1)   0.99992140 +1   21.3195104 +1    0.0000000 +0     1     2     0
 
 TIME=     0.01
  REACTANTS AND PRODUCTS SWAPPED AROUND
 *+*+*+*+*+*+*+*+*+*+*+*+*+*+*+*+*+*+*+*+*+*+*+*+*+*+*+*+*+*+*+*+*+*+*+*+*+*+*+*+
            BAR SHORTENED BY       1.000 PERCENT
 GRADIENT CRITERION IN FLEPO =    10.000


          FOR POINT   21 FIRST  STRUCTURE
 DISTANCE A - B      1.375656
 HEAT               48.861061
 GRADIENT NORM     156.412316
 DIRECTION COSINE    0.979077
 geo-ok
 Locate and refine the transition state for the HNC - HCN isomerization
 (Geometry data for reactant and products are in other files.)
  H(HETATM    1  H   CYN A   1)   0.00000000 +0    0.0000000 +0    0.0000000 +0
  C(HETATM    2  C   CYN A   1)   1.06823607 +1    0.0000000 +0    0.0000000 +0     1     0     0
  N(HETATM    3  N   CYN A   1)   1.13306011 +1  137.9463387 +1    0.0000000 +0     2     1     0
 
 *+*+*+*+*+*+*+*+*+*+*+*+*+*+*+*+*+*+*+*+*+*+*+*+*+*+*+*+*+*+*+*+*+*+*+*+*+*+*+*+
            BAR SHORTENED BY       1.000 PERCENT
 GRADIENT CRITERION IN FLEPO =    10.000


          FOR POINT   22 FIRST  STRUCTURE
 DISTANCE A - B      1.361900
 HEAT               50.926600
 GRADIENT NORM     155.600918
 DIRECTION COSINE    0.999390
 geo-ok
 Locate and refine the transition state for the HNC - HCN isomerization
 (Geometry data for reactant and products are in other files.)
  H(HETATM    1  H   CYN A   1)   0.00000000 +0    0.0000000 +0    0.0000000 +0
  C(HETATM    2  C   CYN A   1)   1.07039321 +1    0.0000000 +0    0.0000000 +0     1     0     0
  N(HETATM    3  N   CYN A   1)   1.13473732 +1  135.4702160 +1    0.0000000 +0     2     1     0
 
 TIME=     0.02
  REACTANTS AND PRODUCTS SWAPPED AROUND
 *+*+*+*+*+*+*+*+*+*+*+*+*+*+*+*+*+*+*+*+*+*+*+*+*+*+*+*+*+*+*+*+*+*+*+*+*+*+*+*+
            BAR SHORTENED BY       1.000 PERCENT
 GRADIENT CRITERION IN FLEPO =    10.000


          FOR POINT   23 SECOND STRUCTURE
 DISTANCE A - B      1.348281
 HEAT               50.247789
 GRADIENT NORM     101.895483
 DIRECTION COSINE    0.998970
 geo-ok
 Locate and refine the transition state for the HNC - HCN isomerization
 (Geometry data for reactant and products are in other files.)
  H(HETATM    1  H   CYN A   1)   0.00000000 +0    0.0000000 +0    0.0000000 +0
  C(HETATM    2  C   CYN A   1)   2.01734714 +1    0.0000000 +0    0.0000000 +0     1     0     0
  N(HETATM    3  N   CYN A   1)   0.99136323 +1   23.3729506 +1    0.0000000 +0     1     2     0
 
 *+*+*+*+*+*+*+*+*+*+*+*+*+*+*+*+*+*+*+*+*+*+*+*+*+*+*+*+*+*+*+*+*+*+*+*+*+*+*+*+
            BAR SHORTENED BY       1.000 PERCENT
 GRADIENT CRITERION IN FLEPO =    10.000


          FOR POINT   24 SECOND STRUCTURE
 DISTANCE A - B      1.334798
 HEAT               51.665117
 GRADIENT NORM      99.765495
 DIRECTION COSINE    0.997616
 geo-ok
 Locate and refine the transition state for the HNC - HCN isomerization
 (Geometry data for reactant and products are in other files.)
  H(HETATM    1  H   CYN A   1)   0.00000000 +0    0.0000000 +0    0.0000000 +0
  C(HETATM    2  C   CYN A   1)   1.99909385 +1    0.0000000 +0    0.0000000 +0     1     0     0
  N(HETATM    3  N   CYN A   1)   0.98989176 +1   24.9538028 +1    0.0000000 +0     1     2     0
 
 TIME=     0.00
  REACTANTS AND PRODUCTS SWAPPED AROUND
 *+*+*+*+*+*+*+*+*+*+*+*+*+*+*+*+*+*+*+*+*+*+*+*+*+*+*+*+*+*+*+*+*+*+*+*+*+*+*+*+
            BAR SHORTENED BY       1.000 PERCENT
 GRADIENT CRITERION IN FLEPO =    10.000


          FOR POINT   25 FIRST  STRUCTURE
 DISTANCE A - B      1.321450
 HEAT               52.992544
 GRADIENT NORM     160.292788
 DIRECTION COSINE    0.996898
 geo-ok
 Locate and refine the transition state for the HNC - HCN isomerization
 (Geometry data for reactant and products are in other files.)
  H(HETATM    1  H   CYN A   1)   0.00000000 +0    0.0000000 +0    0.0000000 +0
  C(HETATM    2  C   CYN A   1)   1.07284050 +1    0.0000000 +0    0.0000000 +0     1     0     0
  N(HETATM    3  N   CYN A   1)   1.13474875 +1  133.2869138 +1    0.0000000 +0     2     1     0
 
 TIME=     0.00
  REACTANTS AND PRODUCTS SWAPPED AROUND
 *+*+*+*+*+*+*+*+*+*+*+*+*+*+*+*+*+*+*+*+*+*+*+*+*+*+*+*+*+*+*+*+*+*+*+*+*+*+*+*+
            BAR SHORTENED BY       1.000 PERCENT
 GRADIENT CRITERION IN FLEPO =    10.000


          FOR POINT   26 SECOND STRUCTURE
 DISTANCE A - B      1.308235
 HEAT               53.008109
 GRADIENT NORM     105.654652
 DIRECTION COSINE    0.998039
 geo-ok
 Locate and refine the transition state for the HNC - HCN isomerization
 (Geometry data for reactant and products are in other files.)
  H(HETATM    1  H   CYN A   1)   0.00000000 +0    0.0000000 +0    0.0000000 +0
  C(HETATM    2  C   CYN A   1)   1.99059222 +1    0.0000000 +0    0.0000000 +0     1     0     0
  N(HETATM    3  N   CYN A   1)   0.99840995 +1   26.0897796 +1    0.0000000 +0     1     2     0
 
 TIME=     0.00
  REACTANTS AND PRODUCTS SWAPPED AROUND
 *+*+*+*+*+*+*+*+*+*+*+*+*+*+*+*+*+*+*+*+*+*+*+*+*+*+*+*+*+*+*+*+*+*+*+*+*+*+*+*+
            BAR SHORTENED BY       1.000 PERCENT
 GRADIENT CRITERION IN FLEPO =    10.000


          FOR POINT   27 FIRST  STRUCTURE
 DISTANCE A - B      1.295153
 HEAT               55.057353
 GRADIENT NORM     163.869369
 DIRECTION COSINE    0.997890
 geo-ok
 Locate and refine the transition state for the HNC - HCN isomerization
 (Geometry data for reactant and products are in other files.)
  H(HETATM    1  H   CYN A   1)   0.00000000 +0    0.0000000 +0    0.0000000 +0
  C(HETATM    2  C   CYN A   1)   1.07705664 +1    0.0000000 +0    0.0000000 +0     1     0     0
  N(HETATM    3  N   CYN A   1)   1.13513406 +1  131.1671020 +1    0.0000000 +0     2     1     0
 
 TIME=     0.01
  REACTANTS AND PRODUCTS SWAPPED AROUND
 *+*+*+*+*+*+*+*+*+*+*+*+*+*+*+*+*+*+*+*+*+*+*+*+*+*+*+*+*+*+*+*+*+*+*+*+*+*+*+*+
            BAR SHORTENED BY       1.000 PERCENT
 GRADIENT CRITERION IN FLEPO =    10.000


          FOR POINT   28 SECOND STRUCTURE
 DISTANCE A - B      1.282201
 HEAT               54.316547
 GRADIENT NORM     108.191436
 DIRECTION COSINE    0.996848
 geo-ok
 Locate and refine the transition state for the HNC - HCN isomerization
 (Geometry data for reactant and products are in other files.)
  H(HETATM    1  H   CYN A   1)   0.00000000 +0    0.0000000 +0    0.0000000 +0
  C(HETATM    2  C   CYN A   1)   1.97817003 +1    0.0000000 +0    0.0000000 +0     1     0     0
  N(HETATM    3  N   CYN A   1)   1.00213841 +1   27.2462821 +1    0.0000000 +0     1     2     0
 
 *+*+*+*+*+*+*+*+*+*+*+*+*+*+*+*+*+*+*+*+*+*+*+*+*+*+*+*+*+*+*+*+*+*+*+*+*+*+*+*+
            BAR SHORTENED BY       1.000 PERCENT
 GRADIENT CRITERION IN FLEPO =    10.000


          FOR POINT   29 SECOND STRUCTURE
 DISTANCE A - B      1.269379
 HEAT               55.362285
 GRADIENT NORM     102.483360
 DIRECTION COSINE    0.995753
 geo-ok
 Locate and refine the transition state for the HNC - HCN isomerization
 (Geometry data for reactant and products are in other files.)
  H(HETATM    1  H   CYN A   1)   0.00000000 +0    0.0000000 +0    0.0000000 +0
  C(HETATM    2  C   CYN A   1)   1.97637424 +1    0.0000000 +0    0.0000000 +0     1     0     0
  N(HETATM    3  N   CYN A   1)   1.01291576 +1   28.2453579 +1    0.0000000 +0     1     2     0
 
 TIME=     0.00
  REACTANTS AND PRODUCTS SWAPPED AROUND
 *+*+*+*+*+*+*+*+*+*+*+*+*+*+*+*+*+*+*+*+*+*+*+*+*+*+*+*+*+*+*+*+*+*+*+*+*+*+*+*+
            BAR SHORTENED BY       1.000 PERCENT
 GRADIENT CRITERION IN FLEPO =    10.000


          FOR POINT   30 FIRST  STRUCTURE
 DISTANCE A - B      1.256686
 HEAT               57.017074
 GRADIENT NORM     160.645749
 DIRECTION COSINE    0.998889
 geo-ok
 Locate and refine the transition state for the HNC - HCN isomerization
 (Geometry data for reactant and products are in other files.)
  H(HETATM    1  H   CYN A   1)   0.00000000 +0    0.0000000 +0    0.0000000 +0
  C(HETATM    2  C   CYN A   1)   1.07981904 +1    0.0000000 +0    0.0000000 +0     1     0     0
  N(HETATM    3  N   CYN A   1)   1.13747039 +1  129.0470395 +1    0.0000000 +0     2     1     0
 
 TIME=     0.00
  REACTANTS AND PRODUCTS SWAPPED AROUND
 *+*+*+*+*+*+*+*+*+*+*+*+*+*+*+*+*+*+*+*+*+*+*+*+*+*+*+*+*+*+*+*+*+*+*+*+*+*+*+*+
            BAR SHORTENED BY       1.000 PERCENT
 GRADIENT CRITERION IN FLEPO =    10.000


          FOR POINT   31 SECOND STRUCTURE
 DISTANCE A - B      1.244119
 HEAT               56.717957
 GRADIENT NORM     114.370287
 DIRECTION COSINE    0.996608
 geo-ok
 Locate and refine the transition state for the HNC - HCN isomerization
 (Geometry data for reactant and products are in other files.)
  H(HETATM    1  H   CYN A   1)   0.00000000 +0    0.0000000 +0    0.0000000 +0
  C(HETATM    2  C   CYN A   1)   1.96380856 +1    0.0000000 +0    0.0000000 +0     1     0     0
  N(HETATM    3  N   CYN A   1)   1.01781503 +1   29.0637289 +1    0.0000000 +0     1     2     0
 
 *+*+*+*+*+*+*+*+*+*+*+*+*+*+*+*+*+*+*+*+*+*+*+*+*+*+*+*+*+*+*+*+*+*+*+*+*+*+*+*+
            BAR SHORTENED BY       1.000 PERCENT
 GRADIENT CRITERION IN FLEPO =    10.000


          FOR POINT   32 SECOND STRUCTURE
 DISTANCE A - B      1.231678
 HEAT               58.103250
 GRADIENT NORM     118.408676
 DIRECTION COSINE    0.999786
 geo-ok
 Locate and refine the transition state for the HNC - HCN isomerization
 (Geometry data for reactant and products are in other files.)
  H(HETATM    1  H   CYN A   1)   0.00000000 +0    0.0000000 +0    0.0000000 +0
  C(HETATM    2  C   CYN A   1)   1.95302441 +1    0.0000000 +0    0.0000000 +0     1     0     0
  N(HETATM    3  N   CYN A   1)   1.02431004 +1   30.0427339 +1    0.0000000 +0     1     2     0
 
 TIME=     0.02
  REACTANTS AND PRODUCTS SWAPPED AROUND
 *+*+*+*+*+*+*+*+*+*+*+*+*+*+*+*+*+*+*+*+*+*+*+*+*+*+*+*+*+*+*+*+*+*+*+*+*+*+*+*+
            BAR SHORTENED BY       1.000 PERCENT
 GRADIENT CRITERION IN FLEPO =    10.000


          FOR POINT   33 FIRST  STRUCTURE
 DISTANCE A - B      1.219361
 HEAT               58.929854
 GRADIENT NORM     161.891755
 DIRECTION COSINE    0.995045
 geo-ok
 Locate and refine the transition state for the HNC - HCN isomerization
 (Geometry data for reactant and products are in other files.)
  H(HETATM    1  H   CYN A   1)   0.00000000 +0    0.0000000 +0    0.0000000 +0
  C(HETATM    2  C   CYN A   1)   1.08339922 +1    0.0000000 +0    0.0000000 +0     1     0     0
  N(HETATM    3  N   CYN A   1)   1.13839090 +1  127.1788401 +1    0.0000000 +0     2     1     0
 
 TIME=     0.00
  REACTANTS AND PRODUCTS SWAPPED AROUND
 *+*+*+*+*+*+*+*+*+*+*+*+*+*+*+*+*+*+*+*+*+*+*+*+*+*+*+*+*+*+*+*+*+*+*+*+*+*+*+*+
            BAR SHORTENED BY       1.000 PERCENT
 GRADIENT CRITERION IN FLEPO =    10.000


          FOR POINT   34 SECOND STRUCTURE
 DISTANCE A - B      1.207167
 HEAT               59.465765
 GRADIENT NORM     120.308391
 DIRECTION COSINE    0.994236
 geo-ok
 Locate and refine the transition state for the HNC - HCN isomerization
 (Geometry data for reactant and products are in other files.)
  H(HETATM    1  H   CYN A   1)   0.00000000 +0    0.0000000 +0    0.0000000 +0
  C(HETATM    2  C   CYN A   1)   1.94142254 +1    0.0000000 +0    0.0000000 +0     1     0     0
  N(HETATM    3  N   CYN A   1)   1.02973022 +1   31.0293097 +1    0.0000000 +0     1     2     0
 
 TIME=     0.00
  REACTANTS AND PRODUCTS SWAPPED AROUND
 *+*+*+*+*+*+*+*+*+*+*+*+*+*+*+*+*+*+*+*+*+*+*+*+*+*+*+*+*+*+*+*+*+*+*+*+*+*+*+*+
            BAR SHORTENED BY       1.000 PERCENT
 GRADIENT CRITERION IN FLEPO =    10.000


          FOR POINT   35 FIRST  STRUCTURE
 DISTANCE A - B      1.195095
 HEAT               60.811308
 GRADIENT NORM     163.664921
 DIRECTION COSINE    0.993943
 geo-ok
 Locate and refine the transition state for the HNC - HCN isomerization
 (Geometry data for reactant and products are in other files.)
  H(HETATM    1  H   CYN A   1)   0.00000000 +0    0.0000000 +0    0.0000000 +0
  C(HETATM    2  C   CYN A   1)   1.08741717 +1    0.0000000 +0    0.0000000 +0     1     0     0
  N(HETATM    3  N   CYN A   1)   1.13909590 +1  125.4178976 +1    0.0000000 +0     2     1     0
 
 TIME=     0.02
  REACTANTS AND PRODUCTS SWAPPED AROUND
 *+*+*+*+*+*+*+*+*+*+*+*+*+*+*+*+*+*+*+*+*+*+*+*+*+*+*+*+*+*+*+*+*+*+*+*+*+*+*+*+
            BAR SHORTENED BY       1.000 PERCENT
 GRADIENT CRITERION IN FLEPO =    10.000


          FOR POINT   36 SECOND STRUCTURE
 DISTANCE A - B      1.183145
 HEAT               60.761711
 GRADIENT NORM     115.583996
 DIRECTION COSINE    0.996736
 geo-ok
 Locate and refine the transition state for the HNC - HCN isomerization
 (Geometry data for reactant and products are in other files.)
  H(HETATM    1  H   CYN A   1)   0.00000000 +0    0.0000000 +0    0.0000000 +0
  C(HETATM    2  C   CYN A   1)   1.92529864 +1    0.0000000 +0    0.0000000 +0     1     0     0
  N(HETATM    3  N   CYN A   1)   1.02983724 +1   32.2038084 +1    0.0000000 +0     1     2     0
 
 *+*+*+*+*+*+*+*+*+*+*+*+*+*+*+*+*+*+*+*+*+*+*+*+*+*+*+*+*+*+*+*+*+*+*+*+*+*+*+*+
            BAR SHORTENED BY       1.000 PERCENT
 GRADIENT CRITERION IN FLEPO =    10.000


          FOR POINT   37 SECOND STRUCTURE
 DISTANCE A - B      1.171313
 HEAT               61.570279
 GRADIENT NORM     106.180752
 DIRECTION COSINE    0.997373
 geo-ok
 Locate and refine the transition state for the HNC - HCN isomerization
 (Geometry data for reactant and products are in other files.)
  H(HETATM    1  H   CYN A   1)   0.00000000 +0    0.0000000 +0    0.0000000 +0
  C(HETATM    2  C   CYN A   1)   1.91804730 +1    0.0000000 +0    0.0000000 +0     1     0     0
  N(HETATM    3  N   CYN A   1)   1.03222799 +1   33.0670020 +1    0.0000000 +0     1     2     0
 
 TIME=     0.00
  REACTANTS AND PRODUCTS SWAPPED AROUND
 *+*+*+*+*+*+*+*+*+*+*+*+*+*+*+*+*+*+*+*+*+*+*+*+*+*+*+*+*+*+*+*+*+*+*+*+*+*+*+*+
            BAR SHORTENED BY       1.000 PERCENT
 GRADIENT CRITERION IN FLEPO =    10.000


          FOR POINT   38 FIRST  STRUCTURE
 DISTANCE A - B      1.159600
 HEAT               62.459993
 GRADIENT NORM     150.788699
 DIRECTION COSINE    0.999313
 geo-ok
 Locate and refine the transition state for the HNC - HCN isomerization
 (Geometry data for reactant and products are in other files.)
  H(HETATM    1  H   CYN A   1)   0.00000000 +0    0.0000000 +0    0.0000000 +0
  C(HETATM    2  C   CYN A   1)   1.08387237 +1    0.0000000 +0    0.0000000 +0     1     0     0
  N(HETATM    3  N   CYN A   1)   1.14465111 +1  123.5196701 +1    0.0000000 +0     2     1     0
 
 TIME=     0.01
  REACTANTS AND PRODUCTS SWAPPED AROUND
 *+*+*+*+*+*+*+*+*+*+*+*+*+*+*+*+*+*+*+*+*+*+*+*+*+*+*+*+*+*+*+*+*+*+*+*+*+*+*+*+
            BAR SHORTENED BY       1.000 PERCENT
 GRADIENT CRITERION IN FLEPO =    10.000


          FOR POINT   39 SECOND STRUCTURE
 DISTANCE A - B      1.148004
 HEAT               62.742298
 GRADIENT NORM     113.886562
 DIRECTION COSINE    0.996311
 geo-ok
 Locate and refine the transition state for the HNC - HCN isomerization
 (Geometry data for reactant and products are in other files.)
  H(HETATM    1  H   CYN A   1)   0.00000000 +0    0.0000000 +0    0.0000000 +0
  C(HETATM    2  C   CYN A   1)   1.89916066 +1    0.0000000 +0    0.0000000 +0     1     0     0
  N(HETATM    3  N   CYN A   1)   1.02830321 +1   33.8074105 +1    0.0000000 +0     1     2     0
 
 TIME=     0.00
  REACTANTS AND PRODUCTS SWAPPED AROUND
 *+*+*+*+*+*+*+*+*+*+*+*+*+*+*+*+*+*+*+*+*+*+*+*+*+*+*+*+*+*+*+*+*+*+*+*+*+*+*+*+
            BAR SHORTENED BY       1.000 PERCENT
 GRADIENT CRITERION IN FLEPO =    10.000


          FOR POINT   40 FIRST  STRUCTURE
 DISTANCE A - B      1.136524
 HEAT               64.160004
 GRADIENT NORM     151.103804
 DIRECTION COSINE    0.996407
 geo-ok
 Locate and refine the transition state for the HNC - HCN isomerization
 (Geometry data for reactant and products are in other files.)
  H(HETATM    1  H   CYN A   1)   0.00000000 +0    0.0000000 +0    0.0000000 +0
  C(HETATM    2  C   CYN A   1)   1.08561040 +1    0.0000000 +0    0.0000000 +0     1     0     0
  N(HETATM    3  N   CYN A   1)   1.14570437 +1  121.9817084 +1    0.0000000 +0     2     1     0
 
 TIME=     0.00
  REACTANTS AND PRODUCTS SWAPPED AROUND
 *+*+*+*+*+*+*+*+*+*+*+*+*+*+*+*+*+*+*+*+*+*+*+*+*+*+*+*+*+*+*+*+*+*+*+*+*+*+*+*+
            BAR SHORTENED BY       1.000 PERCENT
 GRADIENT CRITERION IN FLEPO =    10.000


          FOR POINT   41 SECOND STRUCTURE
 DISTANCE A - B      1.125159
 HEAT               63.950848
 GRADIENT NORM     111.722721
 DIRECTION COSINE    0.999553
 geo-ok
 Locate and refine the transition state for the HNC - HCN isomerization
 (Geometry data for reactant and products are in other files.)
  H(HETATM    1  H   CYN A   1)   0.00000000 +0    0.0000000 +0    0.0000000 +0
  C(HETATM    2  C   CYN A   1)   1.89850060 +1    0.0000000 +0    0.0000000 +0     1     0     0
  N(HETATM    3  N   CYN A   1)   1.04329621 +1   34.5061933 +1    0.0000000 +0     1     2     0
 
 *+*+*+*+*+*+*+*+*+*+*+*+*+*+*+*+*+*+*+*+*+*+*+*+*+*+*+*+*+*+*+*+*+*+*+*+*+*+*+*+
            BAR SHORTENED BY       1.000 PERCENT
 GRADIENT CRITERION IN FLEPO =    10.000


          FOR POINT   42 SECOND STRUCTURE
 DISTANCE A - B      1.113907
 HEAT               65.190598
 GRADIENT NORM     113.680478
 DIRECTION COSINE    0.999206
 geo-ok
 Locate and refine the transition state for the HNC - HCN isomerization
 (Geometry data for reactant and products are in other files.)
  H(HETATM    1  H   CYN A   1)   0.00000000 +0    0.0000000 +0    0.0000000 +0
  C(HETATM    2  C   CYN A   1)   1.88327474 +1    0.0000000 +0    0.0000000 +0     1     0     0
  N(HETATM    3  N   CYN A   1)   1.04400879 +1   35.3401922 +1    0.0000000 +0     1     2     0
 
 TIME=     0.02
  REACTANTS AND PRODUCTS SWAPPED AROUND
 *+*+*+*+*+*+*+*+*+*+*+*+*+*+*+*+*+*+*+*+*+*+*+*+*+*+*+*+*+*+*+*+*+*+*+*+*+*+*+*+
            BAR SHORTENED BY       1.000 PERCENT
 GRADIENT CRITERION IN FLEPO =    10.000


          FOR POINT   43 FIRST  STRUCTURE
 DISTANCE A - B      1.102768
 HEAT               65.819470
 GRADIENT NORM     147.269504
 DIRECTION COSINE    0.999632
 geo-ok
 Locate and refine the transition state for the HNC - HCN isomerization
 (Geometry data for reactant and products are in other files.)
  H(HETATM    1  H   CYN A   1)   0.00000000 +0    0.0000000 +0    0.0000000 +0
  C(HETATM    2  C   CYN A   1)   1.08922964 +1    0.0000000 +0    0.0000000 +0     1     0     0
  N(HETATM    3  N   CYN A   1)   1.14873401 +1  120.3881104 +1    0.0000000 +0     2     1     0
 
 TIME=     0.02
  REACTANTS AND PRODUCTS SWAPPED AROUND
 *+*+*+*+*+*+*+*+*+*+*+*+*+*+*+*+*+*+*+*+*+*+*+*+*+*+*+*+*+*+*+*+*+*+*+*+*+*+*+*+
            BAR SHORTENED BY       1.000 PERCENT
 GRADIENT CRITERION IN FLEPO =    10.000


          FOR POINT   44 SECOND STRUCTURE
 DISTANCE A - B      1.091740
 HEAT               66.425449
 GRADIENT NORM     113.513928
 DIRECTION COSINE    0.999727
 geo-ok
 Locate and refine the transition state for the HNC - HCN isomerization
 (Geometry data for reactant and products are in other files.)
  H(HETATM    1  H   CYN A   1)   0.00000000 +0    0.0000000 +0    0.0000000 +0
  C(HETATM    2  C   CYN A   1)   1.87009476 +1    0.0000000 +0    0.0000000 +0     1     0     0
  N(HETATM    3  N   CYN A   1)   1.04665805 +1   36.1726266 +1    0.0000000 +0     1     2     0
 
 TIME=     0.00
  REACTANTS AND PRODUCTS SWAPPED AROUND
 *+*+*+*+*+*+*+*+*+*+*+*+*+*+*+*+*+*+*+*+*+*+*+*+*+*+*+*+*+*+*+*+*+*+*+*+*+*+*+*+
            BAR SHORTENED BY       1.000 PERCENT
 GRADIENT CRITERION IN FLEPO =    10.000


          FOR POINT   45 FIRST  STRUCTURE
 DISTANCE A - B      1.080823
 HEAT               67.301029
 GRADIENT NORM     153.511233
 DIRECTION COSINE    0.996548
 geo-ok
 Locate and refine the transition state for the HNC - HCN isomerization
 (Geometry data for reactant and products are in other files.)
  H(HETATM    1  H   CYN A   1)   0.00000000 +0    0.0000000 +0    0.0000000 +0
  C(HETATM    2  C   CYN A   1)   1.09036067 +1    0.0000000 +0    0.0000000 +0     1     0     0
  N(HETATM    3  N   CYN A   1)   1.14684695 +1  119.2816487 +1    0.0000000 +0     2     1     0
 
 TIME=     0.01
  REACTANTS AND PRODUCTS SWAPPED AROUND
 *+*+*+*+*+*+*+*+*+*+*+*+*+*+*+*+*+*+*+*+*+*+*+*+*+*+*+*+*+*+*+*+*+*+*+*+*+*+*+*+
            BAR SHORTENED BY       1.000 PERCENT
 GRADIENT CRITERION IN FLEPO =    10.000


          FOR POINT   46 SECOND STRUCTURE
 DISTANCE A - B      1.070015
 HEAT               67.612490
 GRADIENT NORM     111.365970
 DIRECTION COSINE    0.998814
 geo-ok
 Locate and refine the transition state for the HNC - HCN isomerization
 (Geometry data for reactant and products are in other files.)
  H(HETATM    1  H   CYN A   1)   0.00000000 +0    0.0000000 +0    0.0000000 +0
  C(HETATM    2  C   CYN A   1)   1.86108452 +1    0.0000000 +0    0.0000000 +0     1     0     0
  N(HETATM    3  N   CYN A   1)   1.05298740 +1   36.9373986 +1    0.0000000 +0     1     2     0
 
 TIME=     0.00
  REACTANTS AND PRODUCTS SWAPPED AROUND
 *+*+*+*+*+*+*+*+*+*+*+*+*+*+*+*+*+*+*+*+*+*+*+*+*+*+*+*+*+*+*+*+*+*+*+*+*+*+*+*+
            BAR SHORTENED BY       1.000 PERCENT
 GRADIENT CRITERION IN FLEPO =    10.000


          FOR POINT   47 FIRST  STRUCTURE
 DISTANCE A - B      1.059315
 HEAT               68.891690
 GRADIENT NORM     150.805133
 DIRECTION COSINE    0.999977
 geo-ok
 Locate and refine the transition state for the HNC - HCN isomerization
 (Geometry data for reactant and products are in other files.)
  H(HETATM    1  H   CYN A   1)   0.00000000 +0    0.0000000 +0    0.0000000 +0
  C(HETATM    2  C   CYN A   1)   1.09435732 +1    0.0000000 +0    0.0000000 +0     1     0     0
  N(HETATM    3  N   CYN A   1)   1.14924671 +1  117.8375251 +1    0.0000000 +0     2     1     0
 
 TIME=     0.02
  REACTANTS AND PRODUCTS SWAPPED AROUND
 *+*+*+*+*+*+*+*+*+*+*+*+*+*+*+*+*+*+*+*+*+*+*+*+*+*+*+*+*+*+*+*+*+*+*+*+*+*+*+*+
            BAR SHORTENED BY       1.000 PERCENT
 GRADIENT CRITERION IN FLEPO =    10.000


          FOR POINT   48 SECOND STRUCTURE
 DISTANCE A - B      1.048721
 HEAT               68.798328
 GRADIENT NORM     113.085544
 DIRECTION COSINE    0.999754
 geo-ok
 Locate and refine the transition state for the HNC - HCN isomerization
 (Geometry data for reactant and products are in other files.)
  H(HETATM    1  H   CYN A   1)   0.00000000 +0    0.0000000 +0    0.0000000 +0
  C(HETATM    2  C   CYN A   1)   1.85056307 +1    0.0000000 +0    0.0000000 +0     1     0     0
  N(HETATM    3  N   CYN A   1)   1.05802820 +1   37.5859739 +1    0.0000000 +0     1     2     0
 
 *+*+*+*+*+*+*+*+*+*+*+*+*+*+*+*+*+*+*+*+*+*+*+*+*+*+*+*+*+*+*+*+*+*+*+*+*+*+*+*+
            BAR SHORTENED BY       1.000 PERCENT
 GRADIENT CRITERION IN FLEPO =    10.000


          FOR POINT   49 SECOND STRUCTURE
 DISTANCE A - B      1.038234
 HEAT               69.983365
 GRADIENT NORM     112.903446
 DIRECTION COSINE    0.999947
 geo-ok
 Locate and refine the transition state for the HNC - HCN isomerization
 (Geometry data for reactant and products are in other files.)
  H(HETATM    1  H   CYN A   1)   0.00000000 +0    0.0000000 +0    0.0000000 +0
  C(HETATM    2  C   CYN A   1)   1.84025706 +1    0.0000000 +0    0.0000000 +0     1     0     0
  N(HETATM    3  N   CYN A   1)   1.06328336 +1   38.2684713 +1    0.0000000 +0     1     2     0
 
 TIME=     0.06
  REACTANTS AND PRODUCTS SWAPPED AROUND
 *+*+*+*+*+*+*+*+*+*+*+*+*+*+*+*+*+*+*+*+*+*+*+*+*+*+*+*+*+*+*+*+*+*+*+*+*+*+*+*+
            BAR SHORTENED BY       1.000 PERCENT
 GRADIENT CRITERION IN FLEPO =    10.000


          FOR POINT   50 FIRST  STRUCTURE
 DISTANCE A - B      1.027852
 HEAT               70.438279
 GRADIENT NORM     146.495367
 DIRECTION COSINE    0.998720
 geo-ok
 Locate and refine the transition state for the HNC - HCN isomerization
 (Geometry data for reactant and products are in other files.)
  H(HETATM    1  H   CYN A   1)   0.00000000 +0    0.0000000 +0    0.0000000 +0
  C(HETATM    2  C   CYN A   1)   1.09839261 +1    0.0000000 +0    0.0000000 +0     1     0     0
  N(HETATM    3  N   CYN A   1)   1.15267017 +1  116.4062458 +1    0.0000000 +0     2     1     0
 
 TIME=     0.00
  REACTANTS AND PRODUCTS SWAPPED AROUND
 *+*+*+*+*+*+*+*+*+*+*+*+*+*+*+*+*+*+*+*+*+*+*+*+*+*+*+*+*+*+*+*+*+*+*+*+*+*+*+*+
            BAR SHORTENED BY       1.000 PERCENT
 GRADIENT CRITERION IN FLEPO =    10.000


          FOR POINT   51 SECOND STRUCTURE
 DISTANCE A - B      1.017573
 HEAT               71.146515
 GRADIENT NORM     114.010063
 DIRECTION COSINE    0.999127
 geo-ok
 Locate and refine the transition state for the HNC - HCN isomerization
 (Geometry data for reactant and products are in other files.)
  H(HETATM    1  H   CYN A   1)   0.00000000 +0    0.0000000 +0    0.0000000 +0
  C(HETATM    2  C   CYN A   1)   1.83080716 +1    0.0000000 +0    0.0000000 +0     1     0     0
  N(HETATM    3  N   CYN A   1)   1.06927062 +1   38.8585624 +1    0.0000000 +0     1     2     0
 
 TIME=     0.02
  REACTANTS AND PRODUCTS SWAPPED AROUND
 *+*+*+*+*+*+*+*+*+*+*+*+*+*+*+*+*+*+*+*+*+*+*+*+*+*+*+*+*+*+*+*+*+*+*+*+*+*+*+*+
            BAR SHORTENED BY       1.000 PERCENT
 GRADIENT CRITERION IN FLEPO =    10.000


          FOR POINT   52 FIRST  STRUCTURE
 DISTANCE A - B      1.007398
 HEAT               71.964308
 GRADIENT NORM     151.574095
 DIRECTION COSINE    0.999695
 geo-ok
 Locate and refine the transition state for the HNC - HCN isomerization
 (Geometry data for reactant and products are in other files.)
  H(HETATM    1  H   CYN A   1)   0.00000000 +0    0.0000000 +0    0.0000000 +0
  C(HETATM    2  C   CYN A   1)   1.10156626 +1    0.0000000 +0    0.0000000 +0     1     0     0
  N(HETATM    3  N   CYN A   1)   1.15100083 +1  115.2973668 +1    0.0000000 +0     2     1     0
 
 TIME=     0.00
  REACTANTS AND PRODUCTS SWAPPED AROUND
 *+*+*+*+*+*+*+*+*+*+*+*+*+*+*+*+*+*+*+*+*+*+*+*+*+*+*+*+*+*+*+*+*+*+*+*+*+*+*+*+
            BAR SHORTENED BY       1.000 PERCENT
 GRADIENT CRITERION IN FLEPO =    10.000


          FOR POINT   53 SECOND STRUCTURE
 DISTANCE A - B      0.997324
 HEAT               72.281483
 GRADIENT NORM     115.432413
 DIRECTION COSINE    0.999036
 geo-ok
 Locate and refine the transition state for the HNC - HCN isomerization
 (Geometry data for reactant and products are in other files.)
  H(HETATM    1  H   CYN A   1)   0.00000000 +0    0.0000000 +0    0.0000000 +0
  C(HETATM    2  C   CYN A   1)   1.82065402 +1    0.0000000 +0    0.0000000 +0     1     0     0
  N(HETATM    3  N   CYN A   1)   1.07425677 +1   39.4244690 +1    0.0000000 +0     1     2     0
 
 TIME=     0.00
  REACTANTS AND PRODUCTS SWAPPED AROUND
 *+*+*+*+*+*+*+*+*+*+*+*+*+*+*+*+*+*+*+*+*+*+*+*+*+*+*+*+*+*+*+*+*+*+*+*+*+*+*+*+
            BAR SHORTENED BY       1.000 PERCENT
 GRADIENT CRITERION IN FLEPO =    10.000


          FOR POINT   54 FIRST  STRUCTURE
 DISTANCE A - B      0.987350
 HEAT               73.422623
 GRADIENT NORM     155.543196
 DIRECTION COSINE    0.995380
 geo-ok
 Locate and refine the transition state for the HNC - HCN isomerization
 (Geometry data for reactant and products are in other files.)
  H(HETATM    1  H   CYN A   1)   0.00000000 +0    0.0000000 +0    0.0000000 +0
  C(HETATM    2  C   CYN A   1)   1.10841746 +1    0.0000000 +0    0.0000000 +0     1     0     0
  N(HETATM    3  N   CYN A   1)   1.15017920 +1  114.2267569 +1    0.0000000 +0     2     1     0
 
 TIME=     0.03
  REACTANTS AND PRODUCTS SWAPPED AROUND
 *+*+*+*+*+*+*+*+*+*+*+*+*+*+*+*+*+*+*+*+*+*+*+*+*+*+*+*+*+*+*+*+*+*+*+*+*+*+*+*+
            BAR SHORTENED BY       1.000 PERCENT
 GRADIENT CRITERION IN FLEPO =    10.000


          FOR POINT   55 SECOND STRUCTURE
 DISTANCE A - B      0.977477
 HEAT               73.398047
 GRADIENT NORM     114.037143
 DIRECTION COSINE    0.996773
 geo-ok
 Locate and refine the transition state for the HNC - HCN isomerization
 (Geometry data for reactant and products are in other files.)
  H(HETATM    1  H   CYN A   1)   0.00000000 +0    0.0000000 +0    0.0000000 +0
  C(HETATM    2  C   CYN A   1)   1.81116315 +1    0.0000000 +0    0.0000000 +0     1     0     0
  N(HETATM    3  N   CYN A   1)   1.07970365 +1   40.0434943 +1    0.0000000 +0     1     2     0
 
 *+*+*+*+*+*+*+*+*+*+*+*+*+*+*+*+*+*+*+*+*+*+*+*+*+*+*+*+*+*+*+*+*+*+*+*+*+*+*+*+
            BAR SHORTENED BY       1.000 PERCENT
 GRADIENT CRITERION IN FLEPO =    10.000


          FOR POINT   56 SECOND STRUCTURE
 DISTANCE A - B      0.967702
 HEAT               74.513188
 GRADIENT NORM     113.360001
 DIRECTION COSINE    0.999897
 geo-ok
 Locate and refine the transition state for the HNC - HCN isomerization
 (Geometry data for reactant and products are in other files.)
  H(HETATM    1  H   CYN A   1)   0.00000000 +0    0.0000000 +0    0.0000000 +0
  C(HETATM    2  C   CYN A   1)   1.80169146 +1    0.0000000 +0    0.0000000 +0     1     0     0
  N(HETATM    3  N   CYN A   1)   1.08526543 +1   40.6205140 +1    0.0000000 +0     1     2     0
 
 TIME=     0.02
  REACTANTS AND PRODUCTS SWAPPED AROUND
 *+*+*+*+*+*+*+*+*+*+*+*+*+*+*+*+*+*+*+*+*+*+*+*+*+*+*+*+*+*+*+*+*+*+*+*+*+*+*+*+
            BAR SHORTENED BY       1.000 PERCENT
 GRADIENT CRITERION IN FLEPO =    10.000


          FOR POINT   57 FIRST  STRUCTURE
 DISTANCE A - B      0.958025
 HEAT               74.862244
 GRADIENT NORM     150.596459
 DIRECTION COSINE    0.999948
 geo-ok
 Locate and refine the transition state for the HNC - HCN isomerization
 (Geometry data for reactant and products are in other files.)
  H(HETATM    1  H   CYN A   1)   0.00000000 +0    0.0000000 +0    0.0000000 +0
  C(HETATM    2  C   CYN A   1)   1.10593124 +1    0.0000000 +0    0.0000000 +0     1     0     0
  N(HETATM    3  N   CYN A   1)   1.15320260 +1  112.9310344 +1    0.0000000 +0     2     1     0
 
 TIME=     0.01
  REACTANTS AND PRODUCTS SWAPPED AROUND
 *+*+*+*+*+*+*+*+*+*+*+*+*+*+*+*+*+*+*+*+*+*+*+*+*+*+*+*+*+*+*+*+*+*+*+*+*+*+*+*+
            BAR SHORTENED BY       1.000 PERCENT
 GRADIENT CRITERION IN FLEPO =    10.000


          FOR POINT   58 SECOND STRUCTURE
 DISTANCE A - B      0.948445
 HEAT               75.586635
 GRADIENT NORM     114.970279
 DIRECTION COSINE    0.998851
 geo-ok
 Locate and refine the transition state for the HNC - HCN isomerization
 (Geometry data for reactant and products are in other files.)
  H(HETATM    1  H   CYN A   1)   0.00000000 +0    0.0000000 +0    0.0000000 +0
  C(HETATM    2  C   CYN A   1)   1.78910672 +1    0.0000000 +0    0.0000000 +0     1     0     0
  N(HETATM    3  N   CYN A   1)   1.08726675 +1   41.1704298 +1    0.0000000 +0     1     2     0
 
 TIME=     0.02
  REACTANTS AND PRODUCTS SWAPPED AROUND
 *+*+*+*+*+*+*+*+*+*+*+*+*+*+*+*+*+*+*+*+*+*+*+*+*+*+*+*+*+*+*+*+*+*+*+*+*+*+*+*+
            BAR SHORTENED BY       1.000 PERCENT
 GRADIENT CRITERION IN FLEPO =    10.000


          FOR POINT   59 FIRST  STRUCTURE
 DISTANCE A - B      0.938960
 HEAT               76.281481
 GRADIENT NORM     152.659910
 DIRECTION COSINE    0.997760
 geo-ok
 Locate and refine the transition state for the HNC - HCN isomerization
 (Geometry data for reactant and products are in other files.)
  H(HETATM    1  H   CYN A   1)   0.00000000 +0    0.0000000 +0    0.0000000 +0
  C(HETATM    2  C   CYN A   1)   1.11298969 +1    0.0000000 +0    0.0000000 +0     1     0     0
  N(HETATM    3  N   CYN A   1)   1.15313336 +1  111.8691399 +1    0.0000000 +0     2     1     0
 
 TIME=     0.00
  REACTANTS AND PRODUCTS SWAPPED AROUND
 *+*+*+*+*+*+*+*+*+*+*+*+*+*+*+*+*+*+*+*+*+*+*+*+*+*+*+*+*+*+*+*+*+*+*+*+*+*+*+*+
            BAR SHORTENED BY       1.000 PERCENT
 GRADIENT CRITERION IN FLEPO =    10.000


          FOR POINT   60 SECOND STRUCTURE
 DISTANCE A - B      0.929571
 HEAT               76.643645
 GRADIENT NORM     114.631146
 DIRECTION COSINE    0.997993
 geo-ok
 Locate and refine the transition state for the HNC - HCN isomerization
 (Geometry data for reactant and products are in other files.)
  H(HETATM    1  H   CYN A   1)   0.00000000 +0    0.0000000 +0    0.0000000 +0
  C(HETATM    2  C   CYN A   1)   1.78335319 +1    0.0000000 +0    0.0000000 +0     1     0     0
  N(HETATM    3  N   CYN A   1)   1.09601597 +1   41.5884530 +1    0.0000000 +0     1     2     0
 
 TIME=     0.02
  REACTANTS AND PRODUCTS SWAPPED AROUND
 *+*+*+*+*+*+*+*+*+*+*+*+*+*+*+*+*+*+*+*+*+*+*+*+*+*+*+*+*+*+*+*+*+*+*+*+*+*+*+*+
            BAR SHORTENED BY       1.000 PERCENT
 GRADIENT CRITERION IN FLEPO =    10.000


          FOR POINT   61 FIRST  STRUCTURE
 DISTANCE A - B      0.920275
 HEAT               77.672687
 GRADIENT NORM     150.303553
 DIRECTION COSINE    0.999436
 geo-ok
 Locate and refine the transition state for the HNC - HCN isomerization
 (Geometry data for reactant and products are in other files.)
  H(HETATM    1  H   CYN A   1)   0.00000000 +0    0.0000000 +0    0.0000000 +0
  C(HETATM    2  C   CYN A   1)   1.11317381 +1    0.0000000 +0    0.0000000 +0     1     0     0
  N(HETATM    3  N   CYN A   1)   1.15498863 +1  110.7130292 +1    0.0000000 +0     2     1     0
 
 TIME=     0.01
  REACTANTS AND PRODUCTS SWAPPED AROUND
 *+*+*+*+*+*+*+*+*+*+*+*+*+*+*+*+*+*+*+*+*+*+*+*+*+*+*+*+*+*+*+*+*+*+*+*+*+*+*+*+
            BAR SHORTENED BY       1.000 PERCENT
 GRADIENT CRITERION IN FLEPO =    10.000


          FOR POINT   62 SECOND STRUCTURE
 DISTANCE A - B      0.911072
 HEAT               77.656336
 GRADIENT NORM     115.414647
 DIRECTION COSINE    0.998573
 geo-ok
 Locate and refine the transition state for the HNC - HCN isomerization
 (Geometry data for reactant and products are in other files.)
  H(HETATM    1  H   CYN A   1)   0.00000000 +0    0.0000000 +0    0.0000000 +0
  C(HETATM    2  C   CYN A   1)   1.77729802 +1    0.0000000 +0    0.0000000 +0     1     0     0
  N(HETATM    3  N   CYN A   1)   1.10385869 +1   41.9468892 +1    0.0000000 +0     1     2     0
 
 *+*+*+*+*+*+*+*+*+*+*+*+*+*+*+*+*+*+*+*+*+*+*+*+*+*+*+*+*+*+*+*+*+*+*+*+*+*+*+*+
            BAR SHORTENED BY       1.000 PERCENT
 GRADIENT CRITERION IN FLEPO =    10.000


          FOR POINT   63 SECOND STRUCTURE
 DISTANCE A - B      0.901962
 HEAT               78.681330
 GRADIENT NORM     115.170794
 DIRECTION COSINE    0.999384
 geo-ok
 Locate and refine the transition state for the HNC - HCN isomerization
 (Geometry data for reactant and products are in other files.)
  H(HETATM    1  H   CYN A   1)   0.00000000 +0    0.0000000 +0    0.0000000 +0
  C(HETATM    2  C   CYN A   1)   1.76316798 +1    0.0000000 +0    0.0000000 +0     1     0     0
  N(HETATM    3  N   CYN A   1)   1.10402185 +1   42.5507551 +1    0.0000000 +0     1     2     0
 
 TIME=     0.02
  REACTANTS AND PRODUCTS SWAPPED AROUND
 *+*+*+*+*+*+*+*+*+*+*+*+*+*+*+*+*+*+*+*+*+*+*+*+*+*+*+*+*+*+*+*+*+*+*+*+*+*+*+*+
            BAR SHORTENED BY       1.000 PERCENT
 GRADIENT CRITERION IN FLEPO =    10.000


          FOR POINT   64 FIRST  STRUCTURE
 DISTANCE A - B      0.892942
 HEAT               79.014875
 GRADIENT NORM     151.169066
 DIRECTION COSINE    0.997070
 geo-ok
 Locate and refine the transition state for the HNC - HCN isomerization
 (Geometry data for reactant and products are in other files.)
  H(HETATM    1  H   CYN A   1)   0.00000000 +0    0.0000000 +0    0.0000000 +0
  C(HETATM    2  C   CYN A   1)   1.11559070 +1    0.0000000 +0    0.0000000 +0     1     0     0
  N(HETATM    3  N   CYN A   1)   1.15511483 +1  109.7038428 +1    0.0000000 +0     2     1     0
 
 TIME=     0.02
  REACTANTS AND PRODUCTS SWAPPED AROUND
 *+*+*+*+*+*+*+*+*+*+*+*+*+*+*+*+*+*+*+*+*+*+*+*+*+*+*+*+*+*+*+*+*+*+*+*+*+*+*+*+
            BAR SHORTENED BY       1.000 PERCENT
 GRADIENT CRITERION IN FLEPO =    10.000


          FOR POINT   65 SECOND STRUCTURE
 DISTANCE A - B      0.884013
 HEAT               79.676495
 GRADIENT NORM     113.108806
 DIRECTION COSINE    0.998496
 geo-ok
 Locate and refine the transition state for the HNC - HCN isomerization
 (Geometry data for reactant and products are in other files.)
  H(HETATM    1  H   CYN A   1)   0.00000000 +0    0.0000000 +0    0.0000000 +0
  C(HETATM    2  C   CYN A   1)   1.75408878 +1    0.0000000 +0    0.0000000 +0     1     0     0
  N(HETATM    3  N   CYN A   1)   1.10888546 +1   43.0629494 +1    0.0000000 +0     1     2     0
 
 TIME=     0.00
  REACTANTS AND PRODUCTS SWAPPED AROUND
 *+*+*+*+*+*+*+*+*+*+*+*+*+*+*+*+*+*+*+*+*+*+*+*+*+*+*+*+*+*+*+*+*+*+*+*+*+*+*+*+
            BAR SHORTENED BY       1.000 PERCENT
 GRADIENT CRITERION IN FLEPO =    10.000


          FOR POINT   66 FIRST  STRUCTURE
 DISTANCE A - B      0.875172
 HEAT               80.327607
 GRADIENT NORM     148.986018
 DIRECTION COSINE    0.999720
 geo-ok
 Locate and refine the transition state for the HNC - HCN isomerization
 (Geometry data for reactant and products are in other files.)
  H(HETATM    1  H   CYN A   1)   0.00000000 +0    0.0000000 +0    0.0000000 +0
  C(HETATM    2  C   CYN A   1)   1.12063811 +1    0.0000000 +0    0.0000000 +0     1     0     0
  N(HETATM    3  N   CYN A   1)   1.15711034 +1  108.6354784 +1    0.0000000 +0     2     1     0
 
 TIME=     0.03
  REACTANTS AND PRODUCTS SWAPPED AROUND
 *+*+*+*+*+*+*+*+*+*+*+*+*+*+*+*+*+*+*+*+*+*+*+*+*+*+*+*+*+*+*+*+*+*+*+*+*+*+*+*+
            BAR SHORTENED BY       1.000 PERCENT
 GRADIENT CRITERION IN FLEPO =    10.000


          FOR POINT   67 SECOND STRUCTURE
 DISTANCE A - B      0.866421
 HEAT               80.643801
 GRADIENT NORM     111.888974
 DIRECTION COSINE    0.999793
 geo-ok
 Locate and refine the transition state for the HNC - HCN isomerization
 (Geometry data for reactant and products are in other files.)
  H(HETATM    1  H   CYN A   1)   0.00000000 +0    0.0000000 +0    0.0000000 +0
  C(HETATM    2  C   CYN A   1)   1.74517896 +1    0.0000000 +0    0.0000000 +0     1     0     0
  N(HETATM    3  N   CYN A   1)   1.11361872 +1   43.5247261 +1    0.0000000 +0     1     2     0
 
 TIME=     0.00
  REACTANTS AND PRODUCTS SWAPPED AROUND
 *+*+*+*+*+*+*+*+*+*+*+*+*+*+*+*+*+*+*+*+*+*+*+*+*+*+*+*+*+*+*+*+*+*+*+*+*+*+*+*+
            BAR SHORTENED BY       1.000 PERCENT
 GRADIENT CRITERION IN FLEPO =    10.000


          FOR POINT   68 FIRST  STRUCTURE
 DISTANCE A - B      0.857756
 HEAT               81.610330
 GRADIENT NORM     147.898748
 DIRECTION COSINE    0.999915
 geo-ok
 Locate and refine the transition state for the HNC - HCN isomerization
 (Geometry data for reactant and products are in other files.)
  H(HETATM    1  H   CYN A   1)   0.00000000 +0    0.0000000 +0    0.0000000 +0
  C(HETATM    2  C   CYN A   1)   1.12127157 +1    0.0000000 +0    0.0000000 +0     1     0     0
  N(HETATM    3  N   CYN A   1)   1.15816507 +1  107.6310169 +1    0.0000000 +0     2     1     0
 
 TIME=     0.00
  REACTANTS AND PRODUCTS SWAPPED AROUND
 *+*+*+*+*+*+*+*+*+*+*+*+*+*+*+*+*+*+*+*+*+*+*+*+*+*+*+*+*+*+*+*+*+*+*+*+*+*+*+*+
            BAR SHORTENED BY       1.000 PERCENT
 GRADIENT CRITERION IN FLEPO =    10.000


          FOR POINT   69 SECOND STRUCTURE
 DISTANCE A - B      0.849179
 HEAT               81.593414
 GRADIENT NORM     113.198697
 DIRECTION COSINE    0.999162
 geo-ok
 Locate and refine the transition state for the HNC - HCN isomerization
 (Geometry data for reactant and products are in other files.)
  H(HETATM    1  H   CYN A   1)   0.00000000 +0    0.0000000 +0    0.0000000 +0
  C(HETATM    2  C   CYN A   1)   1.73720852 +1    0.0000000 +0    0.0000000 +0     1     0     0
  N(HETATM    3  N   CYN A   1)   1.11914476 +1   43.8478163 +1    0.0000000 +0     1     2     0
 
 *+*+*+*+*+*+*+*+*+*+*+*+*+*+*+*+*+*+*+*+*+*+*+*+*+*+*+*+*+*+*+*+*+*+*+*+*+*+*+*+
            BAR SHORTENED BY       1.000 PERCENT
 GRADIENT CRITERION IN FLEPO =    10.000


          FOR POINT   70 SECOND STRUCTURE
 DISTANCE A - B      0.840687
 HEAT               82.534423
 GRADIENT NORM     111.409484
 DIRECTION COSINE    0.999680
 geo-ok
 Locate and refine the transition state for the HNC - HCN isomerization
 (Geometry data for reactant and products are in other files.)
  H(HETATM    1  H   CYN A   1)   0.00000000 +0    0.0000000 +0    0.0000000 +0
  C(HETATM    2  C   CYN A   1)   1.72920801 +1    0.0000000 +0    0.0000000 +0     1     0     0
  N(HETATM    3  N   CYN A   1)   1.12463853 +1   44.2764002 +1    0.0000000 +0     1     2     0
 
 TIME=     0.03
  REACTANTS AND PRODUCTS SWAPPED AROUND
 *+*+*+*+*+*+*+*+*+*+*+*+*+*+*+*+*+*+*+*+*+*+*+*+*+*+*+*+*+*+*+*+*+*+*+*+*+*+*+*+
            BAR SHORTENED BY       1.000 PERCENT
 GRADIENT CRITERION IN FLEPO =    10.000


          FOR POINT   71 FIRST  STRUCTURE
 DISTANCE A - B      0.832280
 HEAT               82.844514
 GRADIENT NORM     147.109272
 DIRECTION COSINE    0.999889
 geo-ok
 Locate and refine the transition state for the HNC - HCN isomerization
 (Geometry data for reactant and products are in other files.)
  H(HETATM    1  H   CYN A   1)   0.00000000 +0    0.0000000 +0    0.0000000 +0
  C(HETATM    2  C   CYN A   1)   1.12645811 +1    0.0000000 +0    0.0000000 +0     1     0     0
  N(HETATM    3  N   CYN A   1)   1.15924570 +1  106.6826833 +1    0.0000000 +0     2     1     0
 
 TIME=     0.00
  REACTANTS AND PRODUCTS SWAPPED AROUND
 *+*+*+*+*+*+*+*+*+*+*+*+*+*+*+*+*+*+*+*+*+*+*+*+*+*+*+*+*+*+*+*+*+*+*+*+*+*+*+*+
            BAR SHORTENED BY       1.000 PERCENT
 GRADIENT CRITERION IN FLEPO =    10.000


          FOR POINT   72 SECOND STRUCTURE
 DISTANCE A - B      0.823957
 HEAT               83.452468
 GRADIENT NORM     111.158026
 DIRECTION COSINE    0.999764
 geo-ok
 Locate and refine the transition state for the HNC - HCN isomerization
 (Geometry data for reactant and products are in other files.)
  H(HETATM    1  H   CYN A   1)   0.00000000 +0    0.0000000 +0    0.0000000 +0
  C(HETATM    2  C   CYN A   1)   1.72107233 +1    0.0000000 +0    0.0000000 +0     1     0     0
  N(HETATM    3  N   CYN A   1)   1.12976480 +1   44.6349100 +1    0.0000000 +0     1     2     0
 
 TIME=     0.03
  REACTANTS AND PRODUCTS SWAPPED AROUND
 *+*+*+*+*+*+*+*+*+*+*+*+*+*+*+*+*+*+*+*+*+*+*+*+*+*+*+*+*+*+*+*+*+*+*+*+*+*+*+*+
            BAR SHORTENED BY       1.000 PERCENT
 GRADIENT CRITERION IN FLEPO =    10.000


          FOR POINT   73 FIRST  STRUCTURE
 DISTANCE A - B      0.815718
 HEAT               84.053104
 GRADIENT NORM     146.029098
 DIRECTION COSINE    0.999890
 geo-ok
 Locate and refine the transition state for the HNC - HCN isomerization
 (Geometry data for reactant and products are in other files.)
  H(HETATM    1  H   CYN A   1)   0.00000000 +0    0.0000000 +0    0.0000000 +0
  C(HETATM    2  C   CYN A   1)   1.12663377 +1    0.0000000 +0    0.0000000 +0     1     0     0
  N(HETATM    3  N   CYN A   1)   1.16016191 +1  105.7478476 +1    0.0000000 +0     2     1     0
 
 TIME=     0.00
  REACTANTS AND PRODUCTS SWAPPED AROUND
 *+*+*+*+*+*+*+*+*+*+*+*+*+*+*+*+*+*+*+*+*+*+*+*+*+*+*+*+*+*+*+*+*+*+*+*+*+*+*+*+
            BAR SHORTENED BY       1.000 PERCENT
 GRADIENT CRITERION IN FLEPO =    10.000


          FOR POINT   74 SECOND STRUCTURE
 DISTANCE A - B      0.807561
 HEAT               84.327824
 GRADIENT NORM     110.292777
 DIRECTION COSINE    0.999351
 geo-ok
 Locate and refine the transition state for the HNC - HCN isomerization
 (Geometry data for reactant and products are in other files.)
  H(HETATM    1  H   CYN A   1)   0.00000000 +0    0.0000000 +0    0.0000000 +0
  C(HETATM    2  C   CYN A   1)   1.70929489 +1    0.0000000 +0    0.0000000 +0     1     0     0
  N(HETATM    3  N   CYN A   1)   1.13073954 +1   45.1128113 +1    0.0000000 +0     1     2     0
 
 TIME=     0.02
  REACTANTS AND PRODUCTS SWAPPED AROUND
 *+*+*+*+*+*+*+*+*+*+*+*+*+*+*+*+*+*+*+*+*+*+*+*+*+*+*+*+*+*+*+*+*+*+*+*+*+*+*+*+
            BAR SHORTENED BY       1.000 PERCENT
 GRADIENT CRITERION IN FLEPO =    10.000


          FOR POINT   75 FIRST  STRUCTURE
 DISTANCE A - B      0.799485
 HEAT               85.225292
 GRADIENT NORM     145.026012
 DIRECTION COSINE    0.999677
 geo-ok
 Locate and refine the transition state for the HNC - HCN isomerization
 (Geometry data for reactant and products are in other files.)
  H(HETATM    1  H   CYN A   1)   0.00000000 +0    0.0000000 +0    0.0000000 +0
  C(HETATM    2  C   CYN A   1)   1.13145722 +1    0.0000000 +0    0.0000000 +0     1     0     0
  N(HETATM    3  N   CYN A   1)   1.16124197 +1  104.8520274 +1    0.0000000 +0     2     1     0
 
 TIME=     0.02
  REACTANTS AND PRODUCTS SWAPPED AROUND
 *+*+*+*+*+*+*+*+*+*+*+*+*+*+*+*+*+*+*+*+*+*+*+*+*+*+*+*+*+*+*+*+*+*+*+*+*+*+*+*+
            BAR SHORTENED BY       1.000 PERCENT
 GRADIENT CRITERION IN FLEPO =    10.000


          FOR POINT   76 SECOND STRUCTURE
 DISTANCE A - B      0.791490
 HEAT               85.199906
 GRADIENT NORM     109.377186
 DIRECTION COSINE    0.999947
 geo-ok
 Locate and refine the transition state for the HNC - HCN isomerization
 (Geometry data for reactant and products are in other files.)
  H(HETATM    1  H   CYN A   1)   0.00000000 +0    0.0000000 +0    0.0000000 +0
  C(HETATM    2  C   CYN A   1)   1.70496625 +1    0.0000000 +0    0.0000000 +0     1     0     0
  N(HETATM    3  N   CYN A   1)   1.13922571 +1   45.3575073 +1    0.0000000 +0     1     2     0
 
 *+*+*+*+*+*+*+*+*+*+*+*+*+*+*+*+*+*+*+*+*+*+*+*+*+*+*+*+*+*+*+*+*+*+*+*+*+*+*+*+
            BAR SHORTENED BY       1.000 PERCENT
 GRADIENT CRITERION IN FLEPO =    10.000


          FOR POINT   77 SECOND STRUCTURE
 DISTANCE A - B      0.783575
 HEAT               86.067597
 GRADIENT NORM     109.569988
 DIRECTION COSINE    0.999902
 geo-ok
 Locate and refine the transition state for the HNC - HCN isomerization
 (Geometry data for reactant and products are in other files.)
  H(HETATM    1  H   CYN A   1)   0.00000000 +0    0.0000000 +0    0.0000000 +0
  C(HETATM    2  C   CYN A   1)   1.69851199 +1    0.0000000 +0    0.0000000 +0     1     0     0
  N(HETATM    3  N   CYN A   1)   1.14558165 +1   45.6080056 +1    0.0000000 +0     1     2     0
 
 TIME=     0.01
  REACTANTS AND PRODUCTS SWAPPED AROUND
 *+*+*+*+*+*+*+*+*+*+*+*+*+*+*+*+*+*+*+*+*+*+*+*+*+*+*+*+*+*+*+*+*+*+*+*+*+*+*+*+
            BAR SHORTENED BY       1.000 PERCENT
 GRADIENT CRITERION IN FLEPO =    10.000


          FOR POINT   78 FIRST  STRUCTURE
 DISTANCE A - B      0.775740
 HEAT               86.358250
 GRADIENT NORM     143.708333
 DIRECTION COSINE    0.999957
 geo-ok
 Locate and refine the transition state for the HNC - HCN isomerization
 (Geometry data for reactant and products are in other files.)
  H(HETATM    1  H   CYN A   1)   0.00000000 +0    0.0000000 +0    0.0000000 +0
  C(HETATM    2  C   CYN A   1)   1.13218823 +1    0.0000000 +0    0.0000000 +0     1     0     0
  N(HETATM    3  N   CYN A   1)   1.16225614 +1  103.9762445 +1    0.0000000 +0     2     1     0
 
 TIME=     0.02
  REACTANTS AND PRODUCTS SWAPPED AROUND
 *+*+*+*+*+*+*+*+*+*+*+*+*+*+*+*+*+*+*+*+*+*+*+*+*+*+*+*+*+*+*+*+*+*+*+*+*+*+*+*+
            BAR SHORTENED BY       1.000 PERCENT
 GRADIENT CRITERION IN FLEPO =    10.000


          FOR POINT   79 SECOND STRUCTURE
 DISTANCE A - B      0.767982
 HEAT               86.906996
 GRADIENT NORM     109.335190
 DIRECTION COSINE    0.999511
 geo-ok
 Locate and refine the transition state for the HNC - HCN isomerization
 (Geometry data for reactant and products are in other files.)
  H(HETATM    1  H   CYN A   1)   0.00000000 +0    0.0000000 +0    0.0000000 +0
  C(HETATM    2  C   CYN A   1)   1.68798394 +1    0.0000000 +0    0.0000000 +0     1     0     0
  N(HETATM    3  N   CYN A   1)   1.14763289 +1   45.9903834 +1    0.0000000 +0     1     2     0
 
 TIME=     0.00
  REACTANTS AND PRODUCTS SWAPPED AROUND
 *+*+*+*+*+*+*+*+*+*+*+*+*+*+*+*+*+*+*+*+*+*+*+*+*+*+*+*+*+*+*+*+*+*+*+*+*+*+*+*+
            BAR SHORTENED BY       1.000 PERCENT
 GRADIENT CRITERION IN FLEPO =    10.000


          FOR POINT   80 FIRST  STRUCTURE
 DISTANCE A - B      0.760302
 HEAT               87.458952
 GRADIENT NORM     143.070927
 DIRECTION COSINE    0.999592
 geo-ok
 Locate and refine the transition state for the HNC - HCN isomerization
 (Geometry data for reactant and products are in other files.)
  H(HETATM    1  H   CYN A   1)   0.00000000 +0    0.0000000 +0    0.0000000 +0
  C(HETATM    2  C   CYN A   1)   1.13758655 +1    0.0000000 +0    0.0000000 +0     1     0     0
  N(HETATM    3  N   CYN A   1)   1.16296354 +1  103.1563528 +1    0.0000000 +0     2     1     0
 
 TIME=     0.01
  REACTANTS AND PRODUCTS SWAPPED AROUND
 *+*+*+*+*+*+*+*+*+*+*+*+*+*+*+*+*+*+*+*+*+*+*+*+*+*+*+*+*+*+*+*+*+*+*+*+*+*+*+*+
            BAR SHORTENED BY       1.000 PERCENT
 GRADIENT CRITERION IN FLEPO =    10.000


          FOR POINT   81 SECOND STRUCTURE
 DISTANCE A - B      0.752699
 HEAT               87.725390
 GRADIENT NORM     108.456130
 DIRECTION COSINE    0.999776
 geo-ok
 Locate and refine the transition state for the HNC - HCN isomerization
 (Geometry data for reactant and products are in other files.)
  H(HETATM    1  H   CYN A   1)   0.00000000 +0    0.0000000 +0    0.0000000 +0
  C(HETATM    2  C   CYN A   1)   1.68370306 +1    0.0000000 +0    0.0000000 +0     1     0     0
  N(HETATM    3  N   CYN A   1)   1.15562145 +1   46.1943545 +1    0.0000000 +0     1     2     0
 
 TIME=     0.02
  REACTANTS AND PRODUCTS SWAPPED AROUND
 *+*+*+*+*+*+*+*+*+*+*+*+*+*+*+*+*+*+*+*+*+*+*+*+*+*+*+*+*+*+*+*+*+*+*+*+*+*+*+*+
            BAR SHORTENED BY       1.000 PERCENT
 GRADIENT CRITERION IN FLEPO =    10.000


          FOR POINT   82 FIRST  STRUCTURE
 DISTANCE A - B      0.745172
 HEAT               88.530865
 GRADIENT NORM     142.122885
 DIRECTION COSINE    0.999755
 geo-ok
 Locate and refine the transition state for the HNC - HCN isomerization
 (Geometry data for reactant and products are in other files.)
  H(HETATM    1  H   CYN A   1)   0.00000000 +0    0.0000000 +0    0.0000000 +0
  C(HETATM    2  C   CYN A   1)   1.14170497 +1    0.0000000 +0    0.0000000 +0     1     0     0
  N(HETATM    3  N   CYN A   1)   1.16376077 +1  102.3507155 +1    0.0000000 +0     2     1     0
 
 TIME=     0.02
  REACTANTS AND PRODUCTS SWAPPED AROUND
 *+*+*+*+*+*+*+*+*+*+*+*+*+*+*+*+*+*+*+*+*+*+*+*+*+*+*+*+*+*+*+*+*+*+*+*+*+*+*+*+
            BAR SHORTENED BY       1.000 PERCENT
 GRADIENT CRITERION IN FLEPO =    10.000


          FOR POINT   83 SECOND STRUCTURE
 DISTANCE A - B      0.737721
 HEAT               88.524024
 GRADIENT NORM     108.049476
 DIRECTION COSINE    0.999522
 geo-ok
 Locate and refine the transition state for the HNC - HCN isomerization
 (Geometry data for reactant and products are in other files.)
  H(HETATM    1  H   CYN A   1)   0.00000000 +0    0.0000000 +0    0.0000000 +0
  C(HETATM    2  C   CYN A   1)   1.67352011 +1    0.0000000 +0    0.0000000 +0     1     0     0
  N(HETATM    3  N   CYN A   1)   1.15763594 +1   46.5535803 +1    0.0000000 +0     1     2     0
 
 *+*+*+*+*+*+*+*+*+*+*+*+*+*+*+*+*+*+*+*+*+*+*+*+*+*+*+*+*+*+*+*+*+*+*+*+*+*+*+*+
            BAR SHORTENED BY       1.000 PERCENT
 GRADIENT CRITERION IN FLEPO =    10.000


          FOR POINT   84 SECOND STRUCTURE
 DISTANCE A - B      0.730343
 HEAT               89.309863
 GRADIENT NORM     107.104125
 DIRECTION COSINE    0.999696
 geo-ok
 Locate and refine the transition state for the HNC - HCN isomerization
 (Geometry data for reactant and products are in other files.)
  H(HETATM    1  H   CYN A   1)   0.00000000 +0    0.0000000 +0    0.0000000 +0
  C(HETATM    2  C   CYN A   1)   1.66938816 +1    0.0000000 +0    0.0000000 +0     1     0     0
  N(HETATM    3  N   CYN A   1)   1.16547753 +1   46.7348445 +1    0.0000000 +0     1     2     0
 
 TIME=     0.01
  REACTANTS AND PRODUCTS SWAPPED AROUND
 *+*+*+*+*+*+*+*+*+*+*+*+*+*+*+*+*+*+*+*+*+*+*+*+*+*+*+*+*+*+*+*+*+*+*+*+*+*+*+*+
            BAR SHORTENED BY       1.000 PERCENT
 GRADIENT CRITERION IN FLEPO =    10.000


          FOR POINT   85 FIRST  STRUCTURE
 DISTANCE A - B      0.723040
 HEAT               89.559992
 GRADIENT NORM     140.653688
 DIRECTION COSINE    0.999837
 geo-ok
 Locate and refine the transition state for the HNC - HCN isomerization
 (Geometry data for reactant and products are in other files.)
  H(HETATM    1  H   CYN A   1)   0.00000000 +0    0.0000000 +0    0.0000000 +0
  C(HETATM    2  C   CYN A   1)   1.14375622 +1    0.0000000 +0    0.0000000 +0     1     0     0
  N(HETATM    3  N   CYN A   1)   1.16478678 +1  101.5574501 +1    0.0000000 +0     2     1     0
 
 TIME=     0.02
  REACTANTS AND PRODUCTS SWAPPED AROUND
 *+*+*+*+*+*+*+*+*+*+*+*+*+*+*+*+*+*+*+*+*+*+*+*+*+*+*+*+*+*+*+*+*+*+*+*+*+*+*+*+
            BAR SHORTENED BY       1.000 PERCENT
 GRADIENT CRITERION IN FLEPO =    10.000


          FOR POINT   86 SECOND STRUCTURE
 DISTANCE A - B      0.715810
 HEAT               90.076516
 GRADIENT NORM     106.648588
 DIRECTION COSINE    0.999536
 geo-ok
 Locate and refine the transition state for the HNC - HCN isomerization
 (Geometry data for reactant and products are in other files.)
  H(HETATM    1  H   CYN A   1)   0.00000000 +0    0.0000000 +0    0.0000000 +0
  C(HETATM    2  C   CYN A   1)   1.65893378 +1    0.0000000 +0    0.0000000 +0     1     0     0
  N(HETATM    3  N   CYN A   1)   1.16696693 +1   47.0880933 +1    0.0000000 +0     1     2     0
 
 TIME=     0.00
  REACTANTS AND PRODUCTS SWAPPED AROUND
 *+*+*+*+*+*+*+*+*+*+*+*+*+*+*+*+*+*+*+*+*+*+*+*+*+*+*+*+*+*+*+*+*+*+*+*+*+*+*+*+
            BAR SHORTENED BY       1.000 PERCENT
 GRADIENT CRITERION IN FLEPO =    10.000


          FOR POINT   87 FIRST  STRUCTURE
 DISTANCE A - B      0.708652
 HEAT               90.562042
 GRADIENT NORM     139.647490
 DIRECTION COSINE    0.999543
 geo-ok
 Locate and refine the transition state for the HNC - HCN isomerization
 (Geometry data for reactant and products are in other files.)
  H(HETATM    1  H   CYN A   1)   0.00000000 +0    0.0000000 +0    0.0000000 +0
  C(HETATM    2  C   CYN A   1)   1.14785722 +1    0.0000000 +0    0.0000000 +0     1     0     0
  N(HETATM    3  N   CYN A   1)   1.16549464 +1  100.8069190 +1    0.0000000 +0     2     1     0
 
 TIME=     0.02
  REACTANTS AND PRODUCTS SWAPPED AROUND
 *+*+*+*+*+*+*+*+*+*+*+*+*+*+*+*+*+*+*+*+*+*+*+*+*+*+*+*+*+*+*+*+*+*+*+*+*+*+*+*+
            BAR SHORTENED BY       1.000 PERCENT
 GRADIENT CRITERION IN FLEPO =    10.000


          FOR POINT   88 SECOND STRUCTURE
 DISTANCE A - B      0.701565
 HEAT               90.819224
 GRADIENT NORM     105.656020
 DIRECTION COSINE    0.999689
 geo-ok
 Locate and refine the transition state for the HNC - HCN isomerization
 (Geometry data for reactant and products are in other files.)
  H(HETATM    1  H   CYN A   1)   0.00000000 +0    0.0000000 +0    0.0000000 +0
  C(HETATM    2  C   CYN A   1)   1.65522486 +1    0.0000000 +0    0.0000000 +0     1     0     0
  N(HETATM    3  N   CYN A   1)   1.17477357 +1   47.2389805 +1    0.0000000 +0     1     2     0
 
 TIME=     0.01
  REACTANTS AND PRODUCTS SWAPPED AROUND
 *+*+*+*+*+*+*+*+*+*+*+*+*+*+*+*+*+*+*+*+*+*+*+*+*+*+*+*+*+*+*+*+*+*+*+*+*+*+*+*+
            BAR SHORTENED BY       1.000 PERCENT
 GRADIENT CRITERION IN FLEPO =    10.000


          FOR POINT   89 FIRST  STRUCTURE
 DISTANCE A - B      0.694549
 HEAT               91.535601
 GRADIENT NORM     138.435164
 DIRECTION COSINE    0.999675
 geo-ok
 Locate and refine the transition state for the HNC - HCN isomerization
 (Geometry data for reactant and products are in other files.)
  H(HETATM    1  H   CYN A   1)   0.00000000 +0    0.0000000 +0    0.0000000 +0
  C(HETATM    2  C   CYN A   1)   1.15180381 +1    0.0000000 +0    0.0000000 +0     1     0     0
  N(HETATM    3  N   CYN A   1)   1.16629651 +1  100.0722903 +1    0.0000000 +0     2     1     0
 
 TIME=     0.00
  REACTANTS AND PRODUCTS SWAPPED AROUND
 *+*+*+*+*+*+*+*+*+*+*+*+*+*+*+*+*+*+*+*+*+*+*+*+*+*+*+*+*+*+*+*+*+*+*+*+*+*+*+*+
            BAR SHORTENED BY       1.000 PERCENT
 GRADIENT CRITERION IN FLEPO =    10.000


          FOR POINT   90 SECOND STRUCTURE
 DISTANCE A - B      0.687604
 HEAT               91.562906
 GRADIENT NORM     108.884444
 DIRECTION COSINE    0.994632
 geo-ok
 Locate and refine the transition state for the HNC - HCN isomerization
 (Geometry data for reactant and products are in other files.)
  H(HETATM    1  H   CYN A   1)   0.00000000 +0    0.0000000 +0    0.0000000 +0
  C(HETATM    2  C   CYN A   1)   1.64974836 +1    0.0000000 +0    0.0000000 +0     1     0     0
  N(HETATM    3  N   CYN A   1)   1.18057719 +1   47.2638552 +1    0.0000000 +0     1     2     0
 
 TIME=     0.03
  REACTANTS AND PRODUCTS SWAPPED AROUND
 *+*+*+*+*+*+*+*+*+*+*+*+*+*+*+*+*+*+*+*+*+*+*+*+*+*+*+*+*+*+*+*+*+*+*+*+*+*+*+*+
            BAR SHORTENED BY       1.000 PERCENT
 GRADIENT CRITERION IN FLEPO =    10.000


          FOR POINT   91 FIRST  STRUCTURE
 DISTANCE A - B      0.680728
 HEAT               92.482415
 GRADIENT NORM     137.383399
 DIRECTION COSINE    0.994234
 geo-ok
 Locate and refine the transition state for the HNC - HCN isomerization
 (Geometry data for reactant and products are in other files.)
  H(HETATM    1  H   CYN A   1)   0.00000000 +0    0.0000000 +0    0.0000000 +0
  C(HETATM    2  C   CYN A   1)   1.15559738 +1    0.0000000 +0    0.0000000 +0     1     0     0
  N(HETATM    3  N   CYN A   1)   1.16688127 +1   99.3642224 +1    0.0000000 +0     2     1     0
 
 TIME=     0.00
  REACTANTS AND PRODUCTS SWAPPED AROUND
 *+*+*+*+*+*+*+*+*+*+*+*+*+*+*+*+*+*+*+*+*+*+*+*+*+*+*+*+*+*+*+*+*+*+*+*+*+*+*+*+
            BAR SHORTENED BY       1.000 PERCENT
 GRADIENT CRITERION IN FLEPO =    10.000


          FOR POINT   92 SECOND STRUCTURE
 DISTANCE A - B      0.673921
 HEAT               92.260279
 GRADIENT NORM     104.208016
 DIRECTION COSINE    0.999315
 geo-ok
 Locate and refine the transition state for the HNC - HCN isomerization
 (Geometry data for reactant and products are in other files.)
  H(HETATM    1  H   CYN A   1)   0.00000000 +0    0.0000000 +0    0.0000000 +0
  C(HETATM    2  C   CYN A   1)   1.64370235 +1    0.0000000 +0    0.0000000 +0     1     0     0
  N(HETATM    3  N   CYN A   1)   1.18594654 +1   47.6260860 +1    0.0000000 +0     1     2     0
 
 *+*+*+*+*+*+*+*+*+*+*+*+*+*+*+*+*+*+*+*+*+*+*+*+*+*+*+*+*+*+*+*+*+*+*+*+*+*+*+*+
            BAR SHORTENED BY       1.000 PERCENT
 GRADIENT CRITERION IN FLEPO =    10.000


          FOR POINT   93 SECOND STRUCTURE
 DISTANCE A - B      0.667181
 HEAT               92.970804
 GRADIENT NORM     106.977421
 DIRECTION COSINE    0.996373
 geo-ok
 Locate and refine the transition state for the HNC - HCN isomerization
 (Geometry data for reactant and products are in other files.)
  H(HETATM    1  H   CYN A   1)   0.00000000 +0    0.0000000 +0    0.0000000 +0
[...]


          FOR POINT  263 FIRST  STRUCTURE
 DISTANCE A - B      0.120845
 HEAT              115.026832
 GRADIENT NORM      31.820953
 DIRECTION COSINE    0.942932
 geo-ok
 Locate and refine the transition state for the HNC - HCN isomerization
 (Geometry data for reactant and products are in other files.)
  H(HETATM    1  H   CYN A   1)   0.00000000 +0    0.0000000 +0    0.0000000 +0
  C(HETATM    2  C   CYN A   1)   1.29577471 +1    0.0000000 +0    0.0000000 +0     1     0     0
  N(HETATM    3  N   CYN A   1)   1.19745909 +1   76.6534620 +1    0.0000000 +0     2     1     0
 
 TIME=     0.03
  REACTANTS AND PRODUCTS SWAPPED AROUND
 *+*+*+*+*+*+*+*+*+*+*+*+*+*+*+*+*+*+*+*+*+*+*+*+*+*+*+*+*+*+*+*+*+*+*+*+*+*+*+*+
            BAR SHORTENED BY       1.000 PERCENT
 GRADIENT CRITERION IN FLEPO =    10.000


          FOR POINT  264 SECOND STRUCTURE
 DISTANCE A - B      0.119636
 HEAT              115.039256
 GRADIENT NORM      30.205054
 DIRECTION COSINE    0.938792
 geo-ok
 Locate and refine the transition state for the HNC - HCN isomerization
 (Geometry data for reactant and products are in other files.)
  H(HETATM    1  H   CYN A   1)   0.00000000 +0    0.0000000 +0    0.0000000 +0
  C(HETATM    2  C   CYN A   1)   1.38093019 +1    0.0000000 +0    0.0000000 +0     1     0     0
  N(HETATM    3  N   CYN A   1)   1.20656888 +1   67.2429144 +1    0.0000000 +0     2     1     0
 
 TIME=     0.00
  REACTANTS AND PRODUCTS SWAPPED AROUND
 *+*+*+*+*+*+*+*+*+*+*+*+*+*+*+*+*+*+*+*+*+*+*+*+*+*+*+*+*+*+*+*+*+*+*+*+*+*+*+*+
            BAR SHORTENED BY       1.000 PERCENT
 GRADIENT CRITERION IN FLEPO =    10.000


          FOR POINT  265 FIRST  STRUCTURE
 DISTANCE A - B      0.118440
 HEAT              115.064421
 GRADIENT NORM      31.190846
 DIRECTION COSINE    0.934152
 geo-ok
 Locate and refine the transition state for the HNC - HCN isomerization
 (Geometry data for reactant and products are in other files.)
  H(HETATM    1  H   CYN A   1)   0.00000000 +0    0.0000000 +0    0.0000000 +0
  C(HETATM    2  C   CYN A   1)   1.29660574 +1    0.0000000 +0    0.0000000 +0     1     0     0
  N(HETATM    3  N   CYN A   1)   1.19747874 +1   76.5569807 +1    0.0000000 +0     2     1     0
 
 TIME=     0.00
  REACTANTS AND PRODUCTS SWAPPED AROUND
 *+*+*+*+*+*+*+*+*+*+*+*+*+*+*+*+*+*+*+*+*+*+*+*+*+*+*+*+*+*+*+*+*+*+*+*+*+*+*+*+
            BAR SHORTENED BY       1.000 PERCENT
 GRADIENT CRITERION IN FLEPO =    10.000


          FOR POINT  266 SECOND STRUCTURE
 DISTANCE A - B      0.117255
 HEAT              115.073168
 GRADIENT NORM      29.804912
 DIRECTION COSINE    0.929724
 geo-ok
 Locate and refine the transition state for the HNC - HCN isomerization
 (Geometry data for reactant and products are in other files.)
  H(HETATM    1  H   CYN A   1)   0.00000000 +0    0.0000000 +0    0.0000000 +0
  C(HETATM    2  C   CYN A   1)   1.38006806 +1    0.0000000 +0    0.0000000 +0     1     0     0
  N(HETATM    3  N   CYN A   1)   1.20640848 +1   67.3335817 +1    0.0000000 +0     2     1     0
 
 TIME=     0.03
  REACTANTS AND PRODUCTS SWAPPED AROUND
 *+*+*+*+*+*+*+*+*+*+*+*+*+*+*+*+*+*+*+*+*+*+*+*+*+*+*+*+*+*+*+*+*+*+*+*+*+*+*+*+
            BAR SHORTENED BY       1.000 PERCENT
 GRADIENT CRITERION IN FLEPO =    10.000


          FOR POINT  267 FIRST  STRUCTURE
 DISTANCE A - B      0.116083
 HEAT              115.100507
 GRADIENT NORM      30.578063
 DIRECTION COSINE    0.924720
 geo-ok
 Locate and refine the transition state for the HNC - HCN isomerization
 (Geometry data for reactant and products are in other files.)
  H(HETATM    1  H   CYN A   1)   0.00000000 +0    0.0000000 +0    0.0000000 +0
  C(HETATM    2  C   CYN A   1)   1.29742066 +1    0.0000000 +0    0.0000000 +0     1     0     0
  N(HETATM    3  N   CYN A   1)   1.19749941 +1   76.4624631 +1    0.0000000 +0     2     1     0
 
 TIME=     0.00
  REACTANTS AND PRODUCTS SWAPPED AROUND
 *+*+*+*+*+*+*+*+*+*+*+*+*+*+*+*+*+*+*+*+*+*+*+*+*+*+*+*+*+*+*+*+*+*+*+*+*+*+*+*+
            BAR SHORTENED BY       1.000 PERCENT
 GRADIENT CRITERION IN FLEPO =    10.000


          FOR POINT  268 SECOND STRUCTURE
 DISTANCE A - B      0.114922
 HEAT              115.105835
 GRADIENT NORM      29.412911
 DIRECTION COSINE    0.920009
 geo-ok
 Locate and refine the transition state for the HNC - HCN isomerization
 (Geometry data for reactant and products are in other files.)
  H(HETATM    1  H   CYN A   1)   0.00000000 +0    0.0000000 +0    0.0000000 +0
  C(HETATM    2  C   CYN A   1)   1.37922343 +1    0.0000000 +0    0.0000000 +0     1     0     0
  N(HETATM    3  N   CYN A   1)   1.20625262 +1   67.4224959 +1    0.0000000 +0     2     1     0
 
 TIME=     0.00
  REACTANTS AND PRODUCTS SWAPPED AROUND
 *+*+*+*+*+*+*+*+*+*+*+*+*+*+*+*+*+*+*+*+*+*+*+*+*+*+*+*+*+*+*+*+*+*+*+*+*+*+*+*+
            BAR SHORTENED BY       1.000 PERCENT
 GRADIENT CRITERION IN FLEPO =    10.000


          FOR POINT  269 FIRST  STRUCTURE
 DISTANCE A - B      0.113773
 HEAT              115.135148
 GRADIENT NORM      29.982216
 DIRECTION COSINE    0.914642
 geo-ok
 Locate and refine the transition state for the HNC - HCN isomerization
 (Geometry data for reactant and products are in other files.)
  H(HETATM    1  H   CYN A   1)   0.00000000 +0    0.0000000 +0    0.0000000 +0
  C(HETATM    2  C   CYN A   1)   1.29821978 +1    0.0000000 +0    0.0000000 +0     1     0     0
  N(HETATM    3  N   CYN A   1)   1.19752103 +1   76.3698684 +1    0.0000000 +0     2     1     0
 
 TIME=     0.04
  REACTANTS AND PRODUCTS SWAPPED AROUND
 *+*+*+*+*+*+*+*+*+*+*+*+*+*+*+*+*+*+*+*+*+*+*+*+*+*+*+*+*+*+*+*+*+*+*+*+*+*+*+*+
            BAR SHORTENED BY       1.000 PERCENT
 GRADIENT CRITERION IN FLEPO =    10.000


          FOR POINT  270 SECOND STRUCTURE
 DISTANCE A - B      0.112635
 HEAT              115.137301
 GRADIENT NORM      29.028904
 DIRECTION COSINE    0.909655
 geo-ok
 Locate and refine the transition state for the HNC - HCN isomerization
 (Geometry data for reactant and products are in other files.)
  H(HETATM    1  H   CYN A   1)   0.00000000 +0    0.0000000 +0    0.0000000 +0
  C(HETATM    2  C   CYN A   1)   1.37839595 +1    0.0000000 +0    0.0000000 +0     1     0     0
  N(HETATM    3  N   CYN A   1)   1.20610116 +1   67.5096898 +1    0.0000000 +0     2     1     0
 
 TIME=     0.00
  REACTANTS AND PRODUCTS SWAPPED AROUND
 *+*+*+*+*+*+*+*+*+*+*+*+*+*+*+*+*+*+*+*+*+*+*+*+*+*+*+*+*+*+*+*+*+*+*+*+*+*+*+*+
            BAR SHORTENED BY       1.000 PERCENT
 GRADIENT CRITERION IN FLEPO =    10.000


          FOR POINT  271 FIRST  STRUCTURE
 DISTANCE A - B      0.111509
 HEAT              115.168402
 GRADIENT NORM      29.402924
 DIRECTION COSINE    0.903923
 geo-ok
 Locate and refine the transition state for the HNC - HCN isomerization
 (Geometry data for reactant and products are in other files.)
  H(HETATM    1  H   CYN A   1)   0.00000000 +0    0.0000000 +0    0.0000000 +0
  C(HETATM    2  C   CYN A   1)   1.29900338 +1    0.0000000 +0    0.0000000 +0     1     0     0
  N(HETATM    3  N   CYN A   1)   1.19754350 +1   76.2791568 +1    0.0000000 +0     2     1     0
 
 TIME=     0.00
  REACTANTS AND PRODUCTS SWAPPED AROUND
 *+*+*+*+*+*+*+*+*+*+*+*+*+*+*+*+*+*+*+*+*+*+*+*+*+*+*+*+*+*+*+*+*+*+*+*+*+*+*+*+
            BAR SHORTENED BY       1.000 PERCENT
 GRADIENT CRITERION IN FLEPO =    10.000


          FOR POINT  272 SECOND STRUCTURE
 DISTANCE A - B      0.110394
 HEAT              115.167609
 GRADIENT NORM      28.652748
 DIRECTION COSINE    0.898666
 geo-ok
 Locate and refine the transition state for the HNC - HCN isomerization
 (Geometry data for reactant and products are in other files.)
  H(HETATM    1  H   CYN A   1)   0.00000000 +0    0.0000000 +0    0.0000000 +0
  C(HETATM    2  C   CYN A   1)   1.37758525 +1    0.0000000 +0    0.0000000 +0     1     0     0
  N(HETATM    3  N   CYN A   1)   1.20595396 +1   67.5951957 +1    0.0000000 +0     2     1     0
 
 *+*+*+*+*+*+*+*+*+*+*+*+*+*+*+*+*+*+*+*+*+*+*+*+*+*+*+*+*+*+*+*+*+*+*+*+*+*+*+*+
            BAR SHORTENED BY       1.000 PERCENT
 GRADIENT CRITERION IN FLEPO =    10.000


          FOR POINT  273 SECOND STRUCTURE
 DISTANCE A - B      0.109290
 HEAT              115.197092
 GRADIENT NORM      28.280595
 DIRECTION COSINE    0.999922
 geo-ok
 Locate and refine the transition state for the HNC - HCN isomerization
 (Geometry data for reactant and products are in other files.)
  H(HETATM    1  H   CYN A   1)   0.00000000 +0    0.0000000 +0    0.0000000 +0
  C(HETATM    2  C   CYN A   1)   1.37678298 +1    0.0000000 +0    0.0000000 +0     1     0     0
  N(HETATM    3  N   CYN A   1)   1.20580944 +1   67.6798924 +1    0.0000000 +0     2     1     0
 
 TIME=     0.03
  REACTANTS AND PRODUCTS SWAPPED AROUND
 *+*+*+*+*+*+*+*+*+*+*+*+*+*+*+*+*+*+*+*+*+*+*+*+*+*+*+*+*+*+*+*+*+*+*+*+*+*+*+*+
            BAR SHORTENED BY       1.000 PERCENT
 GRADIENT CRITERION IN FLEPO =    10.000


          FOR POINT  274 FIRST  STRUCTURE
 DISTANCE A - B      0.108197
 HEAT              115.200006
 GRADIENT NORM      28.845422
 DIRECTION COSINE    0.887057
 geo-ok
 Locate and refine the transition state for the HNC - HCN isomerization
 (Geometry data for reactant and products are in other files.)
  H(HETATM    1  H   CYN A   1)   0.00000000 +0    0.0000000 +0    0.0000000 +0
  C(HETATM    2  C   CYN A   1)   1.29976409 +1    0.0000000 +0    0.0000000 +0     1     0     0
  N(HETATM    3  N   CYN A   1)   1.19756654 +1   76.1911777 +1    0.0000000 +0     2     1     0
 
 TIME=     0.00
  REACTANTS AND PRODUCTS SWAPPED AROUND
 *+*+*+*+*+*+*+*+*+*+*+*+*+*+*+*+*+*+*+*+*+*+*+*+*+*+*+*+*+*+*+*+*+*+*+*+*+*+*+*+
            BAR SHORTENED BY       1.000 PERCENT
 GRADIENT CRITERION IN FLEPO =    10.000


          FOR POINT  275 SECOND STRUCTURE
 DISTANCE A - B      0.107115
 HEAT              115.225482
 GRADIENT NORM      27.916090
 DIRECTION COSINE    0.881371
 geo-ok
 Locate and refine the transition state for the HNC - HCN isomerization
 (Geometry data for reactant and products are in other files.)
  H(HETATM    1  H   CYN A   1)   0.00000000 +0    0.0000000 +0    0.0000000 +0
  C(HETATM    2  C   CYN A   1)   1.37599698 +1    0.0000000 +0    0.0000000 +0     1     0     0
  N(HETATM    3  N   CYN A   1)   1.20566898 +1   67.7629478 +1    0.0000000 +0     2     1     0
 
 TIME=     0.03
  REACTANTS AND PRODUCTS SWAPPED AROUND
 *+*+*+*+*+*+*+*+*+*+*+*+*+*+*+*+*+*+*+*+*+*+*+*+*+*+*+*+*+*+*+*+*+*+*+*+*+*+*+*+
            BAR SHORTENED BY       1.000 PERCENT
 GRADIENT CRITERION IN FLEPO =    10.000


          FOR POINT  276 FIRST  STRUCTURE
 DISTANCE A - B      0.106044
 HEAT              115.230349
 GRADIENT NORM      28.303540
 DIRECTION COSINE    0.874828
 geo-ok
 Locate and refine the transition state for the HNC - HCN isomerization
 (Geometry data for reactant and products are in other files.)
  H(HETATM    1  H   CYN A   1)   0.00000000 +0    0.0000000 +0    0.0000000 +0
  C(HETATM    2  C   CYN A   1)   1.30051001 +1    0.0000000 +0    0.0000000 +0     1     0     0
  N(HETATM    3  N   CYN A   1)   1.19759030 +1   76.1049861 +1    0.0000000 +0     2     1     0
 
 TIME=     0.02
  REACTANTS AND PRODUCTS SWAPPED AROUND
 *+*+*+*+*+*+*+*+*+*+*+*+*+*+*+*+*+*+*+*+*+*+*+*+*+*+*+*+*+*+*+*+*+*+*+*+*+*+*+*+
            BAR SHORTENED BY       1.000 PERCENT
 GRADIENT CRITERION IN FLEPO =    10.000


          FOR POINT  277 SECOND STRUCTURE
 DISTANCE A - B      0.104983
 HEAT              115.252818
 GRADIENT NORM      27.559114
 DIRECTION COSINE    0.868885
 geo-ok
 Locate and refine the transition state for the HNC - HCN isomerization
 (Geometry data for reactant and products are in other files.)
  H(HETATM    1  H   CYN A   1)   0.00000000 +0    0.0000000 +0    0.0000000 +0
  C(HETATM    2  C   CYN A   1)   1.37522691 +1    0.0000000 +0    0.0000000 +0     1     0     0
  N(HETATM    3  N   CYN A   1)   1.20553243 +1   67.8443928 +1    0.0000000 +0     2     1     0
 
 TIME=     0.00
  REACTANTS AND PRODUCTS SWAPPED AROUND
 *+*+*+*+*+*+*+*+*+*+*+*+*+*+*+*+*+*+*+*+*+*+*+*+*+*+*+*+*+*+*+*+*+*+*+*+*+*+*+*+
            BAR SHORTENED BY       1.000 PERCENT
 GRADIENT CRITERION IN FLEPO =    10.000


          FOR POINT  278 FIRST  STRUCTURE
 DISTANCE A - B      0.103933
 HEAT              115.259480
 GRADIENT NORM      27.776922
 DIRECTION COSINE    0.861986
 geo-ok
 Locate and refine the transition state for the HNC - HCN isomerization
 (Geometry data for reactant and products are in other files.)
  H(HETATM    1  H   CYN A   1)   0.00000000 +0    0.0000000 +0    0.0000000 +0
  C(HETATM    2  C   CYN A   1)   1.30124142 +1    0.0000000 +0    0.0000000 +0     1     0     0
  N(HETATM    3  N   CYN A   1)   1.19761471 +1   76.0205451 +1    0.0000000 +0     2     1     0
 
 TIME=     0.02
  REACTANTS AND PRODUCTS SWAPPED AROUND
 *+*+*+*+*+*+*+*+*+*+*+*+*+*+*+*+*+*+*+*+*+*+*+*+*+*+*+*+*+*+*+*+*+*+*+*+*+*+*+*+
            BAR SHORTENED BY       1.000 PERCENT
 GRADIENT CRITERION IN FLEPO =    10.000


          FOR POINT  279 SECOND STRUCTURE
 DISTANCE A - B      0.102894
 HEAT              115.267344
 GRADIENT NORM      24.822539
 DIRECTION COSINE    0.976346
 geo-ok
 Locate and refine the transition state for the HNC - HCN isomerization
 (Geometry data for reactant and products are in other files.)
  H(HETATM    1  H   CYN A   1)   0.00000000 +0    0.0000000 +0    0.0000000 +0
  C(HETATM    2  C   CYN A   1)   1.37458461 +1    0.0000000 +0    0.0000000 +0     1     0     0
  N(HETATM    3  N   CYN A   1)   1.20841717 +1   67.8777762 +1    0.0000000 +0     2     1     0
 
 TIME=     0.00
  REACTANTS AND PRODUCTS SWAPPED AROUND
 *+*+*+*+*+*+*+*+*+*+*+*+*+*+*+*+*+*+*+*+*+*+*+*+*+*+*+*+*+*+*+*+*+*+*+*+*+*+*+*+
            BAR SHORTENED BY       1.000 PERCENT
 GRADIENT CRITERION IN FLEPO =    10.000


          FOR POINT  280 FIRST  STRUCTURE
 DISTANCE A - B      0.101865
 HEAT              115.287348
 GRADIENT NORM      27.243598
 DIRECTION COSINE    0.974527
 geo-ok
 Locate and refine the transition state for the HNC - HCN isomerization
 (Geometry data for reactant and products are in other files.)
  H(HETATM    1  H   CYN A   1)   0.00000000 +0    0.0000000 +0    0.0000000 +0
  C(HETATM    2  C   CYN A   1)   1.30195859 +1    0.0000000 +0    0.0000000 +0     1     0     0
  N(HETATM    3  N   CYN A   1)   1.19767081 +1   75.9371646 +1    0.0000000 +0     2     1     0
 
 TIME=     0.00
  REACTANTS AND PRODUCTS SWAPPED AROUND
 *+*+*+*+*+*+*+*+*+*+*+*+*+*+*+*+*+*+*+*+*+*+*+*+*+*+*+*+*+*+*+*+*+*+*+*+*+*+*+*+
            BAR SHORTENED BY       1.000 PERCENT
 GRADIENT CRITERION IN FLEPO =    10.000


          FOR POINT  281 SECOND STRUCTURE
 DISTANCE A - B      0.100846
 HEAT              115.292332
 GRADIENT NORM      24.398783
 DIRECTION COSINE    0.972484
 geo-ok
 Locate and refine the transition state for the HNC - HCN isomerization
 (Geometry data for reactant and products are in other files.)
  H(HETATM    1  H   CYN A   1)   0.00000000 +0    0.0000000 +0    0.0000000 +0
  C(HETATM    2  C   CYN A   1)   1.37384324 +1    0.0000000 +0    0.0000000 +0     1     0     0
  N(HETATM    3  N   CYN A   1)   1.20825927 +1   67.9563713 +1    0.0000000 +0     2     1     0
 
 TIME=     0.03
  REACTANTS AND PRODUCTS SWAPPED AROUND
 *+*+*+*+*+*+*+*+*+*+*+*+*+*+*+*+*+*+*+*+*+*+*+*+*+*+*+*+*+*+*+*+*+*+*+*+*+*+*+*+
            BAR SHORTENED BY       1.000 PERCENT
 AT END OF STEPWISE ASCENT OF REACTION BARRIER

 -------------------------------------------------------------------------------
 geo-ok
 Locate and refine the transition state for the HNC - HCN isomerization
 (Geometry data for reactant and products are in other files.)


     TRANSITION STATE LOCATED USING THE "SADDLE" TECHNIQUE    
     SCF FIELD WAS ACHIEVED                                   


                              PM7 CALCULATION
                                                       MOPAC2016 (Version: 21.153W)
                                                       Wed Jun  2 17:06:34 2021
                                                       No. of days remaining = 365




          FINAL H.O.F PLUS STRESS =        115.29233 KCAL/MOL =     482.38312 KJ/MOL
          FINAL STRESS            =          0.00000 KCAL/MOL =       0.00000 KJ/MOL
          FINAL HEAT OF FORMATION =        115.29233 KCAL/MOL =     482.38312 KJ/MOL
          TOTAL DISTORTION        =          0.00174 Angstroms
          AVERAGE DISTORTION      =          0.00058 Angstroms per atom (all atoms)
          RMS DISTORTION          =          0.00058 Angstroms per atom (all atoms)


          TOTAL ENERGY            =       -318.00985 EV
          ELECTRONIC ENERGY       =       -577.06714 EV  POINT GROUP:     Cs  
          CORE-CORE REPULSION     =        259.05728 EV
          COSMO AREA              =         62.77 SQUARE ANGSTROMS
          COSMO VOLUME            =         45.36 CUBIC ANGSTROMS

          GRADIENT NORM           =          1.83269 = 1.05810 PER ATOM
          IONIZATION POTENTIAL    =         11.454678 EV
          HOMO LUMO ENERGIES (EV) =        -11.455  0.003
          NO. OF FILLED LEVELS    =          5
          MOLECULAR WEIGHT        =         27.0256

          MOLECULAR DIMENSIONS (Angstroms)

            Atom       Atom       Distance
            N     3    H     1     1.45050
            N     3    C     2     1.06063
            H     1    C     2     0.00000


          SCF CALCULATIONS        =       1182
 
          WALL-CLOCK TIME         =          3.008 SECONDS
          COMPUTATION TIME        =          1.687 SECONDS




   ATOM                 CHEMICAL                   X               Y               Z
  NUMBER                 SYMBOL               (ANGSTROMS)     (ANGSTROMS)     (ANGSTROMS)
 
     1       H(HETATM    1  H   CYN A   1)    0.10907005  *   0.08140825  *   0.13790679  *
     2       C(HETATM    2  C   CYN A   1)    1.24702612  *   0.80617480  *   0.39324854  *
     3       N(HETATM    3  N   CYN A   1)    1.45360334  *  -0.10410185  *  -0.37371786  *

                             CARTESIAN COORDINATES

   1    H        0.109070053     0.081408254     0.137906785
   2    C        1.247026122     0.806174797     0.393248536
   3    N        1.453603339    -0.104101849    -0.373717862


           Empirical Formula: C H N  =     3 atoms



      MOLECULAR POINT GROUP   :   Cs  


                  EIGENVALUES  
 -35.83743 -17.80308 -15.70290 -13.25185 -11.45468   0.00340   1.23129   1.58401
   5.32380


              NET ATOMIC CHARGES AND DIPOLE CONTRIBUTIONS

  ATOM NO.   TYPE          CHARGE      No. of ELECS.   s-Pop       p-Pop       
    1          H           0.353942        0.6461     0.64606
    2          C           0.097432        3.9026     1.62393     2.27864
    3          N          -0.451375        5.4514     1.84161     3.60976
 DIPOLE           X         Y         Z       TOTAL
 POINT-CHG.    -2.382     0.741     1.229     2.781
 HYBRID        -0.221    -0.846    -0.600     1.061
 SUM           -2.603    -0.105     0.629     2.680


          ATOMIC ORBITAL ELECTRON POPULATIONS

                  Atom                 s        px        py        pz   
   H(HETATM    1  H   CYN A   1)   0.64606
   C(HETATM    2  C   CYN A   1)   1.62393   0.57314   0.88436   0.82113
   N(HETATM    3  N   CYN A   1)   1.84161   0.91624   1.34743   1.34609

 **********************
 *                    *
 * JOB ENDED NORMALLY *
 *                    *
 **********************



 TOTAL JOB TIME:             3.03 SECONDS

 == MOPAC DONE ==
