 *******************************************************************************
 ** Site#: 29624 E-mail support:    MrMOPAC@ATT.net    Version 19.193W 64BITS **
 *******************************************************************************
 ** Cite this program as: MOPAC2016, Version: 19.193W, James J. P. Stewart,   **
 ** Stewart Computational Chemistry, web-site: HTTP://OpenMOPAC.net.          **
 *******************************************************************************
 **                                                                           **
 **                                MOPAC2016                                  **
 **                                                                           **
 *******************************************************************************

                              PM7 CALCULATION RESULTS

 *******************************************************************************
 *  CALCULATION DONE:                                Fri Jul 12 12:56:52 2019  *
 *  UHF        - UNRESTRICTED HARTREE-FOCK CALCULATION
 *  RESIDUES   - DETERMINE THE SEQUENCE OF RESIDUES
 *
 *
 *
 *                 CHARGE ON SYSTEM = -1
 *
 *
 *
 *  STEP       - STEP-SIZE IN PATH =   0.100
 *  POINT      - NUMBER OF POINTS IN PATH = 30
 *  T=         - A TIME OF 172800.0 SECONDS REQUESTED
 *  DUMP=N     - RESTART FILE WRITTEN EVERY  7200.000 SECONDS
 *  HTML       - WRITE HTML SCRIPT TO GENERATE ANIMATION USING JSMOL
 *             - TO DISPLAY IN PDB FORMAT, ADD "PDBOUT"
 *******************************************************************************
charge=-1 html step=0.1 points=30 UHF
 Stretch C-C bond in 30 steps of 0.1 Angstroms each

  ATOM    CHEMICAL      BOND LENGTH      BOND ANGLE     TWIST ANGLE 
 NUMBER    SYMBOL       (ANGSTROMS)      (DEGREES)       (DEGREES) 
   (I)                     NA:I           NB:NA:I       NC:NB:NA:I       NA    NB    NC 
     1       N          1.38547279  *    5.2571752  *    0.8182052  *     0     0     0
     2       C          2.31632425  *    6.1626390  *    1.5300254  *     0     0     0
     3       C          1.85646441  *    4.9770792  *   -0.5427597  *     0     0     0
     4       H          2.52679073  *    5.7361596  *    2.5335918  *     0     0     0
     5       H          1.85379011  *    7.1593291  *    1.6948372  *     0     0     0
     6       C          3.57767244  *    6.2517387  *    0.6520719  *     0     0     0
     7       C          3.11824479  *    5.8438570  *   -0.7562237  *     0     0     0
     8       H          1.07236936  *    5.2277907  *   -1.3096597  *     0     0     0
     9       C          2.23141628  *    3.5016007  *   -0.7515735  *     0     0     0
    10       H          4.36250156  *    5.5687268  *    1.0220267  *     0     0     0
    11       H          4.01210373  *    7.2619179  *    0.6658790  *     0     0     0
    12       H          3.90314347  *    5.3007128  *   -1.3092821  *     0     0     0
    13       H          2.87717320  *    6.7300732  *   -1.3678018  *     0     0     0
    14       O          2.27857184  *    3.0565293  *   -1.8835508  *     0     0     0
    15       N          2.50642308  *    2.7204255  *    0.3369543  *     0     0     0
    16       H          2.51228538  *    3.0807638  *    1.2860726  *     0     0     0
    17       C          2.89278768  *    1.3213317  *    0.1303704  *     0     0     0
    18       H          2.14149272  *    0.8527633  *   -0.5771422  *     0     0     0
    19       C          4.30096755  *    1.2085448  *   -0.4923815  *     0     0     0
    20       C          2.83328288  *    0.6254054  *    1.5067947  *     0     0     0
    21       H          4.33393705  *    1.8328508  *   -1.4164652  *     0     0     0
    22       H          5.05532303  *    1.6471914  *    0.1856972  *     0     0     0
    23       C          4.61201226  *   -0.2126114  *   -0.8369412  *     0     0     0
    24       O          2.83165163  *    1.2671234  *    2.5404907  *     0     0     0
    25       C          5.77351482  *   -0.8132045  *   -0.3496132  *     0     0     0
    26       C          3.71645284  *   -0.9489900  *   -1.6241117  *     0     0     0
    27       H          6.47957128  *   -0.2357791  *    0.2421110  *     0     0     0
    28       C          6.02922794  *   -2.1591490  *   -0.5958527  *     0     0     0
    29       C          3.92803989  *   -2.3012147  *   -1.8416914  *     0     0     0
    30       H          2.83857203  *   -0.4644810  *   -2.0656850  *     0     0     0
    31       H          6.92155312  *   -2.6468034  *   -0.2211945  *     0     0     0
    32       C          5.08458872  *   -2.8913937  *   -1.3170392  *     0     0     0
    33       H          3.20366554  *   -2.9031054  *   -2.3911895  *     0     0     0
    34       O          5.34968172  *   -4.2088620  *   -1.5251020  *     0     0     0
    35       H          4.50548714  *   -4.7288459  *   -1.4342390  *     0     0     0
    36       N          2.69255971  *   -0.7377798  *    1.4785438  *     0     0     0
    37       H          2.83668991  *   -1.2768025  *    0.6264386  *     0     0     0
    38       C          2.33836406  *   -1.4947344  *    2.6860793  *     0     0     0
    39       H          3.18705009  *   -1.4289437  *    3.4223191  *     0     0     0
    40       C          1.04675082  *   -0.9590462  *    3.3597955  *     0     0     0
    41       C          2.11293096  *   -2.9867529  *    2.3457020  *     0     0     0
    42       H          0.88593380  *   -1.5016553  *    4.3175327  *     0     0     0
    43       H          1.19403249  *    0.1069645  *    3.6488621  *     0     0     0
    44       C         -0.13235693  *   -1.1032205  *    2.4806314  *     0     0     0
    45       O          2.50741816  *   -3.8567532  *    3.0941589  *     0     0     0
    46       N         -1.27103706  *   -1.7943891  *    2.8468783  *     0     0     0
    47       C         -0.25528631  *   -0.7108586  *    1.1358267  *     0     0     0
    48       C         -2.04179051  *   -1.8549283  *    1.7284015  *     0     0     0
    49       N         -1.44959017  *   -1.2236281  *    0.6481167  *     0     0     0
    50       H          0.40213296  *   -0.1256638  *    0.5285108  *     0     0     0
    51       H         -2.99480130  *   -2.3410151  *    1.6848429  *     0     0     0
    52       N          1.46573769  *   -3.2830614  *    1.1633119  *     0     0     0
    53       H          0.98462396  *   -2.5531624  *    0.6345483  *     0     0     0
    54       C          0.99325891  *   -4.6382803  *    0.9000857  *     0     0     0
    55       H          1.04537784  *   -5.2513363  *    1.8532138  *     0     0     0
    56       C         -0.44991292  *   -4.6328967  *    0.3732991  *     0     0     0
    57       C          1.52300000  +  109.4000000  *  121.5000000  *    54    52    56
    58       H         -0.82228327  *   -5.6711981  *    0.3045331  *     0     0     0
    59       H         -1.10488990  *   -4.0928833  *    1.0810580  *     0     0     0
    60       S         -0.56254479  *   -3.9098456  *   -1.3177736  *     0     0     0
    61       O          2.88822482  *   -4.8921566  *   -0.6777743  *     0     0     0
    62       O          1.52973217  *   -6.6028285  *   -0.2783254  *     0     0     0
    63       C          0.04768247  *    5.2831112  *    1.1913439  *     0     0     0
    64       C         -0.93378536  *    4.2959861  *    0.5534039  *     0     0     0
    65       O         -0.28760644  *    5.9766469  *    2.1301239  *     0     0     0
    66       N         -1.15842293  *    4.5992137  *   -0.8536910  *     0     0     0
    67       H         -1.89298418  *    4.3400608  *    1.1325391  *     0     0     0
    68       H         -0.53349054  *    3.2611499  *    0.6984860  *     0     0     0
    69       H         -1.51797917  *    5.5278722  *   -1.0516229  *     0     0     0
    70       C         -1.38357963  *    3.6246131  *   -1.8297446  *     0     0     0
    71       C         -1.09259004  *    2.1492626  *   -1.5158450  *     0     0     0
    72       O         -1.69808870  *    4.0129171  *   -2.9335678  *     0     0     0
    73       N         -1.96803013  *    1.6725739  *   -0.4349629  *     0     0     0
    74       H         -0.01954580  *    2.0695342  *   -1.1662215  *     0     0     0
    75       C         -1.28565722  *    1.3009485  *   -2.7813518  *     0     0     0
    76       H         -1.64061696  *    0.8122887  *    0.0146090  *     0     0     0
    77       H         -2.34580203  *    1.2403412  *   -3.0684152  *     0     0     0
    78       H         -0.77276520  *    1.7886396  *   -3.6373916  *     0     0     0
    79       S         -0.52845083  *   -0.3714553  *   -2.6523350  *     0     0     0
    80       C         -3.33199308  *    1.8846153  *   -0.5160581  *     0     0     0
    81       C         -4.19849602  *    0.7462946  *    0.0698292  *     0     0     0
    82       O         -3.82582494  *    2.8538261  *   -1.0470468  *     0     0     0
    83       N         -5.31202046  *    1.3220988  *    0.7986256  *     0     0     0
    84       H         -3.58782039  *    0.0814851  *    0.7417776  *     0     0     0
    85       C         -4.67175644  *   -0.0492422  *   -1.1814984  *     0     0     0
    86       H         -5.74815214  *    2.1416366  *    0.3819358  *     0     0     0
    87       H         -5.68740816  *    0.2962929  *   -1.4756319  *     0     0     0
    88       H         -4.03485633  *    0.2028806  *   -2.0673019  *     0     0     0
    89       C         -4.65897996  *   -1.5074836  *   -0.9646174  *     0     0     0
    90       N         -3.53973265  *   -2.3034178  *   -1.2229582  *     0     0     0
    91       C         -5.71189676  *   -2.3281791  *   -0.5595737  *     0     0     0
    92       C         -3.89988456  *   -3.5850487  *   -0.9962215  *     0     0     0
    93       N         -5.22490564  *   -3.6362978  *   -0.5828258  *     0     0     0
    94       H         -6.71234055  *   -2.0815650  *   -0.2761062  *     0     0     0
    95       H         -3.26973997  *   -4.4625896  *   -1.1256097  *     0     0     0
    96       C         -5.81069215  *    0.8266225  *    1.9918460  *     0     0     0
    97       C         -5.14574557  *   -0.3515913  *    2.6356950  *     0     0     0
    98       H         -5.15205771  *   -1.2393885  *    1.9911343  *     0     0     0
    99       H         -4.09624079  *   -0.1434494  *    2.9102720  *     0     0     0
   100       H         -5.66384934  *   -0.6169318  *    3.5706346  *     0     0     0
   101       O         -6.78391510  *    1.3809386  *    2.4685702  *     0     0     0
   102      Zn         -1.52104553  *   -1.7998217  *   -1.2646249  *     0     0     0
   103       H          2.05885331  *   -7.0908098  *   -0.9487683  *     0     0     0
   104       H         -5.74510933  *   -4.4497173  *   -0.3494454  *     0     0     0
 


          CARTESIAN COORDINATES 

    NO.       ATOM           X           Y           Z

     1         N          1.3855      5.2572      0.8182
     2         C          2.3163      6.1626      1.5300
     3         C          1.8565      4.9771     -0.5428
     4         H          2.5268      5.7362      2.5336
     5         H          1.8538      7.1593      1.6948
     6         C          3.5777      6.2517      0.6521
     7         C          3.1182      5.8439     -0.7562
     8         H          1.0724      5.2278     -1.3097
     9         C          2.2314      3.5016     -0.7516
    10         H          4.3625      5.5687      1.0220
    11         H          4.0121      7.2619      0.6659
    12         H          3.9031      5.3007     -1.3093
    13         H          2.8772      6.7301     -1.3678
    14         O          2.2786      3.0565     -1.8836
    15         N          2.5064      2.7204      0.3370
    16         H          2.5123      3.0808      1.2861
    17         C          2.8928      1.3213      0.1304
    18         H          2.1415      0.8528     -0.5771
    19         C          4.3010      1.2085     -0.4924
    20         C          2.8333      0.6254      1.5068
    21         H          4.3339      1.8329     -1.4165
    22         H          5.0553      1.6472      0.1857
    23         C          4.6120     -0.2126     -0.8369
    24         O          2.8317      1.2671      2.5405
    25         C          5.7735     -0.8132     -0.3496
    26         C          3.7165     -0.9490     -1.6241
    27         H          6.4796     -0.2358      0.2421
    28         C          6.0292     -2.1591     -0.5959
    29         C          3.9280     -2.3012     -1.8417
    30         H          2.8386     -0.4645     -2.0657
    31         H          6.9216     -2.6468     -0.2212
    32         C          5.0846     -2.8914     -1.3170
    33         H          3.2037     -2.9031     -2.3912
    34         O          5.3497     -4.2089     -1.5251
    35         H          4.5055     -4.7288     -1.4342
    36         N          2.6926     -0.7378      1.4785
    37         H          2.8367     -1.2768      0.6264
    38         C          2.3384     -1.4947      2.6861
    39         H          3.1871     -1.4289      3.4223
    40         C          1.0468     -0.9590      3.3598
    41         C          2.1129     -2.9868      2.3457
    42         H          0.8859     -1.5017      4.3175
    43         H          1.1940      0.1070      3.6489
    44         C         -0.1324     -1.1032      2.4806
    45         O          2.5074     -3.8568      3.0942
    46         N         -1.2710     -1.7944      2.8469
    47         C         -0.2553     -0.7109      1.1358
    48         C         -2.0418     -1.8549      1.7284
    49         N         -1.4496     -1.2236      0.6481
    50         H          0.4021     -0.1257      0.5285
    51         H         -2.9948     -2.3410      1.6848
    52         N          1.4657     -3.2831      1.1633
    53         H          0.9846     -2.5532      0.6345
    54         C          0.9933     -4.6383      0.9001
    55         H          1.0454     -5.2513      1.8532
    56         C         -0.4499     -4.6329      0.3733
    57         C          1.9109     -5.3055     -0.1159
    58         H         -0.8223     -5.6712      0.3045
    59         H         -1.1049     -4.0929      1.0811
    60         S         -0.5625     -3.9098     -1.3178
    61         O          2.8882     -4.8922     -0.6778
    62         O          1.5297     -6.6028     -0.2783
    63         C          0.0477      5.2831      1.1913
    64         C         -0.9338      4.2960      0.5534
    65         O         -0.2876      5.9766      2.1301
    66         N         -1.1584      4.5992     -0.8537
    67         H         -1.8930      4.3401      1.1325
    68         H         -0.5335      3.2611      0.6985
    69         H         -1.5180      5.5279     -1.0516
    70         C         -1.3836      3.6246     -1.8297
    71         C         -1.0926      2.1493     -1.5158
    72         O         -1.6981      4.0129     -2.9336
    73         N         -1.9680      1.6726     -0.4350
    74         H         -0.0195      2.0695     -1.1662
    75         C         -1.2857      1.3009     -2.7814
    76         H         -1.6406      0.8123      0.0146
    77         H         -2.3458      1.2403     -3.0684
    78         H         -0.7728      1.7886     -3.6374
    79         S         -0.5285     -0.3715     -2.6523
    80         C         -3.3320      1.8846     -0.5161
    81         C         -4.1985      0.7463      0.0698
    82         O         -3.8258      2.8538     -1.0470
    83         N         -5.3120      1.3221      0.7986
    84         H         -3.5878      0.0815      0.7418
    85         C         -4.6718     -0.0492     -1.1815
    86         H         -5.7482      2.1416      0.3819
    87         H         -5.6874      0.2963     -1.4756
    88         H         -4.0349      0.2029     -2.0673
    89         C         -4.6590     -1.5075     -0.9646
    90         N         -3.5397     -2.3034     -1.2230
    91         C         -5.7119     -2.3282     -0.5596
    92         C         -3.8999     -3.5850     -0.9962
    93         N         -5.2249     -3.6363     -0.5828
    94         H         -6.7123     -2.0816     -0.2761
    95         H         -3.2697     -4.4626     -1.1256
    96         C         -5.8107      0.8266      1.9918
    97         C         -5.1457     -0.3516      2.6357
    98         H         -5.1521     -1.2394      1.9911
    99         H         -4.0962     -0.1434      2.9103
   100         H         -5.6638     -0.6169      3.5706
   101         O         -6.7839      1.3809      2.4686
   102        Zn         -1.5210     -1.7998     -1.2646
   103         H          2.0589     -7.0908     -0.9488
   104         H         -5.7451     -4.4497     -0.3494

 General Reference for PM7:
 "Optimization of Parameters for Semiempirical Methods VI: More Modifications to the 
 NDDO Approximations and Re-optimization of Parameters", J. J. P. Stewart, J. Mol. Mod., 1:32, 19 (2013)
 http://www.springerlink.com/openurl.asp?genre=article&id=doi:10.1007/s00894-012-1667-x

           Empirical Formula: C36 H44 N11 O10 S2 Zn  =   104 atoms



      MOLECULAR POINT GROUP   :   C1  


          UHF CALCULATION, NO. OF ALPHA ELECTRONS =  159
                           NO. OF BETA  ELECTRONS =  159

                RESIDUE SEQUENCE IN PROTEIN Chain: A

             1     2     3     4     5     6     7     8     9    10
        0                           GLY   

                RESIDUE SEQUENCE IN PROTEIN FRAGMENT: 2 Chain: A

             1     2     3     4     5     6     7     8     9    10
        0   VAL   TYR   HIS   CYS   

                RESIDUE SEQUENCE IN PROTEIN FRAGMENT: 3 Chain: B

             1     2     3     4     5     6     7     8     9    10
        0                           GLY   

                RESIDUE SEQUENCE IN PROTEIN FRAGMENT: 4 Chain: B

             1     2     3     4     5     6     7     8     9    10
        0                                       CYS   

                RESIDUE SEQUENCE IN PROTEIN FRAGMENT: 5 Chain: C

             1     2     3     4     5     6     7     8     9    10
        0                                       CYS   

                RESIDUE SEQUENCE IN PROTEIN FRAGMENT: 6 Chain: C

             1     2     3     4     5     6     7     8     9    10
        0                                                   HIS   

                RESIDUE SEQUENCE IN PROTEIN FRAGMENT: 7 Chain: C

             1     2     3     4     5     6     7     8     9    10
        0                                       CYS   

                RESIDUE SEQUENCE IN PROTEIN Chain: A

        0      G

                RESIDUE SEQUENCE IN PROTEIN FRAGMENT: 2 Chain: A

        0  VYHC

                RESIDUE SEQUENCE IN PROTEIN FRAGMENT: 3 Chain: B

        0      G

                RESIDUE SEQUENCE IN PROTEIN FRAGMENT: 4 Chain: B

        0        C

                RESIDUE SEQUENCE IN PROTEIN FRAGMENT: 5 Chain: C

        0        C

                RESIDUE SEQUENCE IN PROTEIN FRAGMENT: 6 Chain: C

        0          H

                RESIDUE SEQUENCE IN PROTEIN FRAGMENT: 7 Chain: C

        0        C
  ABOUT TO ENTER EF FROM PATHK

          Geometry optimization using EF

          DIAGONAL MATRIX USED AS START HESSIAN

 CYCLE:     1 TIME:   0.922 TIME LEFT:  2.00D  GRAD.:     1.439 HEAT: -475.1496
 CYCLE:     2 TIME:   1.203 TIME LEFT:  2.00D  GRAD.:    13.438 HEAT: -475.1441
 CYCLE:     3 TIME:   0.277 TIME LEFT:  2.00D  GRAD.:    10.187 HEAT: -475.1432
 CYCLE:     4 TIME:   1.078 TIME LEFT:  2.00D  GRAD.:     2.966 HEAT: -475.1496
 CYCLE:     5 TIME:   0.328 TIME LEFT:  2.00D  GRAD.:     5.211 HEAT: -475.1468
 CYCLE:     6 TIME:   0.359 TIME LEFT:  2.00D  GRAD.:     6.828 HEAT: -475.1460
 CYCLE:     7 TIME:   0.996 TIME LEFT:  2.00D  GRAD.:     3.583 HEAT: -475.1502
 CYCLE:     8 TIME:   0.359 TIME LEFT:  2.00D  GRAD.:     6.395 HEAT: -475.1466
 CYCLE:     9 TIME:   0.656 TIME LEFT:  2.00D  GRAD.:     4.590 HEAT: -475.1494
 CYCLE:    10 TIME:   0.359 TIME LEFT:  2.00D  GRAD.:     4.777 HEAT: -475.1496
 CYCLE:    11 TIME:   0.465 TIME LEFT:  2.00D  GRAD.:     8.866 HEAT: -475.1412
 CYCLE:    12 TIME:   0.703 TIME LEFT:  2.00D  GRAD.:     4.602 HEAT: -475.1498
 CYCLE:    13 TIME:   0.344 TIME LEFT:  2.00D  GRAD.:     8.178 HEAT: -475.1451
 CYCLE:    14 TIME:   0.641 TIME LEFT:  2.00D  GRAD.:     3.212 HEAT: -475.1506
 CYCLE:    15 TIME:   0.391 TIME LEFT:  2.00D  GRAD.:    11.885 HEAT: -475.1431
 CYCLE:    16 TIME:   0.387 TIME LEFT:  2.00D  GRAD.:     3.739 HEAT: -475.1501
 CYCLE:    17 TIME:   0.750 TIME LEFT:  2.00D  GRAD.:     6.670 HEAT: -475.1432
 CYCLE:    18 TIME:   0.703 TIME LEFT:  2.00D  GRAD.:     2.457 HEAT: -475.1505
 CYCLE:    19 TIME:   0.359 TIME LEFT:  2.00D  GRAD.:     5.309 HEAT: -475.1473
 CYCLE:    20 TIME:   0.359 TIME LEFT:  2.00D  GRAD.:     5.266 HEAT: -475.1459
 CYCLE:    21 TIME:   0.684 TIME LEFT:  2.00D  GRAD.:     3.625 HEAT: -475.1493
 CYCLE:    22 TIME:   0.359 TIME LEFT:  2.00D  GRAD.:     6.824 HEAT: -475.1451
 CYCLE:    23 TIME:   0.375 TIME LEFT:  2.00D  GRAD.:     9.298 HEAT: -475.1379
 CYCLE:    24 TIME:   0.688 TIME LEFT:  2.00D  GRAD.:     6.903 HEAT: -475.1434
 CYCLE:    25 TIME:   0.391 TIME LEFT:  2.00D  GRAD.:     6.145 HEAT: -475.1450
 CYCLE:    26 TIME:   0.621 TIME LEFT:  2.00D  GRAD.:     2.413 HEAT: -475.1509
 CYCLE:    27 TIME:   0.281 TIME LEFT:  2.00D  GRAD.:     6.149 HEAT: -475.1458
 CYCLE:    28 TIME:   0.266 TIME LEFT:  2.00D  GRAD.:     2.806 HEAT: -475.1506
 CYCLE:    29 TIME:   0.672 TIME LEFT:  2.00D  GRAD.:     5.316 HEAT: -475.1470
 CYCLE:    30 TIME:   0.266 TIME LEFT:  2.00D  GRAD.:     3.104 HEAT: -475.1497
 CYCLE:    31 TIME:   0.637 TIME LEFT:  2.00D  GRAD.:     3.350 HEAT: -475.1496
 CYCLE:    32 TIME:   0.359 TIME LEFT:  2.00D  GRAD.:     3.247 HEAT: -475.1494
 CYCLE:    33 TIME:   0.375 TIME LEFT:  2.00D  GRAD.:     5.063 HEAT: -475.1464
 CYCLE:    34 TIME:   0.312 TIME LEFT:  2.00D  GRAD.:     5.580 HEAT: -475.1456
 CYCLE:    35 TIME:   0.688 TIME LEFT:  2.00D  GRAD.:     3.162 HEAT: -475.1497
 CYCLE:    36 TIME:   0.328 TIME LEFT:  2.00D  GRAD.:     4.692 HEAT: -475.1476
 CYCLE:    37 TIME:   0.324 TIME LEFT:  2.00D  GRAD.:     4.480 HEAT: -475.1474
 CYCLE:    38 TIME:   0.359 TIME LEFT:  2.00D  GRAD.:     6.133 HEAT: -475.1427
 CYCLE:    39 TIME:   0.312 TIME LEFT:  2.00D  GRAD.:     6.123 HEAT: -475.1432
 CYCLE:    40 TIME:   0.625 TIME LEFT:  2.00D  GRAD.:     4.143 HEAT: -475.1474
 CYCLE:    41 TIME:   0.250 TIME LEFT:  2.00D  GRAD.:     5.635 HEAT: -475.1451
 CYCLE:    42 TIME:   0.359 TIME LEFT:  2.00D  GRAD.:     6.852 HEAT: -475.1429
 CYCLE:    43 TIME:   0.688 TIME LEFT:  2.00D  GRAD.:     4.155 HEAT: -475.1483
 CYCLE:    44 TIME:   0.324 TIME LEFT:  2.00D  GRAD.:     4.817 HEAT: -475.1467
 CYCLE:    45 TIME:   0.297 TIME LEFT:  2.00D  GRAD.:     3.171 HEAT: -475.1496
 CYCLE:    46 TIME:   0.281 TIME LEFT:  2.00D  GRAD.:     4.777 HEAT: -475.1463
 CYCLE:    47 TIME:   0.297 TIME LEFT:  2.00D  GRAD.:     4.711 HEAT: -475.1467
 CYCLE:    48 TIME:   0.656 TIME LEFT:  2.00D  GRAD.:     2.945 HEAT: -475.1501
 CYCLE:    49 TIME:   0.371 TIME LEFT:  2.00D  GRAD.:     4.324 HEAT: -475.1470
 CYCLE:    50 TIME:   0.328 TIME LEFT:  2.00D  GRAD.:     3.214 HEAT: -475.1499
 CYCLE:    51 TIME:   0.312 TIME LEFT:  2.00D  GRAD.:     6.368 HEAT: -475.1435
 CYCLE:    52 TIME:   0.312 TIME LEFT:  2.00D  GRAD.:     3.108 HEAT: -475.1498
 CYCLE:    53 TIME:   0.688 TIME LEFT:  2.00D  GRAD.:     3.073 HEAT: -475.1498
 CYCLE:    54 TIME:   0.297 TIME LEFT:  2.00D  GRAD.:     2.798 HEAT: -475.1500
 CYCLE:    55 TIME:   0.312 TIME LEFT:  2.00D  GRAD.:     3.879 HEAT: -475.1485
 CYCLE:    56 TIME:   0.371 TIME LEFT:  2.00D  GRAD.:     3.956 HEAT: -475.1484
 CYCLE:    57 TIME:   0.312 TIME LEFT:  2.00D  GRAD.:     4.473 HEAT: -475.1474
 CYCLE:    58 TIME:   0.312 TIME LEFT:  2.00D  GRAD.:     4.232 HEAT: -475.1475
 CYCLE:    59 TIME:   0.328 TIME LEFT:  2.00D  GRAD.:     6.375 HEAT: -475.1427
 CYCLE:    60 TIME:   0.328 TIME LEFT:  2.00D  GRAD.:     4.685 HEAT: -475.1471
 CYCLE:    61 TIME:   1.000 TIME LEFT:  2.00D  GRAD.:     1.547 HEAT: -475.1513
 CYCLE:    62 TIME:   0.309 TIME LEFT:  2.00D  GRAD.:     2.741 HEAT: -475.1497
 CYCLE:    63 TIME:   0.297 TIME LEFT:  2.00D  GRAD.:     1.837 HEAT: -475.1512
 CYCLE:    64 TIME:   0.375 TIME LEFT:  2.00D  GRAD.:     4.042 HEAT: -475.1481
 CYCLE:    65 TIME:   0.344 TIME LEFT:  2.00D  GRAD.:     1.592 HEAT: -475.1514
 CYCLE:    66 TIME:   0.375 TIME LEFT:  2.00D  GRAD.:     3.873 HEAT: -475.1479
 CYCLE:    67 TIME:   0.297 TIME LEFT:  2.00D  GRAD.:     1.462 HEAT: -475.1515
 CYCLE:    68 TIME:   0.344 TIME LEFT:  2.00D  GRAD.:     3.926 HEAT: -475.1482
 CYCLE:    69 TIME:   0.340 TIME LEFT:  2.00D  GRAD.:     1.238 HEAT: -475.1516
 CYCLE:    70 TIME:   0.344 TIME LEFT:  2.00D  GRAD.:     3.752 HEAT: -475.1482
 CYCLE:    71 TIME:   0.359 TIME LEFT:  2.00D  GRAD.:     1.026 HEAT: -475.1516
 CYCLE:    72 TIME:   0.359 TIME LEFT:  2.00D  GRAD.:     3.092 HEAT: -475.1493
 CYCLE:    73 TIME:   0.359 TIME LEFT:  2.00D  GRAD.:     0.789 HEAT: -475.1518

     GRADIENT =  0.78899 IS LESS THAN CUTOFF =  1.00000



          VARIABLE        FUNCTION
 :         1.52300     -475.151803
*REMARK   3 HET = Not identified; C 2 H 3 N O        =     7 atoms  res:   17
*REMARK   3  ZN = Isolated element                                  res:   18
 charge=-1 html step=0.1 points=30 UHF
 Stretch C-C bond in 30 steps of 0.1 Angstroms each

  N(ATOM      1  N   GLY A   5)   1.38556312 +1    5.2571635 +1    0.8186223 +1
  C(ATOM      2  CW1 VAL A   1)   2.31641737 +1    6.1627186 +1    1.5303781 +1
  C(ATOM      3  CF1 VAL A   1)   1.85653974 +1    4.9772343 +1   -0.5423193 +1
  H(ATOM      4 1HW1 VAL A   1)   2.52705363 +1    5.7360702 +1    2.5340323 +1
  H(ATOM      5 2HW1 VAL A   1)   1.85374255 +1    7.1593025 +1    1.6954937 +1
  C(ATOM      6  CY1 VAL A   1)   3.57767386 +1    6.2519221 +1    0.6524740 +1
  C(ATOM      7  CC1 VAL A   1)   3.11827602 +1    5.8440833 +1   -0.7557583 +1
  H(ATOM      8  HF1 VAL A   1)   1.07244615 +1    5.2279563 +1   -1.3092252 +1
  C(ATOM      9  CC2 VAL A   1)   2.23151094 +1    3.5018268 +1   -0.7512975 +1
  H(ATOM     10 1HY1 VAL A   1)   4.36241948 +1    5.5687609 +1    1.0222836 +1
  H(ATOM     11 2HY1 VAL A   1)   4.01218986 +1    7.2620822 +1    0.6663041 +1
  H(ATOM     12 1HC1 VAL A   1)   3.90308717 +1    5.3008892 +1   -1.3089881 +1
  H(ATOM     13 2HC1 VAL A   1)   2.87719186 +1    6.7302002 +1   -1.3676316 +1
  O(ATOM     14  OY2 VAL A   1)   2.27867902 +1    3.0570127 +1   -1.8833818 +1
  N(ATOM     15  NC2 VAL A   1)   2.50656136 +1    2.7204061 +1    0.3370742 +1
  H(ATOM     16  HC2 VAL A   1)   2.51239572 +1    3.0806834 +1    1.2862518 +1
  C(ATOM     17  CA  TYR A   2)   2.89287860 +1    1.3213430 +1    0.1304897 +1
  H(ATOM     18  HA  TYR A   2)   2.14157568 +1    0.8528688 +1   -0.5770704 +1
  C(ATOM     19  CB  TYR A   2)   4.30105112 +1    1.2086144 +1   -0.4924000 +1
  C(ATOM     20  C   TYR A   2)   2.83333187 +1    0.6253532 +1    1.5067938 +1
  H(ATOM     21 1HB  TYR A   2)   4.33384147 +1    1.8326880 +1   -1.4165626 +1
  H(ATOM     22 2HB  TYR A   2)   5.05542140 +1    1.6474170 +1    0.1855328 +1
  C(ATOM     23  CG  TYR A   2)   4.61219352 +1   -0.2125727 +1   -0.8367885 +1
  O(ATOM     24  O   TYR A   2)   2.83168044 +1    1.2670764 +1    2.5405006 +1
  C(ATOM     25  CD1 TYR A   2)   5.77351223 +1   -0.8133583 +1   -0.3492412 +1
  C(ATOM     26  CD2 TYR A   2)   3.71668412 +1   -0.9489197 +1   -1.6240175 +1
  H(ATOM     27  HD1 TYR A   2)   6.47968436 +1   -0.2359623 +1    0.2423794 +1
  C(ATOM     28  CE1 TYR A   2)   6.02904756 +1   -2.1593354 +1   -0.5954347 +1
  C(ATOM     29  CE2 TYR A   2)   3.92807600 +1   -2.3011901 +1   -1.8413885 +1
  H(ATOM     30  HD2 TYR A   2)   2.83878173 +1   -0.4643925 +1   -2.0656885 +1
  H(ATOM     31  HE1 TYR A   2)   6.92129871 +1   -2.6471402 +1   -0.2205174 +1
  C(ATOM     32  CZ  TYR A   2)   5.08448156 +1   -2.8915721 +1   -1.3165732 +1
  H(ATOM     33  HE2 TYR A   2)   3.20373887 +1   -2.9029614 +1   -2.3909386 +1
  O(ATOM     34  OH  TYR A   2)   5.34945061 +1   -4.2089875 +1   -1.5246398 +1
  H(ATOM     35  HH  TYR A   2)   4.50509088 +1   -4.7288953 +1   -1.4347465 +1
  N(ATOM     36  N   HIS A   3)   2.69276428 +1   -0.7378193 +1    1.4785795 +1
  H(ATOM     37  H   HIS A   3)   2.83628859 +1   -1.2766578 +1    0.6261860 +1
  C(ATOM     38  CA  HIS A   3)   2.33847602 +1   -1.4949219 +1    2.6860302 +1
  H(ATOM     39  HA  HIS A   3)   3.18711144 +1   -1.4291598 +1    3.4222264 +1
  C(ATOM     40  CB  HIS A   3)   1.04683435 +1   -0.9591560 +1    3.3596197 +1
  C(ATOM     41  C   HIS A   3)   2.11300493 +1   -2.9868341 +1    2.3455525 +1
  H(ATOM     42 1HB  HIS A   3)   0.88586822 +1   -1.5019392 +1    4.3172668 +1
  H(ATOM     43 2HB  HIS A   3)   1.19419300 +1    0.1067817 +1    3.6488978 +1
  C(ATOM     44  CG  HIS A   3)  -0.13222430 +1   -1.1031469 +1    2.4805693 +1
  O(ATOM     45  O   HIS A   3)   2.50738673 +1   -3.8571782 +1    3.0936600 +1
  N(ATOM     46  ND1 HIS A   3)  -1.27109566 +1   -1.7937012 +1    2.8468959 +1
  C(ATOM     47  CD2 HIS A   3)  -0.25510191 +1   -0.7111251 +1    1.1356273 +1
  C(ATOM     48  CE1 HIS A   3)  -2.04192722 +1   -1.8542978 +1    1.7284792 +1
  N(ATOM     49  NE2 HIS A   3)  -1.44959187 +1   -1.2235076 +1    0.6480226 +1
  H(ATOM     50  HD2 HIS A   3)   0.40243801 +1   -0.1262075 +1    0.5278934 +1
  H(ATOM     51  HE1 HIS A   3)  -2.99509778 +1   -2.3400805 +1    1.6851306 +1
  N(ATOM     52  N   CYS A   4)   1.46588919 +1   -3.2830948 +1    1.1631643 +1
  H(ATOM     53  H   CYS A   4)   0.98475440 +1   -2.5533250 +1    0.6342951 +1
  C(ATOM     54  CA  CYS A   4)   0.99348334 +1   -4.6384123 +1    0.8998850 +1
  H(ATOM     55  HA  CYS A   4)   1.04579156 +1   -5.2515554 +1    1.8528563 +1
  C(ATOM     56  CB  CYS A   4)  -0.44984576 +1   -4.6328595 +1    0.3735269 +1
  C(ATOM     57  C   CYS A   4)   1.52300000 -1  109.4157532 +1  121.5182856 +1    54    52    56
  H(ATOM     58 1HB  CYS A   4)  -0.82230300 +1   -5.6712057 +1    0.3049863 +1
  H(ATOM     59 2HB  CYS A   4)  -1.10470360 +1   -4.0927463 +1    1.0811908 +1
  S(ATOM     60  SG  CYS A   4)  -0.56256505 +1   -3.9101344 +1   -1.3176877 +1
  O(ATOM     61  O   CYS A   4)   2.88717482 +1   -4.8916238 +1   -0.6791664 +1
  O(ATOM     62  OXT CYS A   4)   1.52956251 +1   -6.6027100 +1   -0.2791089 +1
  C(ATOM     63  C   GLY B   5)   0.04758059 +1    5.2835812 +1    1.1911428 +1
  C(ATOM     64  CA  GLY B   5)  -0.93376206 +1    4.2964804 +1    0.5532452 +1
  O(ATOM     65  O   GLY B   5)  -0.28816086 +1    5.9774858 +1    2.1294705 +1
  N(ATOM     66  N   CYS B   7)  -1.15815382 +1    4.5994840 +1   -0.8540589 +1
  H(ATOM     67 1HA  GLY B   5)  -1.89311891 +1    4.3406824 +1    1.1319391 +1
  H(ATOM     68 2HA  GLY B   5)  -0.53360682 +1    3.2615940 +1    0.6983541 +1
  H(ATOM     69  H   CYS B   7)  -1.51787267 +1    5.5279937 +1   -1.0523051 +1
  C(ATOM     70  C   CYS C   7)  -1.38315925 +1    3.6246227 +1   -1.8299501 +1
  C(ATOM     71  CA  CYS C   7)  -1.09242097 +1    2.1492288 +1   -1.5155891 +1
  O(ATOM     72  O   CYS C   7)  -1.69739063 +1    4.0125428 +1   -2.9340094 +1
  N(ATOM     73  N   HIS C   9)  -1.96804112 +1    1.6728205 +1   -0.4347938 +1
  H(ATOM     74  HA  CYS C   7)  -0.01941896 +1    2.0694221 +1   -1.1659292 +1
  C(ATOM     75  CB  CYS C   7)  -1.28559519 +1    1.3008452 +1   -2.7809055 +1
  H(ATOM     76  H   HIS C   9)  -1.64060067 +1    0.8126572 +1    0.0150840 +1
  H(ATOM     77 1HB  CYS C   7)  -2.34583152 +1    1.2402141 +1   -3.0677988 +1
  H(ATOM     78 2HB  CYS C   7)  -0.77295663 +1    1.7884761 +1   -3.6373543 +1
  S(ATOM     79  SG  CYS C   7)  -0.52835563 +1   -0.3715826 +1   -2.6522141 +1
  C(ATOM     80  C   HIS D   9)  -3.33202729 +1    1.8843592 +1   -0.5164364 +1
  C(ATOM     81  CA  HIS D   9)  -4.19841112 +1    0.7462594 +1    0.0700030 +1
  O(ATOM     82  O   HIS D   9)  -3.82619109 +1    2.8528010 +1   -1.0484853 +1
  N(ATOM     83  N   HET D   9)  -5.31172575 +1    1.3223307 +1    0.7989359 +1
  H(ATOM     84  HA  HIS D   9)  -3.58768676 +1    0.0814651 +1    0.7419936 +1
  C(ATOM     85  CB  HIS D   9)  -4.67173009 +1   -0.0493872 +1   -1.1812058 +1
  H(ATOM     86  H   HET D   9)  -5.74843239 +1    2.1413001 +1    0.3816803 +1
  H(ATOM     87 1HB  HIS D   9)  -5.68750031 +1    0.2959881 +1   -1.4750468 +1
  H(ATOM     88 2HB  HIS D   9)  -4.03516490 +1    0.2027798 +1   -2.0671102 +1
  C(ATOM     89  CG  HIS D   9)  -4.65877935 +1   -1.5076550 +1   -0.9640961 +1
  N(ATOM     90  ND1 HIS D   9)  -3.53961681 +1   -2.3036931 +1   -1.2226223 +1
  C(ATOM     91  CD2 HIS D   9)  -5.71187132 +1   -2.3282067 +1   -0.5598106 +1
  C(ATOM     92  CE1 HIS D   9)  -3.89993381 +1   -3.5852553 +1   -0.9961856 +1
  N(ATOM     93  NE2 HIS D   9)  -5.22509515 +1   -3.6365041 +1   -0.5830524 +1
  H(ATOM     94  HD2 HIS D   9)  -6.71237976 +1   -2.0815862 +1   -0.2764399 +1
  H(ATOM     95  HE1 HIS D   9)  -3.26996570 +1   -4.4629604 +1   -1.1256237 +1
  C(ATOM     96  C1  HET D   9)  -5.81085680 +1    0.8262946 +1    1.9917018 +1
  C(ATOM     97  C2  HET D   9)  -5.14554384 +1   -0.3515628 +1    2.6357354 +1
  H(ATOM     98 1H2  HET D   9)  -5.15148760 +1   -1.2393852 +1    1.9912047 +1
  H(ATOM     99 2H2  HET D   9)  -4.09615448 +1   -0.1430353 +1    2.9105118 +1
  H(ATOM    100 3H2  HET D   9)  -5.66378608 +1   -0.6170823 +1    3.5705035 +1
  O(ATOM    101  O   HET D   9)  -6.78489687 +1    1.3798136 +1    2.4677067 +1
 Zn(HETATM  102 ZN    ZN E  18)  -1.52099248 +1   -1.8000159 +1   -1.2645834 +1
  H(ATOM    103  HXT CYS A   4)   2.05788147 +1   -7.0902362 +1   -0.9503117 +1
  H(ATOM    104  HE2 HIS D   9)  -5.74544865 +1   -4.4498741 +1   -0.3501672 +1
 

          Geometry optimization using EF

          DIAGONAL MATRIX USED AS START HESSIAN

 CYCLE:     1 TIME:   0.656 TIME LEFT:  2.00D  GRAD.:   306.022 HEAT: -467.0741
 CYCLE:     2 TIME:   1.465 TIME LEFT:  2.00D  GRAD.:   211.026 HEAT: -469.1191
 CYCLE:     3 TIME:   0.359 TIME LEFT:  2.00D  GRAD.:    46.998 HEAT: -471.5578
 CYCLE:     4 TIME:   0.375 TIME LEFT:  2.00D  GRAD.:    49.300 HEAT: -472.3015
 CYCLE:     5 TIME:   0.637 TIME LEFT:  2.00D  GRAD.:    37.437 HEAT: -472.4135
 CYCLE:     6 TIME:   0.688 TIME LEFT:  2.00D  GRAD.:    41.654 HEAT: -472.5499
 CYCLE:     7 TIME:   0.750 TIME LEFT:  2.00D  GRAD.:    28.576 HEAT: -472.5862
 CYCLE:     8 TIME:   0.375 TIME LEFT:  2.00D  GRAD.:    16.044 HEAT: -472.6601
 CYCLE:     9 TIME:   2.715 TIME LEFT:  2.00D  GRAD.:    15.070 HEAT: -472.6624

     TRUST RADIUS NOW LESS THAN  0.00010 OPTIMIZATION TERMINATING
      THE GEOMETRY MAY NOT BE COMPLETELY OPTIMIZED
      (TO CONTINUE, ADD 'LET DDMIN=0.0' TO THE KEYWORD LINE)

          VARIABLE        FUNCTION
 :         1.62300     -472.662360
*REMARK   3 HET = Not identified; C 2 H 3 N O        =     7 atoms  res:   17
*REMARK   3  ZN = Isolated element                                  res:   18
 charge=-1 html step=0.1 points=30 UHF
 Stretch C-C bond in 30 steps of 0.1 Angstroms each

  N(ATOM      1  N   GLY A   5)   1.38556978 +1    5.2571504 +1    0.8186722 +1
  C(ATOM      2  CW1 VAL A   1)   2.31641012 +1    6.1627128 +1    1.5305617 +1
  C(ATOM      3  CF1 VAL A   1)   1.85654567 +1    4.9772506 +1   -0.5423080 +1
  H(ATOM      4 1HW1 VAL A   1)   2.52703480 +1    5.7360849 +1    2.5339489 +1
  H(ATOM      5 2HW1 VAL A   1)   1.85374463 +1    7.1592981 +1    1.6954964 +1
  C(ATOM      6  CY1 VAL A   1)   3.57767656 +1    6.2519413 +1    0.6524190 +1
  C(ATOM      7  CC1 VAL A   1)   3.11827935 +1    5.8441056 +1   -0.7558683 +1
  H(ATOM      8  HF1 VAL A   1)   1.07246979 +1    5.2279581 +1   -1.3092028 +1
  C(ATOM      9  CC2 VAL A   1)   2.23152275 +1    3.5018359 +1   -0.7512856 +1
  H(ATOM     10 1HY1 VAL A   1)   4.36243219 +1    5.5687556 +1    1.0223162 +1
  H(ATOM     11 2HY1 VAL A   1)   4.01218779 +1    7.2620861 +1    0.6663278 +1
  H(ATOM     12 1HC1 VAL A   1)   3.90309146 +1    5.3009011 +1   -1.3089515 +1
  H(ATOM     13 2HC1 VAL A   1)   2.87719815 +1    6.7301854 +1   -1.3675568 +1
  O(ATOM     14  OY2 VAL A   1)   2.27869526 +1    3.0570507 +1   -1.8833931 +1
  N(ATOM     15  NC2 VAL A   1)   2.50653742 +1    2.7204360 +1    0.3370886 +1
  H(ATOM     16  HC2 VAL A   1)   2.51239775 +1    3.0807022 +1    1.2862451 +1
  C(ATOM     17  CA  TYR A   2)   2.89288383 +1    1.3213892 +1    0.1303657 +1
  H(ATOM     18  HA  TYR A   2)   2.14159385 +1    0.8528683 +1   -0.5771074 +1
  C(ATOM     19  CB  TYR A   2)   4.30104941 +1    1.2086288 +1   -0.4924138 +1
  C(ATOM     20  C   TYR A   2)   2.83342089 +1    0.6255413 +1    1.5067270 +1
  H(ATOM     21 1HB  TYR A   2)   4.33383561 +1    1.8327166 +1   -1.4166460 +1
  H(ATOM     22 2HB  TYR A   2)   5.05545149 +1    1.6474212 +1    0.1855554 +1
  C(ATOM     23  CG  TYR A   2)   4.61211460 +1   -0.2125322 +1   -0.8367048 +1
  O(ATOM     24  O   TYR A   2)   2.83169980 +1    1.2669782 +1    2.5406220 +1
  C(ATOM     25  CD1 TYR A   2)   5.77343794 +1   -0.8130127 +1   -0.3487882 +1
  C(ATOM     26  CD2 TYR A   2)   3.71662166 +1   -0.9490695 +1   -1.6236335 +1
  H(ATOM     27  HD1 TYR A   2)   6.47970692 +1   -0.2357834 +1    0.2426140 +1
  C(ATOM     28  CE1 TYR A   2)   6.02921914 +1   -2.1588127 +1   -0.5950747 +1
  C(ATOM     29  CE2 TYR A   2)   3.92834728 +1   -2.3013250 +1   -1.8412842 +1
  H(ATOM     30  HD2 TYR A   2)   2.83886845 +1   -0.4645073 +1   -2.0656072 +1
  H(ATOM     31  HE1 TYR A   2)   6.92129979 +1   -2.6470153 +1   -0.2205620 +1
  C(ATOM     32  CZ  TYR A   2)   5.08632498 +1   -2.8909551 +1   -1.3186358 +1
  H(ATOM     33  HE2 TYR A   2)   3.20382853 +1   -2.9029988 +1   -2.3908813 +1
  O(ATOM     34  OH  TYR A   2)   5.35718317 +1   -4.2060366 +1   -1.5321599 +1
  H(ATOM     35  HH  TYR A   2)   4.51024212 +1   -4.7266529 +1   -1.4361730 +1
  N(ATOM     36  N   HIS A   3)   2.69276642 +1   -0.7376961 +1    1.4789436 +1
  H(ATOM     37  H   HIS A   3)   2.83646110 +1   -1.2766500 +1    0.6265278 +1
  C(ATOM     38  CA  HIS A   3)   2.34002656 +1   -1.4931551 +1    2.6869572 +1
  H(ATOM     39  HA  HIS A   3)   3.18805174 +1   -1.4272963 +1    3.4240071 +1
  C(ATOM     40  CB  HIS A   3)   1.04683294 +1   -0.9587407 +1    3.3601130 +1
  C(ATOM     41  C   HIS A   3)   2.11442345 +1   -2.9826998 +1    2.3488159 +1
  H(ATOM     42 1HB  HIS A   3)   0.88579203 +1   -1.5018619 +1    4.3174798 +1
  H(ATOM     43 2HB  HIS A   3)   1.19406824 +1    0.1071160 +1    3.6491751 +1
  C(ATOM     44  CG  HIS A   3)  -0.13223932 +1   -1.1028622 +1    2.4807287 +1
  O(ATOM     45  O   HIS A   3)   2.50810571 +1   -3.8561111 +1    3.0983561 +1
  N(ATOM     46  ND1 HIS A   3)  -1.27110474 +1   -1.7936487 +1    2.8471075 +1
  C(ATOM     47  CD2 HIS A   3)  -0.25525789 +1   -0.7106615 +1    1.1357176 +1
  C(ATOM     48  CE1 HIS A   3)  -2.04200493 +1   -1.8540599 +1    1.7286100 +1
  N(ATOM     49  NE2 HIS A   3)  -1.44969292 +1   -1.2232548 +1    0.6482720 +1
  H(ATOM     50  HD2 HIS A   3)   0.40243251 +1   -0.1261986 +1    0.5279513 +1
  H(ATOM     51  HE1 HIS A   3)  -2.99509978 +1   -2.3400245 +1    1.6851354 +1
  N(ATOM     52  N   CYS A   4)   1.45648439 +1   -3.2809819 +1    1.1720690 +1
  H(ATOM     53  H   CYS A   4)   0.98813215 +1   -2.5443691 +1    0.6370835 +1
  C(ATOM     54  CA  CYS A   4)   0.96396300 +1   -4.6192606 +1    0.9286028 +1
  H(ATOM     55  HA  CYS A   4)   1.04697379 +1   -5.2523283 +1    1.8554715 +1
  C(ATOM     56  CB  CYS A   4)  -0.45680927 +1   -4.6287989 +1    0.3814570 +1
  C(ATOM     57  C   CYS A   4)   1.62300000 -1  108.3509858 +1  119.8169501 +1    54    52    56
  H(ATOM     58 1HB  CYS A   4)  -0.82123580 +1   -5.6701605 +1    0.3065410 +1
  H(ATOM     59 2HB  CYS A   4)  -1.11611295 +1   -4.0900757 +1    1.0833272 +1
  S(ATOM     60  SG  CYS A   4)  -0.56189378 +1   -3.9108141 +1   -1.3144169 +1
  O(ATOM     61  O   CYS A   4)   2.90904090 +1   -4.9012177 +1   -0.7077058 +1
  O(ATOM     62  OXT CYS A   4)   1.54042799 +1   -6.6155310 +1   -0.2980264 +1
  C(ATOM     63  C   GLY B   5)   0.04757853 +1    5.2835745 +1    1.1910237 +1
  C(ATOM     64  CA  GLY B   5)  -0.93378174 +1    4.2965002 +1    0.5530651 +1
  O(ATOM     65  O   GLY B   5)  -0.28819214 +1    5.9775965 +1    2.1296264 +1
  N(ATOM     66  N   CYS B   7)  -1.15815444 +1    4.5994593 +1   -0.8541067 +1
  H(ATOM     67 1HA  GLY B   5)  -1.89314504 +1    4.3407106 +1    1.1319622 +1
  H(ATOM     68 2HA  GLY B   5)  -0.53361657 +1    3.2616211 +1    0.6983925 +1
  H(ATOM     69  H   CYS B   7)  -1.51784668 +1    5.5280093 +1   -1.0522869 +1
  C(ATOM     70  C   CYS C   7)  -1.38311412 +1    3.6245926 +1   -1.8297768 +1
  C(ATOM     71  CA  CYS C   7)  -1.09242592 +1    2.1492648 +1   -1.5156199 +1
  O(ATOM     72  O   CYS C   7)  -1.69733224 +1    4.0125754 +1   -2.9341169 +1
  N(ATOM     73  N   HIS C   9)  -1.96804697 +1    1.6728477 +1   -0.4347666 +1
  H(ATOM     74  HA  CYS C   7)  -0.01941987 +1    2.0694237 +1   -1.1659160 +1
  C(ATOM     75  CB  CYS C   7)  -1.28559933 +1    1.3008410 +1   -2.7810311 +1
  H(ATOM     76  H   HIS C   9)  -1.64059480 +1    0.8127020 +1    0.0149891 +1
  H(ATOM     77 1HB  CYS C   7)  -2.34582755 +1    1.2402052 +1   -3.0677661 +1
  H(ATOM     78 2HB  CYS C   7)  -0.77297990 +1    1.7884506 +1   -3.6372869 +1
  S(ATOM     79  SG  CYS C   7)  -0.52836515 +1   -0.3715811 +1   -2.6520848 +1
  C(ATOM     80  C   HIS D   9)  -3.33197308 +1    1.8842974 +1   -0.5162570 +1
  C(ATOM     81  CA  HIS D   9)  -4.19843129 +1    0.7462303 +1    0.0700743 +1
  O(ATOM     82  O   HIS D   9)  -3.82621976 +1    2.8528712 +1   -1.0486733 +1
  N(ATOM     83  N   HET D   9)  -5.31170452 +1    1.3223502 +1    0.7988980 +1
  H(ATOM     84  HA  HIS D   9)  -3.58768243 +1    0.0814793 +1    0.7419690 +1
  C(ATOM     85  CB  HIS D   9)  -4.67174663 +1   -0.0493880 +1   -1.1810966 +1
  H(ATOM     86  H   HET D   9)  -5.74844596 +1    2.1412763 +1    0.3817008 +1
  H(ATOM     87 1HB  HIS D   9)  -5.68751514 +1    0.2959796 +1   -1.4750609 +1
  H(ATOM     88 2HB  HIS D   9)  -4.03515778 +1    0.2027475 +1   -2.0671541 +1
  C(ATOM     89  CG  HIS D   9)  -4.65879627 +1   -1.5076332 +1   -0.9642967 +1
  N(ATOM     90  ND1 HIS D   9)  -3.53964245 +1   -2.3036670 +1   -1.2225434 +1
  C(ATOM     91  CD2 HIS D   9)  -5.71189134 +1   -2.3282814 +1   -0.5596428 +1
  C(ATOM     92  CE1 HIS D   9)  -3.89996540 +1   -3.5853367 +1   -0.9961996 +1
  N(ATOM     93  NE2 HIS D   9)  -5.22508956 +1   -3.6364651 +1   -0.5831420 +1
  H(ATOM     94  HD2 HIS D   9)  -6.71240739 +1   -2.0816024 +1   -0.2764425 +1
  H(ATOM     95  HE1 HIS D   9)  -3.26986530 +1   -4.4629550 +1   -1.1255724 +1
  C(ATOM     96  C1  HET D   9)  -5.81086710 +1    0.8262559 +1    1.9916456 +1
  C(ATOM     97  C2  HET D   9)  -5.14554216 +1   -0.3515768 +1    2.6357140 +1
  H(ATOM     98 1H2  HET D   9)  -5.15144141 +1   -1.2393828 +1    1.9912224 +1
  H(ATOM     99 2H2  HET D   9)  -4.09615645 +1   -0.1430015 +1    2.9105196 +1
  H(ATOM    100 3H2  HET D   9)  -5.66377763 +1   -0.6170921 +1    3.5705082 +1
  O(ATOM    101  O   HET D   9)  -6.78496555 +1    1.3797679 +1    2.4677196 +1
 Zn(HETATM  102 ZN    ZN E  18)  -1.52057852 +1   -1.8009855 +1   -1.2648852 +1
  H(ATOM    103  HXT CYS A   4)   2.05620035 +1   -7.1214686 +1   -0.9644710 +1
  H(ATOM    104  HE2 HIS D   9)  -5.74546175 +1   -4.4498999 +1   -0.3501542 +1
 

          Geometry optimization using EF

          DIAGONAL MATRIX USED AS START HESSIAN

 CYCLE:     1 TIME:   0.703 TIME LEFT:  2.00D  GRAD.:   297.897 HEAT: -461.6187
 CYCLE:     2 TIME:   1.527 TIME LEFT:  2.00D  GRAD.:   267.640 HEAT: -462.8481
 CYCLE:     3 TIME:   0.328 TIME LEFT:  2.00D  GRAD.:    53.965 HEAT: -465.7700
 CYCLE:     4 TIME:   0.328 TIME LEFT:  2.00D  GRAD.:    64.829 HEAT: -466.5916
 CYCLE:     5 TIME:   0.406 TIME LEFT:  2.00D  GRAD.:    69.295 HEAT: -466.6327
 CYCLE:     6 TIME:   0.969 TIME LEFT:  2.00D  GRAD.:    57.234 HEAT: -466.8917
 CYCLE:     7 TIME:   0.652 TIME LEFT:  2.00D  GRAD.:    28.321 HEAT: -467.0967
 CYCLE:     8 TIME:   0.547 TIME LEFT:  2.00D  GRAD.:    11.912 HEAT: -467.1639
 CYCLE:     9 TIME:   0.656 TIME LEFT:  2.00D  GRAD.:    23.359 HEAT: -467.1764
 CYCLE:    10 TIME:   0.340 TIME LEFT:  2.00D  GRAD.:    10.560 HEAT: -467.2216
 CYCLE:    11 TIME:   0.344 TIME LEFT:  2.00D  GRAD.:    26.277 HEAT: -467.2284
 CYCLE:    12 TIME:   0.328 TIME LEFT:  2.00D  GRAD.:    10.145 HEAT: -467.2860
 CYCLE:    13 TIME:   0.984 TIME LEFT:  2.00D  GRAD.:    11.657 HEAT: -467.2951
 CYCLE:    14 TIME:   0.359 TIME LEFT:  2.00D  GRAD.:     4.888 HEAT: -467.3145
 CYCLE:    15 TIME:   0.375 TIME LEFT:  2.00D  GRAD.:     6.873 HEAT: -467.3295
 CYCLE:    16 TIME:   0.387 TIME LEFT:  2.00D  GRAD.:     8.138 HEAT: -467.3447
 CYCLE:    17 TIME:   0.344 TIME LEFT:  2.00D  GRAD.:    13.216 HEAT: -467.3535
 CYCLE:    18 TIME:   0.812 TIME LEFT:  2.00D  GRAD.:    10.530 HEAT: -467.3636
 CYCLE:    19 TIME:   0.656 TIME LEFT:  2.00D  GRAD.:     9.518 HEAT: -467.3734
 CYCLE:    20 TIME:   0.355 TIME LEFT:  2.00D  GRAD.:     4.199 HEAT: -467.3783
 CYCLE:    21 TIME:   0.688 TIME LEFT:  2.00D  GRAD.:     8.986 HEAT: -467.3802
 CYCLE:    22 TIME:   0.328 TIME LEFT:  2.00D  GRAD.:     6.259 HEAT: -467.3871
 CYCLE:    23 TIME:   1.574 TIME LEFT:  2.00D  GRAD.:     6.360 HEAT: -467.3909
 CYCLE:    24 TIME:   0.359 TIME LEFT:  2.00D  GRAD.:     3.728 HEAT: -467.3946
 CYCLE:    25 TIME:   0.297 TIME LEFT:  2.00D  GRAD.:     8.596 HEAT: -467.3930
 CYCLE:    26 TIME:   0.641 TIME LEFT:  2.00D  GRAD.:     6.949 HEAT: -467.3960
 CYCLE:    27 TIME:   0.578 TIME LEFT:  2.00D  GRAD.:     7.416 HEAT: -467.3987
 CYCLE:    28 TIME:   0.266 TIME LEFT:  2.00D  GRAD.:     5.718 HEAT: -467.4017
 CYCLE:    29 TIME:   0.668 TIME LEFT:  2.00D  GRAD.:     4.318 HEAT: -467.4064
 CYCLE:    30 TIME:   0.297 TIME LEFT:  2.00D  GRAD.:     4.434 HEAT: -467.4050
 CYCLE:    31 TIME:   0.297 TIME LEFT:  2.00D  GRAD.:     5.540 HEAT: -467.4066
 CYCLE:    32 TIME:   0.672 TIME LEFT:  2.00D  GRAD.:     6.191 HEAT: -467.4044
 CYCLE:    33 TIME:   0.266 TIME LEFT:  2.00D  GRAD.:     6.076 HEAT: -467.4055
 CYCLE:    34 TIME:   0.344 TIME LEFT:  2.00D  GRAD.:     6.604 HEAT: -467.4072
 CYCLE:    35 TIME:   0.574 TIME LEFT:  2.00D  GRAD.:     3.209 HEAT: -467.4123
 CYCLE:    36 TIME:   0.266 TIME LEFT:  2.00D  GRAD.:     4.756 HEAT: -467.4095
 CYCLE:    37 TIME:   0.281 TIME LEFT:  2.00D  GRAD.:     4.149 HEAT: -467.4125
 CYCLE:    38 TIME:   0.734 TIME LEFT:  2.00D  GRAD.:     5.336 HEAT: -467.4100
 CYCLE:    39 TIME:   0.266 TIME LEFT:  2.00D  GRAD.:     4.429 HEAT: -467.4119
 CYCLE:    40 TIME:   0.559 TIME LEFT:  2.00D  GRAD.:     4.731 HEAT: -467.4115
 CYCLE:    41 TIME:   0.281 TIME LEFT:  2.00D  GRAD.:     6.130 HEAT: -467.4092
 CYCLE:    42 TIME:   0.641 TIME LEFT:  2.00D  GRAD.:     3.691 HEAT: -467.4146
 CYCLE:    43 TIME:   0.312 TIME LEFT:  2.00D  GRAD.:     5.974 HEAT: -467.4132
 CYCLE:    44 TIME:   0.297 TIME LEFT:  2.00D  GRAD.:     3.448 HEAT: -467.4153
 CYCLE:    45 TIME:   0.297 TIME LEFT:  2.00D  GRAD.:     6.281 HEAT: -467.4128
 CYCLE:    46 TIME:   0.328 TIME LEFT:  2.00D  GRAD.:     4.513 HEAT: -467.4142
 CYCLE:    47 TIME:   0.887 TIME LEFT:  2.00D  GRAD.:     3.544 HEAT: -467.4174
 CYCLE:    48 TIME:   0.609 TIME LEFT:  2.00D  GRAD.:     6.106 HEAT: -467.4114
 CYCLE:    49 TIME:   0.281 TIME LEFT:  2.00D  GRAD.:     5.849 HEAT: -467.4144
 CYCLE:    50 TIME:   0.855 TIME LEFT:  2.00D  GRAD.:     3.028 HEAT: -467.4185
 CYCLE:    51 TIME:   0.297 TIME LEFT:  2.00D  GRAD.:     3.759 HEAT: -467.4191
 CYCLE:    52 TIME:   0.281 TIME LEFT:  2.00D  GRAD.:     3.514 HEAT: -467.4194
 CYCLE:    53 TIME:   0.312 TIME LEFT:  2.00D  GRAD.:     5.866 HEAT: -467.4169
 CYCLE:    54 TIME:   0.312 TIME LEFT:  2.00D  GRAD.:     4.268 HEAT: -467.4190
 CYCLE:    55 TIME:   0.516 TIME LEFT:  2.00D  GRAD.:     6.514 HEAT: -467.4175
 CYCLE:    56 TIME:   0.375 TIME LEFT:  2.00D  GRAD.:     3.991 HEAT: -467.4198
 CYCLE:    57 TIME:   0.531 TIME LEFT:  2.00D  GRAD.:     9.740 HEAT: -467.4103
 CYCLE:    58 TIME:   0.340 TIME LEFT:  2.00D  GRAD.:     3.712 HEAT: -467.4215
 CYCLE:    59 TIME:   0.344 TIME LEFT:  2.00D  GRAD.:     6.860 HEAT: -467.4119
 CYCLE:    60 TIME:   0.344 TIME LEFT:  2.00D  GRAD.:     3.460 HEAT: -467.4222
 CYCLE:    61 TIME:   0.625 TIME LEFT:  2.00D  GRAD.:     4.580 HEAT: -467.4218
 CYCLE:    62 TIME:   0.312 TIME LEFT:  2.00D  GRAD.:     3.015 HEAT: -467.4235
 CYCLE:    63 TIME:   0.281 TIME LEFT:  2.00D  GRAD.:     6.697 HEAT: -467.4162
 CYCLE:    64 TIME:   0.297 TIME LEFT:  2.00D  GRAD.:     2.576 HEAT: -467.4245
 CYCLE:    65 TIME:   0.359 TIME LEFT:  2.00D  GRAD.:     5.604 HEAT: -467.4166
 CYCLE:    66 TIME:   0.309 TIME LEFT:  2.00D  GRAD.:     2.153 HEAT: -467.4250
 CYCLE:    67 TIME:   0.344 TIME LEFT:  2.00D  GRAD.:     6.440 HEAT: -467.4158
 CYCLE:    68 TIME:   0.328 TIME LEFT:  2.00D  GRAD.:     1.952 HEAT: -467.4256
 CYCLE:    69 TIME:   0.672 TIME LEFT:  2.00D  GRAD.:     3.143 HEAT: -467.4239
 CYCLE:    70 TIME:   0.344 TIME LEFT:  2.00D  GRAD.:     1.333 HEAT: -467.4266
 CYCLE:    71 TIME:   0.344 TIME LEFT:  2.00D  GRAD.:     3.948 HEAT: -467.4233
 CYCLE:    72 TIME:   0.324 TIME LEFT:  2.00D  GRAD.:     1.225 HEAT: -467.4270
 CYCLE:    73 TIME:   0.359 TIME LEFT:  2.00D  GRAD.:     3.324 HEAT: -467.4246
 CYCLE:    74 TIME:   0.297 TIME LEFT:  2.00D  GRAD.:     0.908 HEAT: -467.4274

     GRADIENT =  0.90789 IS LESS THAN CUTOFF =  1.00000



          VARIABLE        FUNCTION
 :         1.72300     -467.427439
*REMARK   3 HET = Not identified; C 2 H 3 N O        =     7 atoms  res:   17
*REMARK   3  ZN = Isolated element                                  res:   18
 charge=-1 html step=0.1 points=30 UHF
 Stretch C-C bond in 30 steps of 0.1 Angstroms each

  N(ATOM      1  N   GLY A   5)   1.38527337 +1    5.2582800 +1    0.8184477 +1
  C(ATOM      2  CW1 VAL A   1)   2.31625616 +1    6.1633209 +1    1.5307532 +1
  C(ATOM      3  CF1 VAL A   1)   1.85655518 +1    4.9783189 +1   -0.5423854 +1
  H(ATOM      4 1HW1 VAL A   1)   2.52666582 +1    5.7361014 +1    2.5341313 +1
  H(ATOM      5 2HW1 VAL A   1)   1.85389175 +1    7.1599410 +1    1.6961915 +1
  C(ATOM      6  CY1 VAL A   1)   3.57766278 +1    6.2525664 +1    0.6528958 +1
  C(ATOM      7  CC1 VAL A   1)   3.11840730 +1    5.8451181 +1   -0.7555348 +1
  H(ATOM      8  HF1 VAL A   1)   1.07271529 +1    5.2295391 +1   -1.3094978 +1
  C(ATOM      9  CC2 VAL A   1)   2.23067554 +1    3.5026284 +1   -0.7517115 +1
  H(ATOM     10 1HY1 VAL A   1)   4.36227529 +1    5.5692193 +1    1.0227363 +1
  H(ATOM     11 2HY1 VAL A   1)   4.01231680 +1    7.2626652 +1    0.6671110 +1
  H(ATOM     12 1HC1 VAL A   1)   3.90320059 +1    5.3020946 +1   -1.3087745 +1
  H(ATOM     13 2HC1 VAL A   1)   2.87753674 +1    6.7315442 +1   -1.3669495 +1
  O(ATOM     14  OY2 VAL A   1)   2.27753453 +1    3.0582789 +1   -1.8838622 +1
  N(ATOM     15  NC2 VAL A   1)   2.50460690 +1    2.7201168 +1    0.3363287 +1
  H(ATOM     16  HC2 VAL A   1)   2.51177623 +1    3.0803668 +1    1.2854697 +1
  C(ATOM     17  CA  TYR A   2)   2.89088787 +1    1.3210605 +1    0.1289699 +1
  H(ATOM     18  HA  TYR A   2)   2.14010714 +1    0.8530144 +1   -0.5793348 +1
  C(ATOM     19  CB  TYR A   2)   4.29944605 +1    1.2090590 +1   -0.4922614 +1
  C(ATOM     20  C   TYR A   2)   2.83203176 +1    0.6242650 +1    1.5045366 +1
  H(ATOM     21 1HB  TYR A   2)   4.33219822 +1    1.8320277 +1   -1.4176084 +1
  H(ATOM     22 2HB  TYR A   2)   5.05286750 +1    1.6500146 +1    0.1853220 +1
  C(ATOM     23  CG  TYR A   2)   4.61360348 +1   -0.2115897 +1   -0.8356827 +1
  O(ATOM     24  O   TYR A   2)   2.83132805 +1    1.2657899 +1    2.5383592 +1
  C(ATOM     25  CD1 TYR A   2)   5.77801540 +1   -0.8077363 +1   -0.3501059 +1
  C(ATOM     26  CD2 TYR A   2)   3.72099319 +1   -0.9505134 +1   -1.6238100 +1
  H(ATOM     27  HD1 TYR A   2)   6.47893890 +1   -0.2294079 +1    0.2468656 +1
  C(ATOM     28  CE1 TYR A   2)   6.04409651 +1   -2.1499797 +1   -0.6055290 +1
  C(ATOM     29  CE2 TYR A   2)   3.94281662 +1   -2.2994285 +1   -1.8504306 +1
  H(ATOM     30  HD2 TYR A   2)   2.83814283 +1   -0.4705274 +1   -2.0602590 +1
  H(ATOM     31  HE1 TYR A   2)   6.93985209 +1   -2.6335298 +1   -0.2339795 +1
  C(ATOM     32  CZ  TYR A   2)   5.10627564 +1   -2.8838665 +1   -1.3339551 +1
  H(ATOM     33  HE2 TYR A   2)   3.22175607 +1   -2.9039159 +1   -2.4014250 +1
  O(ATOM     34  OH  TYR A   2)   5.38530636 +1   -4.1951597 +1   -1.5575702 +1
  H(ATOM     35  HH  TYR A   2)   4.54373573 +1   -4.7247672 +1   -1.4847586 +1
  N(ATOM     36  N   HIS A   3)   2.69044040 +1   -0.7394970 +1    1.4784371 +1
  H(ATOM     37  H   HIS A   3)   2.83651013 +1   -1.2804716 +1    0.6281573 +1
  C(ATOM     38  CA  HIS A   3)   2.33938568 +1   -1.4902748 +1    2.6904372 +1
  H(ATOM     39  HA  HIS A   3)   3.18999001 +1   -1.4201214 +1    3.4240628 +1
  C(ATOM     40  CB  HIS A   3)   1.04952145 +1   -0.9496399 +1    3.3650462 +1
  C(ATOM     41  C   HIS A   3)   2.10863004 +1   -2.9845663 +1    2.3642493 +1
  H(ATOM     42 1HB  HIS A   3)   0.88878939 +1   -1.4894606 +1    4.3244847 +1
  H(ATOM     43 2HB  HIS A   3)   1.19971749 +1    0.1165154 +1    3.6519297 +1
  C(ATOM     44  CG  HIS A   3)  -0.13144284 +1   -1.0926663 +1    2.4882887 +1
  O(ATOM     45  O   HIS A   3)   2.50625467 +1   -3.8474967 +1    3.1178265 +1
  N(ATOM     46  ND1 HIS A   3)  -1.27069122 +1   -1.7816628 +1    2.8572466 +1
  C(ATOM     47  CD2 HIS A   3)  -0.25531381 +1   -0.7034250 +1    1.1426819 +1
  C(ATOM     48  CE1 HIS A   3)  -2.04220179 +1   -1.8442804 +1    1.7393657 +1
  N(ATOM     49  NE2 HIS A   3)  -1.45036607 +1   -1.2164851 +1    0.6569644 +1
  H(ATOM     50  HD2 HIS A   3)   0.40217389 +1   -0.1204988 +1    0.5329950 +1
  H(ATOM     51  HE1 HIS A   3)  -2.99575664 +1   -2.3295799 +1    1.6977599 +1
  N(ATOM     52  N   CYS A   4)   1.43181255 +1   -3.2918938 +1    1.1975978 +1
  H(ATOM     53  H   CYS A   4)   0.98303330 +1   -2.5507634 +1    0.6535723 +1
  C(ATOM     54  CA  CYS A   4)   0.92697999 +1   -4.6185075 +1    0.9652081 +1
  H(ATOM     55  HA  CYS A   4)   1.04172845 +1   -5.2788716 +1    1.8580834 +1
  C(ATOM     56  CB  CYS A   4)  -0.47775799 +1   -4.6372229 +1    0.3895036 +1
  C(ATOM     57  C   CYS A   4)   1.72300000 -1  107.1337384 +1  117.8993568 +1    54    52    56
  H(ATOM     58 1HB  CYS A   4)  -0.83032031 +1   -5.6815779 +1    0.2969031 +1
  H(ATOM     59 2HB  CYS A   4)  -1.17260339 +1   -4.1150210 +1    1.0740951 +1
  S(ATOM     60  SG  CYS A   4)  -0.54859473 +1   -3.9036886 +1   -1.3006005 +1
  O(ATOM     61  O   CYS A   4)   2.92762946 +1   -4.9259081 +1   -0.7473684 +1
  O(ATOM     62  OXT CYS A   4)   1.53824012 +1   -6.6304010 +1   -0.3248868 +1
  C(ATOM     63  C   GLY B   5)   0.04710989 +1    5.2851169 +1    1.1903690 +1
  C(ATOM     64  CA  GLY B   5)  -0.93404040 +1    4.2980461 +1    0.5521401 +1
  O(ATOM     65  O   GLY B   5)  -0.28887017 +1    5.9790368 +1    2.1285725 +1
  N(ATOM     66  N   CYS B   7)  -1.15789053 +1    4.6003415 +1   -0.8553493 +1
  H(ATOM     67 1HA  GLY B   5)  -1.89362937 +1    4.3423574 +1    1.1304389 +1
  H(ATOM     68 2HA  GLY B   5)  -0.53384719 +1    3.2632201 +1    0.6979010 +1
  H(ATOM     69  H   CYS B   7)  -1.51738559 +1    5.5288617 +1   -1.0542116 +1
  C(ATOM     70  C   CYS C   7)  -1.38260305 +1    3.6250802 +1   -1.8308110 +1
  C(ATOM     71  CA  CYS C   7)  -1.09260357 +1    2.1498910 +1   -1.5150207 +1
  O(ATOM     72  O   CYS C   7)  -1.69614335 +1    4.0122085 +1   -2.9352766 +1
  N(ATOM     73  N   HIS C   9)  -1.96869918 +1    1.6750046 +1   -0.4339278 +1
  H(ATOM     74  HA  CYS C   7)  -0.01969416 +1    2.0700305 +1   -1.1650552 +1
  C(ATOM     75  CB  CYS C   7)  -1.28569659 +1    1.2997374 +1   -2.7792408 +1
  H(ATOM     76  H   HIS C   9)  -1.64100590 +1    0.8159624 +1    0.0175677 +1
  H(ATOM     77 1HB  CYS C   7)  -2.34585198 +1    1.2388665 +1   -3.0662648 +1
  H(ATOM     78 2HB  CYS C   7)  -0.77269434 +1    1.7859467 +1   -3.6362989 +1
  S(ATOM     79  SG  CYS C   7)  -0.52873967 +1   -0.3725030 +1   -2.6474310 +1
  C(ATOM     80  C   HIS D   9)  -3.33281157 +1    1.8852821 +1   -0.5167162 +1
  C(ATOM     81  CA  HIS D   9)  -4.19834963 +1    0.7468294 +1    0.0704993 +1
  O(ATOM     82  O   HIS D   9)  -3.82761712 +1    2.8523279 +1   -1.0506631 +1
  N(ATOM     83  N   HET D   9)  -5.31228531 +1    1.3224508 +1    0.7987220 +1
  H(ATOM     84  HA  HIS D   9)  -3.58712791 +1    0.0833259 +1    0.7432109 +1
  C(ATOM     85  CB  HIS D   9)  -4.67065572 +1   -0.0504222 +1   -1.1800518 +1
  H(ATOM     86  H   HET D   9)  -5.74945054 +1    2.1409137 +1    0.3810926 +1
  H(ATOM     87 1HB  HIS D   9)  -5.68670099 +1    0.2938745 +1   -1.4743473 +1
  H(ATOM     88 2HB  HIS D   9)  -4.03424909 +1    0.2015875 +1   -2.0660987 +1
  C(ATOM     89  CG  HIS D   9)  -4.65665349 +1   -1.5085303 +1   -0.9623946 +1
  N(ATOM     90  ND1 HIS D   9)  -3.53657151 +1   -2.3042239 +1   -1.2173624 +1
  C(ATOM     91  CD2 HIS D   9)  -5.71064273 +1   -2.3297161 +1   -0.5606575 +1
  C(ATOM     92  CE1 HIS D   9)  -3.89733816 +1   -3.5859935 +1   -0.9931634 +1
  N(ATOM     93  NE2 HIS D   9)  -5.22363209 +1   -3.6377768 +1   -0.5836967 +1
  H(ATOM     94  HD2 HIS D   9)  -6.71185849 +1   -2.0832107 +1   -0.2798473 +1
  H(ATOM     95  HE1 HIS D   9)  -3.26697615 +1   -4.4633409 +1   -1.1220439 +1
  C(ATOM     96  C1  HET D   9)  -5.81183808 +1    0.8260181 +1    1.9911095 +1
  C(ATOM     97  C2  HET D   9)  -5.14568521 +1   -0.3510533 +1    2.6358574 +1
  H(ATOM     98 1H2  HET D   9)  -5.15069946 +1   -1.2390555 +1    1.9916959 +1
  H(ATOM     99 2H2  HET D   9)  -4.09657342 +1   -0.1413799 +1    2.9110305 +1
  H(ATOM    100 3H2  HET D   9)  -5.66394498 +1   -0.6167000 +1    3.5706599 +1
  O(ATOM    101  O   HET D   9)  -6.78679445 +1    1.3785117 +1    2.4664465 +1
 Zn(HETATM  102 ZN    ZN E  18)  -1.51726870 +1   -1.8003254 +1   -1.2551324 +1
  H(ATOM    103  HXT CYS A   4)   2.02843275 +1   -7.1674724 +1   -0.9864159 +1
  H(ATOM    104  HE2 HIS D   9)  -5.74469049 +1   -4.4513729 +1   -0.3530872 +1
 

          Geometry optimization using EF

          DIAGONAL MATRIX USED AS START HESSIAN

 CYCLE:     1 TIME:   0.594 TIME LEFT:  2.00D  GRAD.:   324.599 HEAT: -455.1297
 CYCLE:     2 TIME:   1.418 TIME LEFT:  2.00D  GRAD.:   298.263 HEAT: -456.2624
 CYCLE:     3 TIME:   0.344 TIME LEFT:  2.00D  GRAD.:    57.794 HEAT: -459.4343
 CYCLE:     4 TIME:   0.328 TIME LEFT:  2.00D  GRAD.:    72.182 HEAT: -460.2555
 CYCLE:     5 TIME:   0.688 TIME LEFT:  2.00D  GRAD.:    40.908 HEAT: -460.5411
 CYCLE:     6 TIME:   0.699 TIME LEFT:  2.00D  GRAD.:    33.516 HEAT: -460.6533
 CYCLE:     7 TIME:   0.375 TIME LEFT:  2.00D  GRAD.:    44.722 HEAT: -460.6711
 CYCLE:     8 TIME:   0.344 TIME LEFT:  2.00D  GRAD.:    12.520 HEAT: -460.7720
 CYCLE:     9 TIME:   1.156 TIME LEFT:  2.00D  GRAD.:    17.070 HEAT: -460.7860
 CYCLE:    10 TIME:   0.434 TIME LEFT:  2.00D  GRAD.:     5.700 HEAT: -460.8045
 CYCLE:    11 TIME:   0.625 TIME LEFT:  2.00D  GRAD.:    12.303 HEAT: -460.8100
 CYCLE:    12 TIME:   0.281 TIME LEFT:  2.00D  GRAD.:     4.369 HEAT: -460.8214
 CYCLE:    13 TIME:   0.375 TIME LEFT:  2.00D  GRAD.:    10.669 HEAT: -460.8262
 CYCLE:    14 TIME:   0.375 TIME LEFT:  2.00D  GRAD.:     8.592 HEAT: -460.8384
 CYCLE:    15 TIME:   0.594 TIME LEFT:  2.00D  GRAD.:     7.499 HEAT: -460.8425
 CYCLE:    16 TIME:   0.309 TIME LEFT:  2.00D  GRAD.:     9.459 HEAT: -460.8425
 CYCLE:    17 TIME:   0.312 TIME LEFT:  2.00D  GRAD.:     9.464 HEAT: -460.8489
 CYCLE:    18 TIME:   0.328 TIME LEFT:  2.00D  GRAD.:     7.057 HEAT: -460.8517
 CYCLE:    19 TIME:   0.672 TIME LEFT:  2.00D  GRAD.:     5.073 HEAT: -460.8570
 CYCLE:    20 TIME:   0.344 TIME LEFT:  2.00D  GRAD.:     4.891 HEAT: -460.8571
 CYCLE:    21 TIME:   0.355 TIME LEFT:  2.00D  GRAD.:     7.101 HEAT: -460.8585
 CYCLE:    22 TIME:   1.000 TIME LEFT:  2.00D  GRAD.:     6.077 HEAT: -460.8599
 CYCLE:    23 TIME:   0.359 TIME LEFT:  2.00D  GRAD.:     9.380 HEAT: -460.8591
 CYCLE:    24 TIME:   0.375 TIME LEFT:  2.00D  GRAD.:     3.006 HEAT: -460.8638
 CYCLE:    25 TIME:   0.359 TIME LEFT:  2.00D  GRAD.:    11.499 HEAT: -460.8572
 CYCLE:    26 TIME:   0.344 TIME LEFT:  2.00D  GRAD.:    10.107 HEAT: -460.8574
 CYCLE:    27 TIME:   0.902 TIME LEFT:  2.00D  GRAD.:     9.307 HEAT: -460.8653
 CYCLE:    28 TIME:   0.266 TIME LEFT:  2.00D  GRAD.:     3.972 HEAT: -460.8665
 CYCLE:    29 TIME:   0.328 TIME LEFT:  2.00D  GRAD.:     6.876 HEAT: -460.8674
 CYCLE:    30 TIME:   0.328 TIME LEFT:  2.00D  GRAD.:     4.674 HEAT: -460.8673
 CYCLE:    31 TIME:   0.641 TIME LEFT:  2.00D  GRAD.:     8.226 HEAT: -460.8643
 CYCLE:    32 TIME:   0.652 TIME LEFT:  2.00D  GRAD.:     2.294 HEAT: -460.8714
 CYCLE:    33 TIME:   0.281 TIME LEFT:  2.00D  GRAD.:     7.125 HEAT: -460.8652
 CYCLE:    34 TIME:   0.328 TIME LEFT:  2.00D  GRAD.:     4.594 HEAT: -460.8706
 CYCLE:    35 TIME:   0.672 TIME LEFT:  2.00D  GRAD.:     8.074 HEAT: -460.8660
 CYCLE:    36 TIME:   0.359 TIME LEFT:  2.00D  GRAD.:     4.716 HEAT: -460.8711
 CYCLE:    37 TIME:   0.980 TIME LEFT:  2.00D  GRAD.:     4.394 HEAT: -460.8736
 CYCLE:    38 TIME:   0.328 TIME LEFT:  2.00D  GRAD.:     4.570 HEAT: -460.8712
 CYCLE:    39 TIME:   0.328 TIME LEFT:  2.00D  GRAD.:     5.446 HEAT: -460.8729
 CYCLE:    40 TIME:   0.281 TIME LEFT:  2.00D  GRAD.:     7.005 HEAT: -460.8659
 CYCLE:    41 TIME:   0.281 TIME LEFT:  2.00D  GRAD.:     4.502 HEAT: -460.8733
 CYCLE:    42 TIME:   0.559 TIME LEFT:  2.00D  GRAD.:     5.513 HEAT: -460.8708
 CYCLE:    43 TIME:   0.328 TIME LEFT:  2.00D  GRAD.:     6.378 HEAT: -460.8684
 CYCLE:    44 TIME:   0.609 TIME LEFT:  2.00D  GRAD.:     3.632 HEAT: -460.8757
 CYCLE:    45 TIME:   0.734 TIME LEFT:  2.00D  GRAD.:     3.597 HEAT: -460.8762
 CYCLE:    46 TIME:   0.375 TIME LEFT:  2.00D  GRAD.:     4.060 HEAT: -460.8756
 CYCLE:    47 TIME:   0.371 TIME LEFT:  2.00D  GRAD.:     5.728 HEAT: -460.8743
 CYCLE:    48 TIME:   0.344 TIME LEFT:  2.00D  GRAD.:     5.477 HEAT: -460.8745
 CYCLE:    49 TIME:   0.625 TIME LEFT:  2.00D  GRAD.:     4.176 HEAT: -460.8779
 CYCLE:    50 TIME:   0.312 TIME LEFT:  2.00D  GRAD.:     3.673 HEAT: -460.8778
 CYCLE:    51 TIME:   0.375 TIME LEFT:  2.00D  GRAD.:     5.570 HEAT: -460.8777
 CYCLE:    52 TIME:   0.359 TIME LEFT:  2.00D  GRAD.:     4.716 HEAT: -460.8772
 CYCLE:    53 TIME:   0.355 TIME LEFT:  2.00D  GRAD.:     7.123 HEAT: -460.8733
 CYCLE:    54 TIME:   0.656 TIME LEFT:  2.00D  GRAD.:     2.536 HEAT: -460.8813
 CYCLE:    55 TIME:   0.312 TIME LEFT:  2.00D  GRAD.:     7.406 HEAT: -460.8761
 CYCLE:    56 TIME:   0.359 TIME LEFT:  2.00D  GRAD.:     2.508 HEAT: -460.8824
 CYCLE:    57 TIME:   0.297 TIME LEFT:  2.00D  GRAD.:     8.379 HEAT: -460.8741
 CYCLE:    58 TIME:   0.328 TIME LEFT:  2.00D  GRAD.:     2.092 HEAT: -460.8836
 CYCLE:    59 TIME:   0.359 TIME LEFT:  2.00D  GRAD.:     8.438 HEAT: -460.8750
 CYCLE:    60 TIME:   0.371 TIME LEFT:  2.00D  GRAD.:     2.030 HEAT: -460.8846
 CYCLE:    61 TIME:   0.344 TIME LEFT:  2.00D  GRAD.:     7.134 HEAT: -460.8792
 CYCLE:    62 TIME:   0.359 TIME LEFT:  2.00D  GRAD.:     1.373 HEAT: -460.8858
 CYCLE:    63 TIME:   0.359 TIME LEFT:  2.00D  GRAD.:     4.606 HEAT: -460.8814
 CYCLE:    64 TIME:   0.391 TIME LEFT:  2.00D  GRAD.:     1.479 HEAT: -460.8868
 CYCLE:    65 TIME:   0.344 TIME LEFT:  2.00D  GRAD.:     5.601 HEAT: -460.8801
 CYCLE:    66 TIME:   0.355 TIME LEFT:  2.00D  GRAD.:     1.216 HEAT: -460.8882
 CYCLE:    67 TIME:   0.344 TIME LEFT:  2.00D  GRAD.:     4.506 HEAT: -460.8841
 CYCLE:    68 TIME:   0.344 TIME LEFT:  2.00D  GRAD.:     1.261 HEAT: -460.8895
 CYCLE:    69 TIME:   0.359 TIME LEFT:  2.00D  GRAD.:     4.239 HEAT: -460.8853
 CYCLE:    70 TIME:   0.328 TIME LEFT:  2.00D  GRAD.:     1.139 HEAT: -460.8908
 CYCLE:    71 TIME:   0.375 TIME LEFT:  2.00D  GRAD.:     3.549 HEAT: -460.8877
 CYCLE:    72 TIME:   0.344 TIME LEFT:  2.00D  GRAD.:     1.131 HEAT: -460.8923
 CYCLE:    73 TIME:   0.355 TIME LEFT:  2.00D  GRAD.:     3.546 HEAT: -460.8895
 CYCLE:    74 TIME:   0.344 TIME LEFT:  2.00D  GRAD.:     1.126 HEAT: -460.8941
 CYCLE:    75 TIME:   0.344 TIME LEFT:  2.00D  GRAD.:     4.192 HEAT: -460.8900
 CYCLE:    76 TIME:   0.344 TIME LEFT:  2.00D  GRAD.:     0.949 HEAT: -460.8956

     GRADIENT =  0.94916 IS LESS THAN CUTOFF =  1.00000



          VARIABLE        FUNCTION
 :         1.82300     -460.895658
*REMARK   3 HET = Not identified; C 2 H 3 N O        =     7 atoms  res:   17
*REMARK   3  ZN = Isolated element                                  res:   18
 charge=-1 html step=0.1 points=30 UHF
 Stretch C-C bond in 30 steps of 0.1 Angstroms each

  N(ATOM      1  N   GLY A   5)   1.38556085 +1    5.2571143 +1    0.8190749 +1
  C(ATOM      2  CW1 VAL A   1)   2.31663699 +1    6.1625005 +1    1.5310174 +1
  C(ATOM      3  CF1 VAL A   1)   1.85656354 +1    4.9769287 +1   -0.5419570 +1
  H(ATOM      4 1HW1 VAL A   1)   2.52693930 +1    5.7358145 +1    2.5343157 +1
  H(ATOM      5 2HW1 VAL A   1)   1.85419922 +1    7.1592993 +1    1.6959676 +1
  C(ATOM      6  CY1 VAL A   1)   3.57797257 +1    6.2515528 +1    0.6532240 +1
  C(ATOM      7  CC1 VAL A   1)   3.11887295 +1    5.8431727 +1   -0.7552395 +1
  H(ATOM      8  HF1 VAL A   1)   1.07287933 +1    5.2291033 +1   -1.3088593 +1
  C(ATOM      9  CC2 VAL A   1)   2.22956799 +1    3.5012394 +1   -0.7526241 +1
  H(ATOM     10 1HY1 VAL A   1)   4.36275683 +1    5.5686437 +1    1.0233383 +1
  H(ATOM     11 2HY1 VAL A   1)   4.01233080 +1    7.2617665 +1    0.6666209 +1
  H(ATOM     12 1HC1 VAL A   1)   3.90367335 +1    5.2995117 +1   -1.3078676 +1
  H(ATOM     13 2HC1 VAL A   1)   2.87848325 +1    6.7292310 +1   -1.3672602 +1
  O(ATOM     14  OY2 VAL A   1)   2.27761036 +1    3.0585597 +1   -1.8854082 +1
  N(ATOM     15  NC2 VAL A   1)   2.50056080 +1    2.7163269 +1    0.3345819 +1
  H(ATOM     16  HC2 VAL A   1)   2.50852424 +1    3.0758351 +1    1.2841557 +1
  C(ATOM     17  CA  TYR A   2)   2.88896393 +1    1.3177610 +1    0.1256698 +1
  H(ATOM     18  HA  TYR A   2)   2.13928895 +1    0.8495317 +1   -0.5835845 +1
  C(ATOM     19  CB  TYR A   2)   4.29833774 +1    1.2084475 +1   -0.4938585 +1
  C(ATOM     20  C   TYR A   2)   2.83109663 +1    0.6204101 +1    1.5007094 +1
  H(ATOM     21 1HB  TYR A   2)   4.33154044 +1    1.8326960 +1   -1.4183338 +1
  H(ATOM     22 2HB  TYR A   2)   5.05012692 +1    1.6497487 +1    0.1854925 +1
  C(ATOM     23  CG  TYR A   2)   4.61624380 +1   -0.2108828 +1   -0.8393037 +1
  O(ATOM     24  O   TYR A   2)   2.83282856 +1    1.2617574 +1    2.5346476 +1
  C(ATOM     25  CD1 TYR A   2)   5.78572631 +1   -0.8022538 +1   -0.3599660 +1
  C(ATOM     26  CD2 TYR A   2)   3.72441603 +1   -0.9524098 +1   -1.6256535 +1
  H(ATOM     27  HD1 TYR A   2)   6.48580168 +1   -0.2219373 +1    0.2360059 +1
  C(ATOM     28  CE1 TYR A   2)   6.05846709 +1   -2.1418333 +1   -0.6213495 +1
  C(ATOM     29  CE2 TYR A   2)   3.95282502 +1   -2.2992921 +1   -1.8573301 +1
  H(ATOM     30  HD2 TYR A   2)   2.83760032 +1   -0.4758186 +1   -2.0579116 +1
  H(ATOM     31  HE1 TYR A   2)   6.95874013 +1   -2.6216566 +1   -0.2554031 +1
  C(ATOM     32  CZ  TYR A   2)   5.12198781 +1   -2.8790262 +1   -1.3483182 +1
  H(ATOM     33  HE2 TYR A   2)   3.23336736 +1   -2.9063010 +1   -2.4077714 +1
  O(ATOM     34  OH  TYR A   2)   5.40714139 +1   -4.1873014 +1   -1.5779523 +1
  H(ATOM     35  HH  TYR A   2)   4.56906042 +1   -4.7230829 +1   -1.4942230 +1
  N(ATOM     36  N   HIS A   3)   2.68614792 +1   -0.7434438 +1    1.4758310 +1
  H(ATOM     37  H   HIS A   3)   2.83564139 +1   -1.2862223 +1    0.6275079 +1
  C(ATOM     38  CA  HIS A   3)   2.33843405 +1   -1.4896153 +1    2.6915215 +1
  H(ATOM     39  HA  HIS A   3)   3.19237685 +1   -1.4193972 +1    3.4216209 +1
  C(ATOM     40  CB  HIS A   3)   1.05296766 +1   -0.9423485 +1    3.3706967 +1
  C(ATOM     41  C   HIS A   3)   2.10014281 +1   -2.9842608 +1    2.3746094 +1
  H(ATOM     42 1HB  HIS A   3)   0.89393675 +1   -1.4783738 +1    4.3318396 +1
  H(ATOM     43 2HB  HIS A   3)   1.20823773 +1    0.1240846 +1    3.6541691 +1
  C(ATOM     44  CG  HIS A   3)  -0.13117016 +1   -1.0836650 +1    2.4976849 +1
  O(ATOM     45  O   HIS A   3)   2.49777818 +1   -3.8453212 +1    3.1292232 +1
  N(ATOM     46  ND1 HIS A   3)  -1.26864307 +1   -1.7747897 +1    2.8678098 +1
  C(ATOM     47  CD2 HIS A   3)  -0.25791093 +1   -0.6933914 +1    1.1525418 +1
  C(ATOM     48  CE1 HIS A   3)  -2.04159588 +1   -1.8384428 +1    1.7509827 +1
  N(ATOM     49  NE2 HIS A   3)  -1.45239442 +1   -1.2087017 +1    0.6680589 +1
  H(ATOM     50  HD2 HIS A   3)   0.39751730 +1   -0.1082911 +1    0.5427151 +1
  H(ATOM     51  HE1 HIS A   3)  -2.99453579 +1   -2.3246560 +1    1.7106382 +1
  N(ATOM     52  N   CYS A   4)   1.40226284 +1   -3.2949392 +1    1.2185783 +1
  H(ATOM     53  H   CYS A   4)   0.97289574 +1   -2.5484938 +1    0.6648068 +1
  C(ATOM     54  CA  CYS A   4)   0.88827209 +1   -4.6076990 +1    0.9970941 +1
  H(ATOM     55  HA  CYS A   4)   1.02971877 +1   -5.2914556 +1    1.8603829 +1
  C(ATOM     56  CB  CYS A   4)  -0.49362537 +1   -4.6436810 +1    0.3864692 +1
  C(ATOM     57  C   CYS A   4)   1.82300000 -1  106.3227608 +1  116.2714543 +1    54    52    56
  H(ATOM     58 1HB  CYS A   4)  -0.82558253 +1   -5.6934511 +1    0.2714763 +1
  H(ATOM     59 2HB  CYS A   4)  -1.21558306 +1   -4.1414563 +1    1.0586580 +1
  S(ATOM     60  SG  CYS A   4)  -0.53931913 +1   -3.8920893 +1   -1.2965633 +1
  O(ATOM     61  O   CYS A   4)   2.96934514 +1   -4.9659158 +1   -0.7574207 +1
  O(ATOM     62  OXT CYS A   4)   1.53699966 +1   -6.6463493 +1   -0.3528219 +1
  C(ATOM     63  C   GLY B   5)   0.04699145 +1    5.2872237 +1    1.1897994 +1
  C(ATOM     64  CA  GLY B   5)  -0.93514733 +1    4.3011301 +1    0.5518260 +1
  O(ATOM     65  O   GLY B   5)  -0.28865563 +1    5.9827698 +1    2.1269684 +1
  N(ATOM     66  N   CYS B   7)  -1.15840860 +1    4.6032410 +1   -0.8557901 +1
  H(ATOM     67 1HA  GLY B   5)  -1.89478065 +1    4.3463721 +1    1.1300335 +1
  H(ATOM     68 2HA  GLY B   5)  -0.53570714 +1    3.2659832 +1    0.6981758 +1
  H(ATOM     69  H   CYS B   7)  -1.51666737 +1    5.5319883 +1   -1.0551221 +1
  C(ATOM     70  C   CYS C   7)  -1.38287312 +1    3.6275245 +1   -1.8308365 +1
  C(ATOM     71  CA  CYS C   7)  -1.09364687 +1    2.1527610 +1   -1.5131678 +1
  O(ATOM     72  O   CYS C   7)  -1.69542918 +1    4.0139502 +1   -2.9358086 +1
  N(ATOM     73  N   HIS C   9)  -1.97069878 +1    1.6793793 +1   -0.4321521 +1
  H(ATOM     74  HA  CYS C   7)  -0.02101275 +1    2.0731867 +1   -1.1621069 +1
  C(ATOM     75  CB  CYS C   7)  -1.28550912 +1    1.3008995 +1   -2.7762622 +1
  H(ATOM     76  H   HIS C   9)  -1.64233025 +1    0.8222083 +1    0.0221532 +1
  H(ATOM     77 1HB  CYS C   7)  -2.34539784 +1    1.2388751 +1   -3.0639881 +1
  H(ATOM     78 2HB  CYS C   7)  -0.77211555 +1    1.7857706 +1   -3.6337253 +1
  S(ATOM     79  SG  CYS C   7)  -0.52768523 +1   -0.3703434 +1   -2.6399011 +1
  C(ATOM     80  C   HIS D   9)  -3.33509528 +1    1.8869710 +1   -0.5174529 +1
  C(ATOM     81  CA  HIS D   9)  -4.19932761 +1    0.7482339 +1    0.0713973 +1
  O(ATOM     82  O   HIS D   9)  -3.83102582 +1    2.8518432 +1   -1.0541847 +1
  N(ATOM     83  N   HET D   9)  -5.31405118 +1    1.3233173 +1    0.7987893 +1
  H(ATOM     84  HA  HIS D   9)  -3.58735433 +1    0.0864785 +1    0.7452036 +1
  C(ATOM     85  CB  HIS D   9)  -4.67029230 +1   -0.0514582 +1   -1.1780249 +1
  H(ATOM     86  H   HET D   9)  -5.75214530 +1    2.1408293 +1    0.3799190 +1
  H(ATOM     87 1HB  HIS D   9)  -5.68617274 +1    0.2920604 +1   -1.4738731 +1
  H(ATOM     88 2HB  HIS D   9)  -4.03309291 +1    0.1994563 +1   -2.0641507 +1
  C(ATOM     89  CG  HIS D   9)  -4.65585971 +1   -1.5093922 +1   -0.9587133 +1
  N(ATOM     90  ND1 HIS D   9)  -3.53382280 +1   -2.3036820 +1   -1.2090220 +1
  C(ATOM     91  CD2 HIS D   9)  -5.71049441 +1   -2.3317392 +1   -0.5616590 +1
  C(ATOM     92  CE1 HIS D   9)  -3.89392996 +1   -3.5860857 +1   -0.9863199 +1
  N(ATOM     93  NE2 HIS D   9)  -5.22186830 +1   -3.6392868 +1   -0.5824889 +1
  H(ATOM     94  HD2 HIS D   9)  -6.71324878 +1   -2.0865834 +1   -0.2848866 +1
  H(ATOM     95  HE1 HIS D   9)  -3.26214111 +1   -4.4624339 +1   -1.1133709 +1
  C(ATOM     96  C1  HET D   9)  -5.81391268 +1    0.8267871 +1    1.9910784 +1
  C(ATOM     97  C2  HET D   9)  -5.14687003 +1   -0.3488771 +1    2.6367612 +1
  H(ATOM     98 1H2  HET D   9)  -5.15064007 +1   -1.2374965 +1    1.9929667 +1
  H(ATOM     99 2H2  HET D   9)  -4.09821291 +1   -0.1379987 +1    2.9124615 +1
  H(ATOM    100 3H2  HET D   9)  -5.66539571 +1   -0.6147283 +1    3.5715046 +1
  O(ATOM    101  O   HET D   9)  -6.78984806 +1    1.3785409 +1    2.4653377 +1
 Zn(HETATM  102 ZN    ZN E  18)  -1.51619630 +1   -1.7955320 +1   -1.2448990 +1
  H(ATOM    103  HXT CYS A   4)   2.01527208 +1   -7.2062442 +1   -1.0032830 +1
  H(ATOM    104  HE2 HIS D   9)  -5.74324498 +1   -4.4536175 +1   -0.3548688 +1
 

          Geometry optimization using EF

          DIAGONAL MATRIX USED AS START HESSIAN

 CYCLE:     1 TIME:   0.609 TIME LEFT:  2.00D  GRAD.:   334.748 HEAT: -448.0503
 CYCLE:     2 TIME:   1.277 TIME LEFT:  2.00D  GRAD.:   334.301 HEAT: -448.8077
 CYCLE:     3 TIME:   0.375 TIME LEFT:  2.00D  GRAD.:    62.222 HEAT: -452.3080
 CYCLE:     4 TIME:   0.422 TIME LEFT:  2.00D  GRAD.:    76.222 HEAT: -453.1876
 CYCLE:     5 TIME:   0.750 TIME LEFT:  2.00D  GRAD.:    40.272 HEAT: -453.5149
 CYCLE:     6 TIME:   0.590 TIME LEFT:  2.00D  GRAD.:    50.229 HEAT: -453.5868
 CYCLE:     7 TIME:   0.422 TIME LEFT:  2.00D  GRAD.:    37.033 HEAT: -453.6815
 CYCLE:     8 TIME:   0.359 TIME LEFT:  2.00D  GRAD.:    33.538 HEAT: -453.7121
 CYCLE:     9 TIME:   0.594 TIME LEFT:  2.00D  GRAD.:    32.080 HEAT: -453.7722
 CYCLE:    10 TIME:   0.344 TIME LEFT:  2.00D  GRAD.:    21.954 HEAT: -453.7792
 CYCLE:    11 TIME:   0.684 TIME LEFT:  2.00D  GRAD.:    30.594 HEAT: -453.8015
 CYCLE:    12 TIME:   0.359 TIME LEFT:  2.00D  GRAD.:     4.409 HEAT: -453.8323
 CYCLE:    13 TIME:   0.391 TIME LEFT:  2.00D  GRAD.:    10.525 HEAT: -453.8342
 CYCLE:    14 TIME:   0.344 TIME LEFT:  2.00D  GRAD.:     8.523 HEAT: -453.8437
 CYCLE:    15 TIME:   0.359 TIME LEFT:  2.00D  GRAD.:     9.900 HEAT: -453.8464
 CYCLE:    16 TIME:   0.688 TIME LEFT:  2.00D  GRAD.:     5.233 HEAT: -453.8574
 CYCLE:    17 TIME:   0.715 TIME LEFT:  2.00D  GRAD.:     3.687 HEAT: -453.8620
 CYCLE:    18 TIME:   0.625 TIME LEFT:  2.00D  GRAD.:     2.559 HEAT: -453.8657
 CYCLE:    19 TIME:   0.641 TIME LEFT:  2.00D  GRAD.:     8.595 HEAT: -453.8695
 CYCLE:    20 TIME:   0.668 TIME LEFT:  2.00D  GRAD.:     7.685 HEAT: -453.8710
 CYCLE:    21 TIME:   0.688 TIME LEFT:  2.00D  GRAD.:     5.292 HEAT: -453.8763
 CYCLE:    22 TIME:   0.359 TIME LEFT:  2.00D  GRAD.:     7.989 HEAT: -453.8705
 CYCLE:    23 TIME:   0.328 TIME LEFT:  2.00D  GRAD.:     7.390 HEAT: -453.8741
 CYCLE:    24 TIME:   0.375 TIME LEFT:  2.00D  GRAD.:     6.891 HEAT: -453.8752
 CYCLE:    25 TIME:   0.359 TIME LEFT:  2.00D  GRAD.:     7.411 HEAT: -453.8749
 CYCLE:    26 TIME:   0.793 TIME LEFT:  2.00D  GRAD.:     2.899 HEAT: -453.8814
 CYCLE:    27 TIME:   0.375 TIME LEFT:  2.00D  GRAD.:     6.326 HEAT: -453.8798
 CYCLE:    28 TIME:   0.344 TIME LEFT:  2.00D  GRAD.:     3.835 HEAT: -453.8826
 CYCLE:    29 TIME:   1.012 TIME LEFT:  2.00D  GRAD.:     8.157 HEAT: -453.8805
 CYCLE:    30 TIME:   0.375 TIME LEFT:  2.00D  GRAD.:     2.469 HEAT: -453.8852
 CYCLE:    31 TIME:   0.688 TIME LEFT:  2.00D  GRAD.:     6.413 HEAT: -453.8817
 CYCLE:    32 TIME:   0.312 TIME LEFT:  2.00D  GRAD.:     3.186 HEAT: -453.8862
 CYCLE:    33 TIME:   0.703 TIME LEFT:  2.00D  GRAD.:     7.314 HEAT: -453.8806
 CYCLE:    34 TIME:   0.641 TIME LEFT:  2.00D  GRAD.:     2.362 HEAT: -453.8883
 CYCLE:    35 TIME:   0.355 TIME LEFT:  2.00D  GRAD.:     5.542 HEAT: -453.8851
 CYCLE:    36 TIME:   0.344 TIME LEFT:  2.00D  GRAD.:     4.362 HEAT: -453.8875
 CYCLE:    37 TIME:   1.016 TIME LEFT:  2.00D  GRAD.:     2.562 HEAT: -453.8911
 CYCLE:    38 TIME:   0.355 TIME LEFT:  2.00D  GRAD.:     5.210 HEAT: -453.8866
 CYCLE:    39 TIME:   0.348 TIME LEFT:  2.00D  GRAD.:     2.512 HEAT: -453.8935
 CYCLE:    40 TIME:   0.715 TIME LEFT:  2.00D  GRAD.:     4.906 HEAT: -453.8905
 CYCLE:    41 TIME:   0.297 TIME LEFT:  2.00D  GRAD.:     2.505 HEAT: -453.8953
 CYCLE:    42 TIME:   0.672 TIME LEFT:  2.00D  GRAD.:     6.515 HEAT: -453.8871
 CYCLE:    43 TIME:   0.344 TIME LEFT:  2.00D  GRAD.:     4.521 HEAT: -453.8951
 CYCLE:    44 TIME:   1.043 TIME LEFT:  2.00D  GRAD.:     2.889 HEAT: -453.8980
 CYCLE:    45 TIME:   0.406 TIME LEFT:  2.00D  GRAD.:     2.634 HEAT: -453.8990
 CYCLE:    46 TIME:   0.312 TIME LEFT:  2.00D  GRAD.:     3.886 HEAT: -453.8999
 CYCLE:    47 TIME:   0.297 TIME LEFT:  2.00D  GRAD.:     7.020 HEAT: -453.8951
 CYCLE:    48 TIME:   0.312 TIME LEFT:  2.00D  GRAD.:     7.160 HEAT: -453.8967
 CYCLE:    49 TIME:   0.559 TIME LEFT:  2.00D  GRAD.:     5.015 HEAT: -453.9039
 CYCLE:    50 TIME:   0.672 TIME LEFT:  2.00D  GRAD.:     2.235 HEAT: -453.9098
 CYCLE:    51 TIME:   0.297 TIME LEFT:  2.00D  GRAD.:     4.153 HEAT: -453.9082
 CYCLE:    52 TIME:   0.297 TIME LEFT:  2.00D  GRAD.:     2.137 HEAT: -453.9143
 CYCLE:    53 TIME:   0.344 TIME LEFT:  2.00D  GRAD.:     6.028 HEAT: -453.9104
 CYCLE:    54 TIME:   0.391 TIME LEFT:  2.00D  GRAD.:     3.225 HEAT: -453.9204
 CYCLE:    55 TIME:   1.043 TIME LEFT:  2.00D  GRAD.:     4.350 HEAT: -453.9195
 CYCLE:    56 TIME:   0.344 TIME LEFT:  2.00D  GRAD.:     2.792 HEAT: -453.9261
 CYCLE:    57 TIME:   1.000 TIME LEFT:  2.00D  GRAD.:     6.657 HEAT: -453.9190
 CYCLE:    58 TIME:   0.359 TIME LEFT:  2.00D  GRAD.:     5.047 HEAT: -453.9265
 CYCLE:    59 TIME:   1.340 TIME LEFT:  2.00D  GRAD.:     2.200 HEAT: -453.9332
 CYCLE:    60 TIME:   0.344 TIME LEFT:  2.00D  GRAD.:     3.570 HEAT: -453.9324
 CYCLE:    61 TIME:   0.422 TIME LEFT:  2.00D  GRAD.:     2.335 HEAT: -453.9372
 CYCLE:    62 TIME:   0.340 TIME LEFT:  2.00D  GRAD.:     5.228 HEAT: -453.9336
 CYCLE:    63 TIME:   0.359 TIME LEFT:  2.00D  GRAD.:     2.530 HEAT: -453.9411
 CYCLE:    64 TIME:   0.375 TIME LEFT:  2.00D  GRAD.:     6.569 HEAT: -453.9315
 CYCLE:    65 TIME:   0.344 TIME LEFT:  2.00D  GRAD.:     2.533 HEAT: -453.9435
 CYCLE:    66 TIME:   0.719 TIME LEFT:  2.00D  GRAD.:     6.682 HEAT: -453.9350
[...]
  C(ATOM     20  C   TYR A   2)   2.72563095 +1    0.6541965 +1    1.6600133 +1
  H(ATOM     21 1HB  TYR A   2)   4.51547272 +1    1.8183829 +1   -1.0713539 +1
  H(ATOM     22 2HB  TYR A   2)   5.03374654 +1    1.5117269 +1    0.5866200 +1
  C(ATOM     23  CG  TYR A   2)   4.64210133 +1   -0.2665962 +1   -0.5932994 +1
  O(ATOM     24  O   TYR A   2)   2.68637552 +1    1.3373241 +1    2.6654593 +1
  C(ATOM     25  CD1 TYR A   2)   5.59186270 +1   -1.0153365 +1    0.1065358 +1
  C(ATOM     26  CD2 TYR A   2)   3.96223803 +1   -0.8352022 +1   -1.6758393 +1
  H(ATOM     27  HD1 TYR A   2)   6.11359778 +1   -0.5757147 +1    0.9540143 +1
  C(ATOM     28  CE1 TYR A   2)   5.87296200 +1   -2.3237879 +1   -0.2647988 +1
  C(ATOM     29  CE2 TYR A   2)   4.22141085 +1   -2.1424291 +1   -2.0603018 +1
  H(ATOM     30  HD2 TYR A   2)   3.21980081 +1   -0.2477162 +1   -2.2260692 +1
  H(ATOM     31  HE1 TYR A   2)   6.60180313 +1   -2.9235084 +1    0.2686464 +1
  C(ATOM     32  CZ  TYR A   2)   5.18605814 +1   -2.8745263 +1   -1.3554409 +1
  H(ATOM     33  HE2 TYR A   2)   3.69124545 +1   -2.5897486 +1   -2.8975524 +1
  O(ATOM     34  OH  TYR A   2)   5.53032707 +1   -4.1292790 +1   -1.6977517 +1
  H(ATOM     35  HH  TYR A   2)   4.87826951 +1   -4.5505537 +1   -2.3381676 +1
  N(ATOM     36  N   HIS A   3)   2.59438104 +1   -0.7101793 +1    1.6765409 +1
  H(ATOM     37  H   HIS A   3)   2.72848092 +1   -1.2649034 +1    0.8330683 +1
  C(ATOM     38  CA  HIS A   3)   2.26522420 +1   -1.4266244 +1    2.9147875 +1
  H(ATOM     39  HA  HIS A   3)   3.11374029 +1   -1.2978387 +1    3.6457472 +1
  C(ATOM     40  CB  HIS A   3)   0.96685763 +1   -0.8930850 +1    3.5793058 +1
  C(ATOM     41  C   HIS A   3)   2.12911492 +1   -2.9386035 +1    2.6113276 +1
  H(ATOM     42 1HB  HIS A   3)   0.80701568 +1   -1.4287984 +1    4.5411536 +1
  H(ATOM     43 2HB  HIS A   3)   1.11426863 +1    0.1767613 +1    3.8592430 +1
  C(ATOM     44  CG  HIS A   3)  -0.21608773 +1   -1.0406986 +1    2.7059508 +1
  O(ATOM     45  O   HIS A   3)   2.73105909 +1   -3.7622532 +1    3.2618700 +1
  N(ATOM     46  ND1 HIS A   3)  -1.33314049 +1   -1.7719349 +1    3.0666004 +1
  C(ATOM     47  CD2 HIS A   3)  -0.34937185 +1   -0.6500423 +1    1.3615003 +1
  C(ATOM     48  CE1 HIS A   3)  -2.09246079 +1   -1.8673651 +1    1.9456922 +1
  N(ATOM     49  NE2 HIS A   3)  -1.51655996 +1   -1.2194832 +1    0.8644207 +1
  H(ATOM     50  HD2 HIS A   3)   0.28955971 +1   -0.0383478 +1    0.7596590 +1
  H(ATOM     51  HE1 HIS A   3)  -3.02712822 +1   -2.3883981 +1    1.8975324 +1
  N(ATOM     52  N   CYS A   4)   1.30338726 +1   -3.2811282 +1    1.5453572 +1
  H(ATOM     53  H   CYS A   4)   0.70586240 +1   -2.5538679 +1    1.1458926 +1
  C(ATOM     54  CA  CYS A   4)   0.94415081 +1   -4.5813149 +1    1.2582009 +1
  H(ATOM     55  HA  CYS A   4)   1.60140478 +1   -5.3858602 +1    1.5466791 +1
  C(ATOM     56  CB  CYS A   4)  -0.37484877 +1   -4.8297159 +1    0.6486197 +1
  C(ATOM     57  C   CYS A   4)   4.32300000 -1   99.2218605 +1   91.1358760 +1    54    52    56
  H(ATOM     58 1HB  CYS A   4)  -0.54360238 +1   -5.9143581 +1    0.5012871 +1
  H(ATOM     59 2HB  CYS A   4)  -1.18413972 +1   -4.4647154 +1    1.3169620 +1
  S(ATOM     60  SG  CYS A   4)  -0.60661159 +1   -4.0350920 +1   -1.0059955 +1
  O(ATOM     61  O   CYS A   4)   3.59658247 +1   -5.1814595 +1   -3.2419960 +1
  O(ATOM     62  OXT CYS A   4)   1.35372758 +1   -5.2729559 +1   -2.8110797 +1
  C(ATOM     63  C   GLY B   5)   0.05409987 +1    5.3334314 +1    0.9732530 +1
  C(ATOM     64  CA  GLY B   5)  -0.94134098 +1    4.3236035 +1    0.3938759 +1
  O(ATOM     65  O   GLY B   5)  -0.28048299 +1    6.0936734 +1    1.8593074 +1
  N(ATOM     66  N   CYS B   7)  -1.13133856 +1    4.5149935 +1   -1.0373205 +1
  H(ATOM     67 1HA  GLY B   5)  -1.91053192 +1    4.4407151 +1    0.9458789 +1
  H(ATOM     68 2HA  GLY B   5)  -0.57427089 +1    3.2944620 +1    0.6341323 +1
  H(ATOM     69  H   CYS B   7)  -1.47749124 +1    5.4275478 +1   -1.3180135 +1
  C(ATOM     70  C   CYS C   7)  -1.32644839 +1    3.4693514 +1   -1.9416883 +1
  C(ATOM     71  CA  CYS C   7)  -1.04958750 +1    2.0223054 +1   -1.5045042 +1
  O(ATOM     72  O   CYS C   7)  -1.60504330 +1    3.7685102 +1   -3.0821940 +1
  N(ATOM     73  N   HIS C   9)  -1.97733292 +1    1.6258888 +1   -0.4354001 +1
  H(ATOM     74  HA  CYS C   7)   0.00447925 +1    1.9721808 +1   -1.0971065 +1
  C(ATOM     75  CB  CYS C   7)  -1.17888149 +1    1.0850066 +1   -2.7142058 +1
  H(ATOM     76  H   HIS C   9)  -1.67031408 +1    0.8104015 +1    0.1011446 +1
  H(ATOM     77 1HB  CYS C   7)  -2.22261279 +1    1.0077638 +1   -3.0539103 +1
  H(ATOM     78 2HB  CYS C   7)  -0.62030267 +1    1.5119554 +1   -3.5752766 +1
  S(ATOM     79  SG  CYS C   7)  -0.43530791 +1   -0.5734584 +1   -2.4306599 +1
  C(ATOM     80  C   HIS D   9)  -3.33761534 +1    1.8183390 +1   -0.6019361 +1
  C(ATOM     81  CA  HIS D   9)  -4.22314499 +1    0.7113507 +1    0.0147559 +1
  O(ATOM     82  O   HIS D   9)  -3.80881851 +1    2.7405874 +1   -1.2269578 +1
  N(ATOM     83  N   HET D   9)  -5.35383813 +1    1.3179372 +1    0.6879283 +1
  H(ATOM     84  HA  HIS D   9)  -3.63150974 +1    0.0772180 +1    0.7328236 +1
  C(ATOM     85  CB  HIS D   9)  -4.66333055 +1   -0.1425503 +1   -1.2100798 +1
  H(ATOM     86  H   HET D   9)  -5.79272776 +1    2.1051009 +1    0.2162719 +1
  H(ATOM     87 1HB  HIS D   9)  -5.66639110 +1    0.1955758 +1   -1.5536055 +1
  H(ATOM     88 2HB  HIS D   9)  -3.99862665 +1    0.0595237 +1   -2.0876595 +1
  C(ATOM     89  CG  HIS D   9)  -4.67114394 +1   -1.5867027 +1   -0.9153197 +1
  N(ATOM     90  ND1 HIS D   9)  -3.53748357 +1   -2.3957336 +1   -1.0323562 +1
  C(ATOM     91  CD2 HIS D   9)  -5.75738335 +1   -2.3823717 +1   -0.5501900 +1
  C(ATOM     92  CE1 HIS D   9)  -3.92263587 +1   -3.6622990 +1   -0.7603153 +1
  N(ATOM     93  NE2 HIS D   9)  -5.27627625 +1   -3.6884727 +1   -0.4548537 +1
  H(ATOM     94  HD2 HIS D   9)  -6.77659756 +1   -2.1185699 +1   -0.3632724 +1
  H(ATOM     95  HE1 HIS D   9)  -3.29355450 +1   -4.5486708 +1   -0.7885339 +1
  C(ATOM     96  C1  HET D   9)  -5.87056542 +1    0.8834242 +1    1.8983767 +1
  C(ATOM     97  C2  HET D   9)  -5.20375484 +1   -0.2474124 +1    2.6203253 +1
  H(ATOM     98 1H2  HET D   9)  -5.18644987 +1   -1.1705823 +1    2.0279819 +1
  H(ATOM     99 2H2  HET D   9)  -4.16296978 +1   -0.0100566 +1    2.9034202 +1
  H(ATOM    100 3H2  HET D   9)  -5.73718756 +1   -0.4669443 +1    3.5588614 +1
  O(ATOM    101  O   HET D   9)  -6.85904332 +1    1.4517401 +1    2.3230423 +1
 Zn(HETATM  102 ZN    ZN E  18)  -1.54096716 +1   -1.8610987 +1   -1.0185200 +1
  H(ATOM    103  HXT CYS A   4)   0.66113411 +1   -4.7429078 +1   -2.0957759 +1
  H(ATOM    104  HE2 HIS D   9)  -5.81882039 +1   -4.4885794 +1   -0.2228573 +1
 

          Geometry optimization using EF

          DIAGONAL MATRIX USED AS START HESSIAN

 CYCLE:     1 TIME:   0.887 TIME LEFT:  1.99D  GRAD.:   996.802 HEAT: -432.6270
 CYCLE:     2 TIME:   3.449 TIME LEFT:  1.99D  GRAD.:   124.975 HEAT: -438.4397
 CYCLE:     3 TIME:   0.965 TIME LEFT:  1.99D  GRAD.:    48.860 HEAT: -438.6521
 CYCLE:     4 TIME:   0.484 TIME LEFT:  1.99D  GRAD.:    72.707 HEAT: -438.7073
 CYCLE:     5 TIME:   0.516 TIME LEFT:  1.99D  GRAD.:    19.993 HEAT: -438.7661
 CYCLE:     6 TIME:   0.375 TIME LEFT:  1.99D  GRAD.:    41.362 HEAT: -438.7805
 CYCLE:     7 TIME:   0.359 TIME LEFT:  1.99D  GRAD.:    23.012 HEAT: -438.8084
 CYCLE:     8 TIME:   0.715 TIME LEFT:  1.99D  GRAD.:    13.424 HEAT: -438.8452
 CYCLE:     9 TIME:   0.781 TIME LEFT:  1.99D  GRAD.:    14.388 HEAT: -438.8570
 CYCLE:    10 TIME:   0.375 TIME LEFT:  1.99D  GRAD.:     9.496 HEAT: -438.8687
 CYCLE:    11 TIME:   0.344 TIME LEFT:  1.99D  GRAD.:    20.708 HEAT: -438.8765
 CYCLE:    12 TIME:   0.559 TIME LEFT:  1.99D  GRAD.:    10.808 HEAT: -438.8872
 CYCLE:    13 TIME:   1.078 TIME LEFT:  1.99D  GRAD.:    14.208 HEAT: -438.8950
 CYCLE:    14 TIME:   0.375 TIME LEFT:  1.99D  GRAD.:     7.236 HEAT: -438.9011
 CYCLE:    15 TIME:   0.344 TIME LEFT:  1.99D  GRAD.:     8.517 HEAT: -438.9052
 CYCLE:    16 TIME:   0.359 TIME LEFT:  1.99D  GRAD.:    16.402 HEAT: -438.9119
 CYCLE:    17 TIME:   0.699 TIME LEFT:  1.99D  GRAD.:    11.278 HEAT: -438.9183
 CYCLE:    18 TIME:   0.734 TIME LEFT:  1.99D  GRAD.:    17.891 HEAT: -438.9198
 CYCLE:    19 TIME:   0.359 TIME LEFT:  1.99D  GRAD.:     2.820 HEAT: -438.9261
 CYCLE:    20 TIME:   0.359 TIME LEFT:  1.99D  GRAD.:     5.428 HEAT: -438.9311
 CYCLE:    21 TIME:   1.168 TIME LEFT:  1.99D  GRAD.:    11.712 HEAT: -438.9369
 CYCLE:    22 TIME:   0.375 TIME LEFT:  1.99D  GRAD.:    11.683 HEAT: -438.9502
 CYCLE:    23 TIME:   1.047 TIME LEFT:  1.99D  GRAD.:     6.036 HEAT: -438.9556
 CYCLE:    24 TIME:   0.355 TIME LEFT:  1.99D  GRAD.:     5.256 HEAT: -438.9611
 CYCLE:    25 TIME:   1.625 TIME LEFT:  1.99D  GRAD.:     7.048 HEAT: -438.9631
 CYCLE:    26 TIME:   0.391 TIME LEFT:  1.99D  GRAD.:     2.816 HEAT: -438.9669
 CYCLE:    27 TIME:   0.438 TIME LEFT:  1.99D  GRAD.:     8.935 HEAT: -438.9648
 CYCLE:    28 TIME:   1.418 TIME LEFT:  1.99D  GRAD.:     2.706 HEAT: -438.9712
 CYCLE:    29 TIME:   0.359 TIME LEFT:  1.99D  GRAD.:     5.244 HEAT: -438.9718
 CYCLE:    30 TIME:   2.074 TIME LEFT:  1.99D  GRAD.:     2.742 HEAT: -438.9740
 CYCLE:    31 TIME:   0.375 TIME LEFT:  1.99D  GRAD.:     1.930 HEAT: -438.9755
 CYCLE:    32 TIME:   1.137 TIME LEFT:  1.99D  GRAD.:     3.571 HEAT: -438.9773
 CYCLE:    33 TIME:   2.668 TIME LEFT:  1.99D  GRAD.:     2.212 HEAT: -438.9785
 CYCLE:    34 TIME:   2.637 TIME LEFT:  1.99D  GRAD.:     1.077 HEAT: -438.9793
 CYCLE:    35 TIME:   3.805 TIME LEFT:  1.99D  GRAD.:     0.813 HEAT: -438.9796

     GRADIENT =  0.81323 IS LESS THAN CUTOFF =  1.00000



          VARIABLE        FUNCTION
 :         4.42300     -438.979630
*REMARK   3 HET = Not identified; C 2 H 3 N O        =     7 atoms  res:   17
*REMARK   3  ZN = Isolated element                                  res:   18
 charge=-1 html step=0.1 points=30 UHF
 Stretch C-C bond in 30 steps of 0.1 Angstroms each

  N(ATOM      1  N   GLY A   5)   1.39526806 +1    5.2583147 +1    0.6226015 +1
  C(ATOM      2  CW1 VAL A   1)   2.33330930 +1    6.1941563 +1    1.2852044 +1
  C(ATOM      3  CF1 VAL A   1)   1.88173181 +1    4.8752674 +1   -0.7073723 +1
  H(ATOM      4 1HW1 VAL A   1)   2.53843171 +1    5.8212493 +1    2.3109814 +1
  H(ATOM      5 2HW1 VAL A   1)   1.87844626 +1    7.2020232 +1    1.3945015 +1
  C(ATOM      6  CY1 VAL A   1)   3.59777177 +1    6.2254675 +1    0.4076813 +1
  C(ATOM      7  CC1 VAL A   1)   3.14405582 +1    5.7269509 +1   -0.9726591 +1
  H(ATOM      8  HF1 VAL A   1)   1.10738866 +1    5.0630195 +1   -1.5009246 +1
  C(ATOM      9  CC2 VAL A   1)   2.26665748 +1    3.3901641 +1   -0.7970308 +1
  H(ATOM     10 1HY1 VAL A   1)   4.38159054 +1    5.5686009 +1    0.8242624 +1
  H(ATOM     11 2HY1 VAL A   1)   4.03230162 +1    7.2346934 +1    0.3570776 +1
  H(ATOM     12 1HC1 VAL A   1)   3.93070008 +1    5.1489331 +1   -1.4872411 +1
  H(ATOM     13 2HC1 VAL A   1)   2.90489341 +1    6.5712651 +1   -1.6417156 +1
  O(ATOM     14  OY2 VAL A   1)   2.38627473 +1    2.8739801 +1   -1.8927376 +1
  N(ATOM     15  NC2 VAL A   1)   2.45914757 +1    2.6769918 +1    0.3550150 +1
  H(ATOM     16  HC2 VAL A   1)   2.42264133 +1    3.1012536 +1    1.2765457 +1
  C(ATOM     17  CA  TYR A   2)   2.88077714 +1    1.2772184 +1    0.2602567 +1
  H(ATOM     18  HA  TYR A   2)   2.20989864 +1    0.7579052 +1   -0.4899647 +1
  C(ATOM     19  CB  TYR A   2)   4.34906415 +1    1.1449367 +1   -0.1994769 +1
  C(ATOM     20  C   TYR A   2)   2.72609093 +1    0.6537665 +1    1.6596943 +1
  H(ATOM     21 1HB  TYR A   2)   4.51637134 +1    1.8184058 +1   -1.0710634 +1
  H(ATOM     22 2HB  TYR A   2)   5.03473768 +1    1.5105398 +1    0.5865237 +1
  C(ATOM     23  CG  TYR A   2)   4.64233827 +1   -0.2670743 +1   -0.5949545 +1
  O(ATOM     24  O   TYR A   2)   2.68644007 +1    1.3375331 +1    2.6647199 +1
  C(ATOM     25  CD1 TYR A   2)   5.59117772 +1   -1.0185872 +1    0.1031580 +1
  C(ATOM     26  CD2 TYR A   2)   3.96175698 +1   -0.8328961 +1   -1.6784733 +1
  H(ATOM     27  HD1 TYR A   2)   6.11425820 +1   -0.5807563 +1    0.9509238 +1
  C(ATOM     28  CE1 TYR A   2)   5.86965295 +1   -2.3273979 +1   -0.2698242 +1
  C(ATOM     29  CE2 TYR A   2)   4.21857870 +1   -2.1399948 +1   -2.0646947 +1
  H(ATOM     30  HD2 TYR A   2)   3.22018887 +1   -0.2436316 +1   -2.2278040 +1
  H(ATOM     31  HE1 TYR A   2)   6.59871649 +1   -2.9279922 +1    0.2625021 +1
  C(ATOM     32  CZ  TYR A   2)   5.18023326 +1   -2.8758780 +1   -1.3600585 +1
  H(ATOM     33  HE2 TYR A   2)   3.68838665 +1   -2.5844089 +1   -2.9033634 +1
  O(ATOM     34  OH  TYR A   2)   5.51722023 +1   -4.1328788 +1   -1.7025965 +1
  H(ATOM     35  HH  TYR A   2)   4.87457745 +1   -4.5452860 +1   -2.3555650 +1
  N(ATOM     36  N   HIS A   3)   2.59537337 +1   -0.7106252 +1    1.6778845 +1
  H(ATOM     37  H   HIS A   3)   2.72767852 +1   -1.2667441 +1    0.8352412 +1
  C(ATOM     38  CA  HIS A   3)   2.26571142 +1   -1.4236250 +1    2.9179837 +1
  H(ATOM     39  HA  HIS A   3)   3.11410690 +1   -1.2921093 +1    3.6486144 +1
  C(ATOM     40  CB  HIS A   3)   0.96633998 +1   -0.8898008 +1    3.5807822 +1
  C(ATOM     41  C   HIS A   3)   2.12938276 +1   -2.9364634 +1    2.6204739 +1
  H(ATOM     42 1HB  HIS A   3)   0.80606935 +1   -1.4258912 +1    4.5424784 +1
  H(ATOM     43 2HB  HIS A   3)   1.11324198 +1    0.1798952 +1    3.8605370 +1
  C(ATOM     44  CG  HIS A   3)  -0.21647426 +1   -1.0381306 +1    2.7071137 +1
  O(ATOM     45  O   HIS A   3)   2.73512158 +1   -3.7576599 +1    3.2708385 +1
  N(ATOM     46  ND1 HIS A   3)  -1.33315325 +1   -1.7699959 +1    3.0680906 +1
  C(ATOM     47  CD2 HIS A   3)  -0.34997316 +1   -0.6486265 +1    1.3623229 +1
  C(ATOM     48  CE1 HIS A   3)  -2.09214817 +1   -1.8669522 +1    1.9471222 +1
  N(ATOM     49  NE2 HIS A   3)  -1.51664888 +1   -1.2194395 +1    0.8653906 +1
  H(ATOM     50  HD2 HIS A   3)   0.28845331 +1   -0.0368780 +1    0.7600777 +1
  H(ATOM     51  HE1 HIS A   3)  -3.02625323 +1   -2.3890903 +1    1.8990530 +1
  N(ATOM     52  N   CYS A   4)   1.29682581 +1   -3.2832862 +1    1.5616960 +1
  H(ATOM     53  H   CYS A   4)   0.70103800 +1   -2.5570191 +1    1.1577419 +1
  C(ATOM     54  CA  CYS A   4)   0.93166205 +1   -4.5840952 +1    1.2869885 +1
  H(ATOM     55  HA  CYS A   4)   1.58662933 +1   -5.3886256 +1    1.5804647 +1
  C(ATOM     56  CB  CYS A   4)  -0.37804472 +1   -4.8310817 +1    0.6569714 +1
  C(ATOM     57  C   CYS A   4)   4.42300000 -1   98.3184893 +1   89.4488372 +1    54    52    56
  H(ATOM     58 1HB  CYS A   4)  -0.54494816 +1   -5.9154374 +1    0.5065875 +1
  H(ATOM     59 2HB  CYS A   4)  -1.19646862 +1   -4.4658007 +1    1.3138798 +1
  S(ATOM     60  SG  CYS A   4)  -0.58790320 +1   -4.0348742 +1   -1.0017552 +1
  O(ATOM     61  O   CYS A   4)   3.60977481 +1   -5.1818696 +1   -3.2857251 +1
  O(ATOM     62  OXT CYS A   4)   1.36650081 +1   -5.2745647 +1   -2.8407705 +1
  C(ATOM     63  C   GLY B   5)   0.05368696 +1    5.3341140 +1    0.9732960 +1
  C(ATOM     64  CA  GLY B   5)  -0.94108255 +1    4.3237137 +1    0.3939657 +1
  O(ATOM     65  O   GLY B   5)  -0.28139105 +1    6.0952549 +1    1.8583324 +1
  N(ATOM     66  N   CYS B   7)  -1.13065804 +1    4.5149779 +1   -1.0373052 +1
  H(ATOM     67 1HA  GLY B   5)  -1.91046702 +1    4.4403140 +1    0.9457042 +1
  H(ATOM     68 2HA  GLY B   5)  -0.57330470 +1    3.2948485 +1    0.6342997 +1
  H(ATOM     69  H   CYS B   7)  -1.47597861 +1    5.4276726 +1   -1.3183190 +1
  C(ATOM     70  C   CYS C   7)  -1.32567475 +1    3.4692474 +1   -1.9416358 +1
  C(ATOM     71  CA  CYS C   7)  -1.04902885 +1    2.0222095 +1   -1.5040756 +1
  O(ATOM     72  O   CYS C   7)  -1.60368764 +1    3.7682855 +1   -3.0823106 +1
  N(ATOM     73  N   HIS C   9)  -1.97664361 +1    1.6261888 +1   -0.4347113 +1
  H(ATOM     74  HA  CYS C   7)   0.00504765 +1    1.9722612 +1   -1.0966819 +1
  C(ATOM     75  CB  CYS C   7)  -1.17841606 +1    1.0840708 +1   -2.7131689 +1
  H(ATOM     76  H   HIS C   9)  -1.66963476 +1    0.8105919 +1    0.1017970 +1
  H(ATOM     77 1HB  CYS C   7)  -2.22213103 +1    1.0066494 +1   -3.0527312 +1
  H(ATOM     78 2HB  CYS C   7)  -0.61990755 +1    1.5106568 +1   -3.5744347 +1
  S(ATOM     79  SG  CYS C   7)  -0.43494358 +1   -0.5743983 +1   -2.4289439 +1
  C(ATOM     80  C   HIS D   9)  -3.33693589 +1    1.8181926 +1   -0.6014089 +1
  C(ATOM     81  CA  HIS D   9)  -4.22227088 +1    0.7111620 +1    0.0154333 +1
  O(ATOM     82  O   HIS D   9)  -3.80836230 +1    2.7398429 +1   -1.2271751 +1
  N(ATOM     83  N   HET D   9)  -5.35318058 +1    1.3180664 +1    0.6879590 +1
  H(ATOM     84  HA  HIS D   9)  -3.63076028 +1    0.0772579 +1    0.7337611 +1
  C(ATOM     85  CB  HIS D   9)  -4.66180383 +1   -0.1429199 +1   -1.2095508 +1
  H(ATOM     86  H   HET D   9)  -5.79146646 +1    2.1053720 +1    0.2159934 +1
  H(ATOM     87 1HB  HIS D   9)  -5.66454481 +1    0.1955054 +1   -1.5536269 +1
  H(ATOM     88 2HB  HIS D   9)  -3.99649387 +1    0.0590974 +1   -2.0866243 +1
  C(ATOM     89  CG  HIS D   9)  -4.66977876 +1   -1.5871602 +1   -0.9150506 +1
  N(ATOM     90  ND1 HIS D   9)  -3.53621859 +1   -2.3964706 +1   -1.0317148 +1
  C(ATOM     91  CD2 HIS D   9)  -5.75644917 +1   -2.3827417 +1   -0.5508324 +1
  C(ATOM     92  CE1 HIS D   9)  -3.92175223 +1   -3.6629483 +1   -0.7600436 +1
  N(ATOM     93  NE2 HIS D   9)  -5.27566172 +1   -3.6889357 +1   -0.4554062 +1
  H(ATOM     94  HD2 HIS D   9)  -6.77585734 +1   -2.1188739 +1   -0.3645461 +1
  H(ATOM     95  HE1 HIS D   9)  -3.29223630 +1   -4.5488646 +1   -0.7876727 +1
  C(ATOM     96  C1  HET D   9)  -5.87124986 +1    0.8837963 +1    1.8979375 +1
  C(ATOM     97  C2  HET D   9)  -5.20522626 +1   -0.2467952 +1    2.6209582 +1
  H(ATOM     98 1H2  HET D   9)  -5.18778187 +1   -1.1703248 +1    2.0291844 +1
  H(ATOM     99 2H2  HET D   9)  -4.16452335 +1   -0.0095049 +1    2.9044239 +1
  H(ATOM    100 3H2  HET D   9)  -5.73927599 +1   -0.4655177 +1    3.5593927 +1
  O(ATOM    101  O   HET D   9)  -6.85998113 +1    1.4524193 +1    2.3216801 +1
 Zn(HETATM  102 ZN    ZN E  18)  -1.53759551 +1   -1.8664802 +1   -1.0164271 +1
  H(ATOM    103  HXT CYS A   4)   0.68553144 +1   -4.7448741 +1   -2.1219550 +1
  H(ATOM    104  HE2 HIS D   9)  -5.81857896 +1   -4.4888857 +1   -0.2236132 +1
 

                POINTS ON REACTION PATH 
                AND CORRESPONDING HEATS


       1.52300000       1.62300000       1.72300000       1.82300000       1.92300000       2.02300000       2.12300000       2.22300000
    -475.15180270    -472.66236049    -467.42743938    -460.89565784    -454.61667770    -448.33122454    -442.00700006    -436.25085055
       2.32300000       2.42300000       2.52300000       2.62300000       2.72300000       2.82300000       2.92300000       3.02300000
    -432.30987967    -429.93114222    -428.47285311    -433.08984724    -433.19391628    -433.16895477    -433.21258365    -433.26676139
       3.12300000       3.22300000       3.32300000       3.42300000       3.52300000       3.62300000       3.72300000       3.82300000
    -433.18826610    -433.31569743    -433.33000825    -433.30404498    -433.24037342    -433.14008454    -439.54643642    -439.55690173
       3.92300000       4.02300000       4.12300000       4.22300000       4.32300000       4.42300000
    -439.49472616    -438.84190189    -439.09772547    -438.42418644    -439.25451895    -438.97962977

 **********************
 *                    *
 * JOB ENDED NORMALLY *
 *                    *
 **********************



 TOTAL JOB TIME:           898.41 SECONDS

 == MOPAC DONE ==
