 *******************************************************************************
 ** Site#: 29054        For non-commercial use only    Version 18.027W 64BITS **
 *******************************************************************************
 ** Cite this program as: MOPAC2016, Version: 18.027W, James J. P. Stewart,   **
 ** Stewart Computational Chemistry, web: HTTP://OpenMOPAC.net. Days left: 365**
 *******************************************************************************
 **                                                                           **
 **                                MOPAC2016                                  **
 **                                                                           **
 *******************************************************************************

                              PM7 CALCULATION RESULTS


 *******************************************************************************
 *  CALCULATION DONE:                                Sat Jan 27 22:27:42 2018  *
 *  FORCE      - FORCE CALCULATION SPECIFIED
 *  T=         - A TIME OF 172800.0 SECONDS REQUESTED
 *  DUMP=N     - RESTART FILE WRITTEN EVERY  7200.000 SECONDS
 *  ISOTOPE    - FORCE MATRIX WRITTEN TO DISK (CHAN. 9 )
 *******************************************************************************
  force isotope
  Ethanol plus acetic acid

   ATOM   CHEMICAL          X               Y               Z
  NUMBER   SYMBOL      (ANGSTROMS)     (ANGSTROMS)     (ANGSTROMS)
 
     1       C         -0.81179410  *  -1.08735508  *  -0.32643053  *
     2       C         -2.00870249  *  -1.26150139  *   0.53797881  *
     3       O         -0.08047343  *   0.21571775  *   0.30364701  *
     4       O         -0.03342473  *  -1.87200137  *  -0.80658588  *
     5       C          1.34049093  *   0.20188983  *   0.25416769  *
     6       C          1.80482720  *   1.64365401  *   0.40079415  *
     7       H         -1.73361973  *  -1.24288543  *   1.60452487  *
     8       H         -2.75645562  *  -0.46746734  *   0.37725228  *
     9       H         -2.49290837  *  -2.22774499  *   0.32360115  *
    10       H          1.65445460  *  -0.43604863  *   1.10029914  *
    11       H          1.68103800  *  -0.26430741  *  -0.68953787  *
    12       H          1.56505737  *   2.24644439  *  -0.48141252  *
    13       H          1.32516659  *   2.12357453  *   1.26537240  *
    14       H          2.88930404  *   1.69593960  *   0.55431893  *
    15       O         -1.29367170  *   0.00928118  *  -1.43927136  *
    16       H         -0.58211625  *   0.81640018  *  -0.70388505  *
    17       H         -0.84072909  *  -0.14238146  *  -2.27974949  *
 


          CARTESIAN COORDINATES 

    NO.       ATOM           X           Y           Z

     1         C         -0.8118     -1.0874     -0.3264
     2         C         -2.0087     -1.2615      0.5380
     3         O         -0.0805      0.2157      0.3036
     4         O         -0.0334     -1.8720     -0.8066
     5         C          1.3405      0.2019      0.2542
     6         C          1.8048      1.6437      0.4008
     7         H         -1.7336     -1.2429      1.6045
     8         H         -2.7565     -0.4675      0.3773
     9         H         -2.4929     -2.2277      0.3236
    10         H          1.6545     -0.4360      1.1003
    11         H          1.6810     -0.2643     -0.6895
    12         H          1.5651      2.2464     -0.4814
    13         H          1.3252      2.1236      1.2654
    14         H          2.8893      1.6959      0.5543
    15         O         -1.2937      0.0093     -1.4393
    16         H         -0.5821      0.8164     -0.7039
    17         H         -0.8407     -0.1424     -2.2797

 General Reference for PM7:
 "Optimization of Parameters for Semiempirical Methods VI: More Modifications to the 
 NDDO Approximations and Re-optimization of Parameters", J. J. P. Stewart, J. Mol. Mod., 1:32, 19 (2013)
 http://www.springerlink.com/openurl.asp?genre=article&id=doi:10.1007/s00894-012-1667-x

           Empirical Formula: C4 H10 O3  =    17 atoms



      MOLECULAR POINT GROUP   :   C1  


      RHF CALCULATION, NO. OF DOUBLY OCCUPIED LEVELS = 22



          HEAT OF FORMATION =    -128.577725 KCALS/MOLE


          CARTESIAN COORDINATE DERIVATIVES

   NUMBER  ATOM         X            Y            Z

     1       C      0.190355     0.627338    -0.631263
     2       C      0.177095    -0.221595     0.121604
     3       O      0.184667    -0.187853    -0.453465
     4       O      0.154206    -0.124057    -0.229474
     5       C      0.034058    -0.079190    -0.083401
     6       C     -0.015762    -0.132066     0.039862
     7       H      0.180899     0.057119     0.063061
     8       H     -0.209170    -0.047350    -0.036994
     9       H     -0.146626     0.108778    -0.039582
    10       H     -0.201116    -0.143500     0.070596
    11       H     -0.199515    -0.108034     0.257447
    12       H     -0.038397     0.101894    -0.088906
    13       H      0.087238     0.038641     0.000817
    14       H      0.066445     0.047015     0.041742
    15       O     -0.248657     0.436165     0.349457
    16       H      0.102509    -0.592426     0.656581
    17       H     -0.118234     0.219119    -0.038085
 


          GRADIENT NORM =   1.70220


          TIME FOR SCF CALCULATION =    0.02

          TIME FOR DERIVATIVES     =    0.00

          MOLECULAR WEIGHT =  106.12



          ROTATIONAL CONSTANTS IN CM(-1)

          A =    0.14871314   B =    0.05373872   C =    0.05277737



           PRINCIPAL MOMENTS OF INERTIA IN UNITS OF 10**(-40)*GRAM-CM**2

          A =      188.2334   B =      520.9051   C =      530.3935


          ORIENTATION OF MOLECULE IN FORCE CALCULATION

    NO.       ATOM         X         Y         Z

     1          C       0.5292   -0.8914   -0.0485
     2          C       2.0159   -0.8914   -0.0485
     3          O       0.1541    0.6863   -0.0485
     4          O      -0.2847   -1.5639   -0.6293
     5          C      -1.0170    1.0354   -0.7753
     6          C      -1.4745    2.3912   -0.2574
     7          H       2.4124   -0.2283   -0.8338
     8          H       2.4314   -0.5475    0.9130
     9          H       2.3942   -1.9095   -0.2335
    10          H      -0.7031    1.0666   -1.8346
    11          H      -1.7853    0.2487   -0.6541
    12          H      -1.8650    2.3328    0.7639
    13          H      -0.6418    3.1085   -0.2489
    14          H      -2.2645    2.8106   -0.8918
    15          O       0.1417   -0.7455    1.5332
    16          H      -0.0982    0.4876    1.1862
    17          H      -0.6939   -1.1952    1.7181


    FIRST DERIVATIVES WILL BE USED IN THE CALCULATION OF SECOND DERIVATIVES

          ESTIMATED TIME TO COMPLETE CALCULATION =        1.59 SECONDS

    FOR POINT-GROUP C1   THERE ARE   1 UNIQUE SYMMETRY FUNCTIONS.

 STEP:   1 TIME =     0.02 SECS, INTEGRAL =      0.02 TIME LEFT: 172799.97
 STEP:   2 TIME =     0.02 SECS, INTEGRAL =      0.03 TIME LEFT: 172799.95
 STEP:   3 TIME =     0.00 SECS, INTEGRAL =      0.03 TIME LEFT: 172799.95
 STEP:   4 TIME =     0.02 SECS, INTEGRAL =      0.05 TIME LEFT: 172799.94
 STEP:   5 TIME =     0.02 SECS, INTEGRAL =      0.06 TIME LEFT: 172799.92
 STEP:   6 TIME =     0.00 SECS, INTEGRAL =      0.06 TIME LEFT: 172799.92
 STEP:   7 TIME =     0.02 SECS, INTEGRAL =      0.08 TIME LEFT: 172799.91
 STEP:   8 TIME =     0.02 SECS, INTEGRAL =      0.09 TIME LEFT: 172799.89
 STEP:   9 TIME =     0.00 SECS, INTEGRAL =      0.09 TIME LEFT: 172799.89
 STEP:  10 TIME =     0.02 SECS, INTEGRAL =      0.11 TIME LEFT: 172799.88
 STEP:  11 TIME =     0.00 SECS, INTEGRAL =      0.11 TIME LEFT: 172799.88
 STEP:  12 TIME =     0.02 SECS, INTEGRAL =      0.12 TIME LEFT: 172799.86
 STEP:  13 TIME =     0.00 SECS, INTEGRAL =      0.12 TIME LEFT: 172799.86
 STEP:  14 TIME =     0.02 SECS, INTEGRAL =      0.14 TIME LEFT: 172799.84
 STEP:  15 TIME =     0.00 SECS, INTEGRAL =      0.14 TIME LEFT: 172799.84
 STEP:  16 TIME =     0.02 SECS, INTEGRAL =      0.16 TIME LEFT: 172799.83
 STEP:  17 TIME =     0.00 SECS, INTEGRAL =      0.16 TIME LEFT: 172799.83
 STEP:  18 TIME =     0.02 SECS, INTEGRAL =      0.17 TIME LEFT: 172799.81
 STEP:  19 TIME =     0.02 SECS, INTEGRAL =      0.19 TIME LEFT: 172799.80
 STEP:  20 TIME =     0.00 SECS, INTEGRAL =      0.19 TIME LEFT: 172799.80
 STEP:  21 TIME =     0.02 SECS, INTEGRAL =      0.20 TIME LEFT: 172799.78
 STEP:  22 TIME =     0.00 SECS, INTEGRAL =      0.20 TIME LEFT: 172799.78
 STEP:  23 TIME =     0.02 SECS, INTEGRAL =      0.22 TIME LEFT: 172799.77
 STEP:  24 TIME =     0.00 SECS, INTEGRAL =      0.22 TIME LEFT: 172799.77
 STEP:  25 TIME =     0.02 SECS, INTEGRAL =      0.23 TIME LEFT: 172799.75
 STEP:  26 TIME =     0.00 SECS, INTEGRAL =      0.23 TIME LEFT: 172799.75
 STEP:  27 TIME =     0.02 SECS, INTEGRAL =      0.25 TIME LEFT: 172799.73
 STEP:  28 TIME =     0.00 SECS, INTEGRAL =      0.25 TIME LEFT: 172799.73
 STEP:  29 TIME =     0.02 SECS, INTEGRAL =      0.27 TIME LEFT: 172799.72
 STEP:  30 TIME =     0.00 SECS, INTEGRAL =      0.27 TIME LEFT: 172799.72
 STEP:  31 TIME =     0.02 SECS, INTEGRAL =      0.28 TIME LEFT: 172799.70
 STEP:  32 TIME =     0.00 SECS, INTEGRAL =      0.28 TIME LEFT: 172799.70
 STEP:  33 TIME =     0.02 SECS, INTEGRAL =      0.30 TIME LEFT: 172799.69
 STEP:  34 TIME =     0.00 SECS, INTEGRAL =      0.30 TIME LEFT: 172799.69
 STEP:  35 TIME =     0.02 SECS, INTEGRAL =      0.31 TIME LEFT: 172799.67
 STEP:  36 TIME =     0.00 SECS, INTEGRAL =      0.31 TIME LEFT: 172799.67
 STEP:  37 TIME =     0.02 SECS, INTEGRAL =      0.33 TIME LEFT: 172799.66
 STEP:  38 TIME =     0.00 SECS, INTEGRAL =      0.33 TIME LEFT: 172799.66
 STEP:  39 TIME =     0.02 SECS, INTEGRAL =      0.34 TIME LEFT: 172799.64
 STEP:  40 TIME =     0.02 SECS, INTEGRAL =      0.36 TIME LEFT: 172799.62
 STEP:  41 TIME =     0.00 SECS, INTEGRAL =      0.36 TIME LEFT: 172799.62
 STEP:  42 TIME =     0.02 SECS, INTEGRAL =      0.38 TIME LEFT: 172799.61
 STEP:  43 TIME =     0.00 SECS, INTEGRAL =      0.38 TIME LEFT: 172799.61
 STEP:  44 TIME =     0.02 SECS, INTEGRAL =      0.39 TIME LEFT: 172799.59
 STEP:  45 TIME =     0.00 SECS, INTEGRAL =      0.39 TIME LEFT: 172799.59
 STEP:  46 TIME =     0.02 SECS, INTEGRAL =      0.41 TIME LEFT: 172799.58
 STEP:  47 TIME =     0.00 SECS, INTEGRAL =      0.41 TIME LEFT: 172799.58
 STEP:  48 TIME =     0.02 SECS, INTEGRAL =      0.42 TIME LEFT: 172799.56
 STEP:  49 TIME =     0.00 SECS, INTEGRAL =      0.42 TIME LEFT: 172799.56
 STEP:  50 TIME =     0.03 SECS, INTEGRAL =      0.45 TIME LEFT: 172799.53
 STEP:  51 TIME =     0.00 SECS, INTEGRAL =      0.45 TIME LEFT: 172799.53

(To convert to Hartree/Bohr^2, multiply by (10^(-21) x N x a0^2)/(4.184 x 627.51) =  0.0642)


           FORCE MATRIX IN MILLIDYNES/ANGSTROM


                  C  1       C  2       O  3       O  4       C  5       C  6
 ------------------------------------------------------------------------------
     C    1  16.826109
     C    2   3.726876  11.700847
     O    3   1.469064   0.687709   7.849141
     O    4  11.833757   0.917687   1.245373  13.795993
     C    5   0.770856   0.090655   4.148583   0.166760  12.203560
     C    6   0.245196   0.052553   1.120857   0.083207   3.197585  11.539294
     H    7   0.765892   3.384790   0.043746   0.050743   0.016035   0.009778
     H    8   0.766097   3.387649   0.040804   0.051404   0.013095   0.007866
     H    9   0.790251   3.381500   0.038619   0.050388   0.013378   0.005648
     H   10   0.074578   0.014001   0.767611   0.026506   3.304654   0.653424
     H   11   0.113651   0.013291   0.702928   0.066967   3.266719   0.651767
     H   12   0.036520   0.007689   0.035439   0.013615   0.694805   3.442833
     H   13   0.041163   0.009376   0.031769   0.015743   0.703166   3.422114
     H   14   0.027294   0.005207   0.070479   0.011461   0.671801   3.423994
     O   15   1.579582   0.664804   2.213371   1.268246   0.205226   0.064540
     H   16   1.828986   0.224151   1.475206   0.212393   0.564256   0.060042
     H   17   0.763307   0.073945   0.158296   0.176499   0.049233   0.019008


                  H  7       H  8       H  9       H 10       H 11       H 12
 ------------------------------------------------------------------------------
     H    7   4.182147
     H    8   0.449605   4.185361
     H    9   0.446374   0.445938   4.179648
     H   10   0.004290   0.002006   0.001569   4.192120
     H   11   0.002848   0.002531   0.001728   0.444951   4.147777
     H   12   0.001361   0.001705   0.000957   0.047371   0.017617   4.223017
     H   13   0.002769   0.002241   0.001140   0.016150   0.047136   0.461671
     H   14   0.001406   0.000788   0.000836   0.017750   0.014139   0.464615
     O   15   0.045093   0.057451   0.041929   0.039482   0.032874   0.019518
     H   16   0.038949   0.044234   0.023108   0.073789   0.047303   0.032598
     H   17   0.010871   0.010995   0.010791   0.008744   0.010150   0.006521


                  H 13       H 14       O 15       H 16       H 17
 ------------------------------------------------------------------
     H   13   4.210706
     H   14   0.461328   4.212606
     O   15   0.015917   0.009199   6.022617
     H   16   0.026178   0.013544   1.415880   2.594088
     H   17   0.003409   0.002809   4.024278   0.341257   4.512082


          HEAT OF FORMATION =    -128.577725 KCALS/MOLE

          ZERO POINT ENERGY      80.010 KCAL/MOL

         NOTE: SYSTEM IS NOT A GROUND STATE, THEREFORE ZERO POINT
         ENERGY IS NOT MEANINGFULL. ZERO POINT ENERGY PRINTED
         DOES NOT INCLUDE THE  1 IMAGINARY FREQUENCIES


           NORMAL COORDINATE ANALYSIS (Total motion = 1 Angstrom)


   Root No.       1         2         3         4         5         6         7         8

                 1 A       2 A       3 A       4 A       5 A       6 A       7 A       8 A   

               -1073.0      41.0      68.6     129.3     158.0     174.8     288.8     316.3
  
           1   -0.0014   -0.0021   -0.0010    0.0040   -0.0050    0.0064    0.0046   -0.0201
           2   -0.0671   -0.0027    0.0007   -0.0008    0.0069    0.0190   -0.0045    0.0216
           3    0.0825    0.0015   -0.0022   -0.0050    0.0073   -0.0035   -0.0167    0.0046
           4   -0.0001   -0.0022   -0.0012    0.0040   -0.0055    0.0056    0.0048   -0.0162
           5    0.0029   -0.0255    0.0025   -0.0126   -0.0010   -0.0518   -0.0392    0.0341
           6   -0.0017    0.0066    0.0012    0.0237   -0.0224    0.0077    0.0427    0.0302
           7   -0.0050    0.0230   -0.0000    0.0115   -0.0021    0.0240   -0.0455   -0.0106
           8    0.0349    0.0049   -0.0006    0.0042    0.0037    0.0221   -0.0069   -0.0233
           9    0.0187   -0.0300    0.0031   -0.0199    0.0381    0.0145   -0.0057   -0.0089
          10   -0.0003   -0.0105    0.0010    0.0090   -0.0169   -0.0111    0.0096   -0.0353
          11    0.0048   -0.0018    0.0018    0.0028    0.0181    0.0550   -0.0085    0.0509
          12   -0.0057    0.0126   -0.0065   -0.0149    0.0084   -0.0234   -0.0141   -0.0169
          13   -0.0126    0.0295    0.0042   -0.0139    0.0372   -0.0056   -0.0245   -0.0067
          14    0.0102    0.0171    0.0047   -0.0077    0.0106   -0.0277    0.0357   -0.0391
          15   -0.0036   -0.0334   -0.0012    0.0137   -0.0206    0.0297   -0.0208   -0.0321
          16   -0.0041   -0.0317   -0.0011    0.0022   -0.0175   -0.0329   -0.0188    0.0459
          17    0.0030   -0.0334   -0.0010   -0.0021   -0.0076   -0.0190    0.0350   -0.0443
          18   -0.0025    0.0456    0.0092    0.0135   -0.0251   -0.0233   -0.0029    0.0138
          19   -0.0185    0.0114   -0.0075    0.0251   -0.0189    0.0453    0.0652   -0.0061
          20   -0.0010   -0.0234   -0.2146   -0.0230   -0.0004   -0.0787   -0.0511    0.0433
          21   -0.0060    0.0151   -0.1848    0.0257   -0.0288    0.0059    0.0664    0.0448
          22    0.0082   -0.0005   -0.0006   -0.0113    0.0155    0.0166   -0.0290   -0.0426
          23   -0.0015   -0.0417    0.2693   -0.0087   -0.0051   -0.0694   -0.0570    0.0333
          24   -0.0001    0.0118   -0.0952    0.0290   -0.0302    0.0091    0.0660    0.0431
          25    0.0077   -0.0171    0.0008   -0.0013   -0.0140   -0.0454   -0.0201   -0.0012
          26    0.0036   -0.0294   -0.0483   -0.0176   -0.0020   -0.0734   -0.0534    0.0402
          27   -0.0040   -0.0026    0.2847    0.0403   -0.0339    0.0174    0.0650    0.0371
          28    0.0230    0.0577    0.0111   -0.0536    0.1014   -0.0319    0.0033    0.0043
          29   -0.0093    0.0999    0.0158   -0.0224    0.0366   -0.0691    0.0624   -0.0369
          30    0.0076   -0.0225    0.0012    0.0019   -0.0012    0.0206   -0.0120   -0.0274
          31   -0.0004    0.0509    0.0046   -0.0088    0.0373    0.0119   -0.0378   -0.0141
          32   -0.0050   -0.0160    0.0023   -0.0069   -0.0006   -0.0385    0.0445   -0.0327
          33   -0.0040   -0.1071   -0.0139    0.0527   -0.0837    0.0799   -0.0596   -0.0420
          34   -0.0087   -0.0529   -0.0095    0.1751    0.0822   -0.1050   -0.0064    0.0731
          35    0.0040   -0.1147   -0.0120    0.0327   -0.0061    0.0026    0.0255   -0.0662
          36   -0.0011    0.0328    0.0053    0.0819    0.0136   -0.0498    0.0011    0.0241
          37   -0.0062   -0.0593   -0.0017   -0.0340   -0.0746   -0.0312   -0.0191    0.0727
          38    0.0074   -0.0024   -0.0005    0.0413    0.0586   -0.0213    0.0347   -0.0732
          39   -0.0027    0.1095    0.0232   -0.1609   -0.1230    0.0190   -0.0059    0.0162
          40   -0.0064   -0.0341    0.0037   -0.1255   -0.1113    0.0127   -0.0267    0.0437
          41    0.0087   -0.0218    0.0050   -0.0789   -0.0931   -0.0270    0.0392    0.0068
          42    0.0016    0.0560    0.0071    0.1219    0.0347   -0.0865    0.0099    0.0519
          43    0.0147   -0.0051   -0.0014   -0.0152    0.0113    0.0125    0.0615    0.0324
          44   -0.0274    0.0344   -0.0064    0.0125   -0.0230    0.0041   -0.0034   -0.0011
          45   -0.0403   -0.0022   -0.0033   -0.0098    0.0124   -0.0010    0.0062    0.0025
          46    0.0275    0.0176   -0.0061    0.0231   -0.0298    0.0365   -0.0280   -0.0099
          47    0.4352    0.0307   -0.0059    0.0181   -0.0260    0.0156   -0.0259    0.0242
          48   -0.4336   -0.0259    0.0015   -0.0155    0.0291    0.0153   -0.0067   -0.0237
          49    0.0420   -0.0141    0.0007   -0.0276    0.0240    0.0047    0.0975    0.0615
          50   -0.0305    0.0532   -0.0111    0.0334   -0.0481    0.0191   -0.0411   -0.0308
          51   -0.0165    0.0032   -0.0045   -0.0180    0.0135   -0.0026    0.0639    0.0491


   Root No.       9        10        11        12        13        14        15        16

                 9 A      10 A      11 A      12 A      13 A      14 A      15 A      16 A   

                 365.4     440.7     503.4     580.8     631.2     658.6     730.9     871.7
  
           1    0.0115    0.0303    0.0706    0.0260    0.0078   -0.0107   -0.0029    0.0002
           2    0.0353    0.0472   -0.0764   -0.0431   -0.0086    0.0160   -0.0457   -0.0016
           3    0.0307   -0.0027   -0.0145   -0.0668    0.0148   -0.0043    0.0630    0.0011
           4    0.0133    0.0388    0.0665    0.0161    0.0228   -0.0259   -0.0092   -0.0017
           5   -0.0348   -0.0043   -0.0063   -0.0121    0.0009    0.0012   -0.0156   -0.0012
           6   -0.0324    0.0191   -0.0167   -0.0042    0.0078    0.0000    0.0203    0.0010
           7   -0.0399    0.0008   -0.0156   -0.0317   -0.0364   -0.0030   -0.0060    0.0092
           8   -0.0043    0.0218   -0.0105    0.0705   -0.0498    0.0593    0.0366    0.0114
           9    0.0153   -0.0262   -0.0345    0.0617    0.0258   -0.0080   -0.0157   -0.0102
          10    0.0444   -0.0296   -0.0360   -0.0268   -0.0119    0.0175    0.0043    0.0004
          11    0.0154    0.0177    0.0639   -0.0264    0.0144   -0.0143    0.0125    0.0007
          12   -0.0000    0.0994    0.0028    0.0041    0.0043    0.0031   -0.0129    0.0000
          13   -0.0236   -0.0195   -0.0240    0.0038    0.0047   -0.0168    0.0061   -0.0229
          14   -0.0119    0.0020    0.0092   -0.0234   -0.0017   -0.0022   -0.0031   -0.0173
          15   -0.0260   -0.0161   -0.0209   -0.0064    0.0131   -0.0301   -0.0095    0.0254
          16    0.0233   -0.0008   -0.0095    0.0222   -0.0011    0.0063   -0.0032   -0.0090
          17   -0.0110    0.0037    0.0144   -0.0268    0.0041   -0.0114    0.0033   -0.0087
          18    0.0120    0.0032   -0.0004    0.0028   -0.0010   -0.0045    0.0001    0.0087
          19    0.0091    0.0982    0.0156    0.0608   -0.0007   -0.0044   -0.1682   -0.0115
          20   -0.0698   -0.0282    0.0328    0.0136    0.0056   -0.0144    0.0350    0.0025
          21   -0.0629    0.0335   -0.0170    0.0403   -0.0002   -0.0019   -0.0354   -0.0023
          22    0.0871    0.0267    0.0392   -0.0764    0.0340   -0.0126    0.0795    0.0015
          23   -0.0649   -0.0279    0.0423    0.0163    0.0074   -0.0173    0.0379    0.0027
          24   -0.0583    0.0329   -0.0177    0.0353   -0.0024    0.0010   -0.0454   -0.0021
          25   -0.0657   -0.0083    0.1638    0.0853    0.0330   -0.0567    0.0600    0.0056
          26   -0.0626   -0.0258    0.0310    0.0072    0.0077   -0.0151    0.0282    0.0027
          27   -0.0586    0.0354   -0.0099    0.0406    0.0008    0.0043   -0.0504   -0.0028
          28    0.0042   -0.0513   -0.0382    0.0351    0.0704   -0.0164   -0.0552    0.0801
          29   -0.0039    0.0001    0.0235   -0.0405    0.0298   -0.0103   -0.0063    0.1899
          30   -0.0161   -0.0238   -0.0229    0.0039    0.0291   -0.0295   -0.0257    0.0446
          31   -0.0322   -0.0124   -0.0321    0.0120   -0.0206    0.0050    0.0100    0.0398
          32   -0.0046   -0.0002    0.0200   -0.0310    0.0139   -0.0183   -0.0010   -0.0894
          33   -0.0504    0.0087   -0.0180   -0.0122   -0.0619   -0.0174    0.0224   -0.1820
          34    0.0510    0.0095    0.0033    0.0541   -0.0107    0.0390    0.0170    0.0020
          35   -0.0259   -0.0047    0.0011   -0.0473    0.0228   -0.0442   -0.0189    0.1836
          36    0.0225    0.0064    0.0037    0.0153   -0.0053    0.0079    0.0045    0.0107
          37    0.0495    0.0128    0.0022    0.0551   -0.0088    0.0375    0.0123    0.0885
          38   -0.0394   -0.0113   -0.0000   -0.0607    0.0115   -0.0432   -0.0149   -0.1020
          39    0.0101    0.0061    0.0051    0.0112   -0.0125    0.0081    0.0093   -0.1053
          40    0.0213    0.0015   -0.0095    0.0265   -0.0001    0.0079   -0.0000    0.0522
          41    0.0342    0.0265    0.0342    0.0180   -0.0192    0.0483    0.0193    0.0139
          42    0.0465    0.0168    0.0151    0.0355   -0.0198    0.0392    0.0145   -0.0549
          43   -0.0253   -0.0093   -0.0299   -0.0051    0.0195    0.0208    0.0140   -0.0023
          44    0.0212   -0.0581   -0.0207    0.0426    0.0153   -0.0535    0.0034   -0.0013
          45    0.0089   -0.0738    0.0800   -0.0211   -0.0472    0.0360   -0.0314   -0.0000
          46   -0.0805   -0.0576   -0.0087   -0.0755    0.1194    0.1528   -0.0544    0.0106
          47    0.0237   -0.0694   -0.0409   -0.0134    0.0234   -0.0003   -0.1741   -0.0121
          48   -0.0067    0.0033   -0.0664    0.0118    0.0799    0.0267    0.1452    0.0049
          49   -0.0054    0.0046   -0.0760    0.0199   -0.1668   -0.1505    0.0133    0.0137
          50   -0.0320   -0.1442    0.0420    0.0167    0.2798    0.2062   -0.0113   -0.0196
          51   -0.0211   -0.1522   -0.0139   -0.0039   -0.1494   -0.0679    0.0329    0.0213


   Root No.      17        18        19        20        21        22        23        24

                17 A      18 A      19 A      20 A      21 A      22 A      23 A      24 A   

                 978.1     997.3    1045.3    1085.2    1108.0    1127.8    1146.2    1180.3
  
           1   -0.0158   -0.0059   -0.0257    0.0123    0.0245   -0.0351   -0.0038    0.0069
           2    0.0055    0.0000   -0.0049   -0.0270   -0.0214    0.0012   -0.0064   -0.0026
           3    0.0013   -0.0024    0.0013    0.0170   -0.0089    0.0453    0.0132   -0.0034
           4    0.0381    0.0242    0.0498   -0.0158   -0.0261    0.0329    0.0036   -0.0063
           5    0.0075    0.0135    0.0346    0.0291    0.0179   -0.0022   -0.0004    0.0036
           6    0.0041    0.0009    0.0334   -0.0198    0.0070   -0.0349   -0.0110    0.0031
           7    0.0252   -0.0275   -0.0009   -0.0042   -0.0071    0.0042   -0.0168    0.0200
           8   -0.0106    0.0172    0.0118   -0.0056    0.0051    0.0128   -0.0035   -0.0076
           9    0.0195   -0.0163    0.0001   -0.0018   -0.0167   -0.0092   -0.0116    0.0194
          10   -0.0106   -0.0025   -0.0369    0.0032    0.0057   -0.0079    0.0039   -0.0011
          11   -0.0076    0.0001   -0.0293    0.0079    0.0094   -0.0090    0.0049   -0.0005
          12   -0.0039    0.0023   -0.0277   -0.0001    0.0062   -0.0148    0.0006    0.0000
          13   -0.0191    0.0115    0.0027    0.0257   -0.0030   -0.0130   -0.0070   -0.0335
          14    0.0018    0.0002    0.0053   -0.0031   -0.0238   -0.0183    0.0988   -0.0054
          15   -0.0144    0.0108    0.0001   -0.0065    0.0348    0.0066    0.0565    0.0036
          16   -0.0280    0.0299    0.0025   -0.0190    0.0053    0.0106    0.0144    0.0272
          17    0.0132   -0.0134   -0.0077    0.0043    0.0179    0.0155   -0.0907    0.0104
          18   -0.0187    0.0141    0.0019    0.0063   -0.0214   -0.0040   -0.0544   -0.0195
          19    0.0265    0.0532    0.0298    0.1544    0.0072    0.1649    0.0477   -0.0080
          20   -0.0114   -0.0257   -0.0521   -0.0366   -0.0218   -0.0023   -0.0023    0.0004
          21   -0.0124   -0.0102   -0.0444    0.0305   -0.0120    0.0576    0.0167   -0.0022
          22    0.0704    0.0631    0.2427   -0.0478    0.0400   -0.1242   -0.0426    0.0113
          23   -0.0110   -0.0275   -0.0516   -0.0343   -0.0260    0.0129    0.0013    0.0011
          24   -0.0125   -0.0084   -0.0476    0.0244   -0.0084    0.0402    0.0129   -0.0042
          25   -0.0049   -0.0590   -0.1459   -0.1421   -0.1144    0.0693    0.0077   -0.0278
          26   -0.0047   -0.0225   -0.0372   -0.0427   -0.0275    0.0078   -0.0024   -0.0055
          27   -0.0107   -0.0048   -0.0457    0.0288   -0.0082    0.0456    0.0141   -0.0059
          28    0.0235   -0.0065   -0.0222   -0.0585    0.1310    0.0303   -0.0511   -0.1536
          29   -0.0182    0.0108    0.0071    0.0017   -0.0072    0.0075    0.1083    0.1771
          30    0.0026    0.0002   -0.0076   -0.0259    0.0642    0.0152    0.0269   -0.0280
          31    0.0054   -0.0193    0.0128    0.0537   -0.0458   -0.0319    0.0137    0.0825
          32   -0.0138    0.0216   -0.0055   -0.0254    0.0110   -0.0016    0.0562   -0.1153
          33   -0.0024   -0.0093    0.0090    0.0549   -0.0776   -0.0676    0.0575   -0.0363
          34    0.0514   -0.0439   -0.0030    0.0123    0.0325   -0.0014    0.0581   -0.0065
          35   -0.0543    0.0246    0.0162    0.0523   -0.1283   -0.0581   -0.1176   -0.1053
          36    0.0133   -0.0152    0.0000    0.0143   -0.0078   -0.0094   -0.0194   -0.0298
          37    0.0526   -0.0551    0.0045    0.0416   -0.0236   -0.0366    0.0577   -0.0607
          38   -0.0701    0.0734   -0.0074   -0.0562    0.0389    0.0568   -0.1085    0.0958
          39    0.0062    0.0043   -0.0094   -0.0258    0.0592    0.0332   -0.0228    0.0439
          40   -0.0224    0.0168    0.0078    0.0099   -0.0294   -0.0136    0.0097   -0.0211
          41    0.1702   -0.1616   -0.0166    0.0462    0.0410   -0.0176    0.0338   -0.0251
          42    0.1001   -0.0883   -0.0138    0.0086    0.0523    0.0046    0.0263    0.0087
          43   -0.0138   -0.0134    0.0092    0.0043   -0.0044    0.0015   -0.0030    0.0055
          44   -0.0064   -0.0158    0.0114    0.0017    0.0038    0.0036    0.0027   -0.0004
          45   -0.0155   -0.0107    0.0213   -0.0036   -0.0025    0.0049   -0.0010   -0.0023
          46    0.0586    0.0199   -0.0128   -0.0897    0.0620    0.0359    0.0510   -0.1093
          47    0.0094   -0.0109    0.0039   -0.0550   -0.0135   -0.0288   -0.0117   -0.0196
          48    0.0300   -0.0028    0.0074    0.0018    0.0108    0.0752    0.0331   -0.0306
          49    0.0216    0.0092   -0.0070   -0.0243    0.0255   -0.0011    0.0149   -0.0267
          50    0.0609    0.0906   -0.0843    0.0472   -0.0451   -0.0478   -0.0390    0.0610
          51    0.2154    0.2475   -0.1863    0.0095   -0.0042   -0.0464   -0.0072    0.0048


   Root No.      25        26        27        28        29        30        31        32

                25 A      26 A      27 A      28 A      29 A      30 A      31 A      32 A   

                1202.8    1234.3    1261.9    1264.4    1285.8    1292.7    1320.9    1341.8
  
           1   -0.0111    0.0200   -0.0022   -0.0012    0.0012   -0.0015   -0.0026    0.0046
           2    0.0161   -0.0267    0.0007    0.0038   -0.0009    0.0016    0.0000   -0.0062
           3   -0.0055    0.0012    0.0013   -0.0028   -0.0005    0.0002    0.0035    0.0055
           4    0.0113   -0.0164    0.0036    0.0009   -0.0008    0.0006    0.0019   -0.0018
           5   -0.0094    0.0102    0.0023   -0.0384    0.0005   -0.0012    0.0011    0.0042
           6    0.0012   -0.0033   -0.0398   -0.0005    0.0002   -0.0001   -0.0011   -0.0015
           7   -0.0466    0.0064    0.0009   -0.0043    0.0010    0.0029    0.0029   -0.0019
           8    0.0006   -0.0055    0.0002   -0.0009   -0.0005   -0.0024    0.0020   -0.0033
           9   -0.0166    0.0239   -0.0005   -0.0022    0.0009    0.0015   -0.0017   -0.0069
          10   -0.0005    0.0039    0.0001    0.0002    0.0000   -0.0000   -0.0006   -0.0013
          11    0.0003    0.0075   -0.0004   -0.0008    0.0002   -0.0003   -0.0008    0.0010
          12    0.0007    0.0036   -0.0011    0.0001    0.0002   -0.0001   -0.0014   -0.0011
          13    0.0495   -0.0236   -0.0002    0.0016   -0.0018   -0.0074   -0.0203   -0.0407
          14   -0.0240    0.0081    0.0001    0.0000    0.0013    0.0009   -0.0217    0.0349
          15    0.0153   -0.0414    0.0010    0.0011    0.0016   -0.0046   -0.0282   -0.0112
          16   -0.0077    0.0072    0.0001    0.0005   -0.0225   -0.0249    0.0019    0.0191
          17    0.0229   -0.0003   -0.0001    0.0004   -0.0183    0.0016    0.0004   -0.0131
          18   -0.0069    0.0118   -0.0003    0.0008    0.0232   -0.0264    0.0047    0.0044
          19   -0.0288    0.0291   -0.1342    0.0807   -0.0010    0.0010    0.0006    0.0044
          20   -0.0007   -0.0044    0.2330    0.2057   -0.0012    0.0049   -0.0017   -0.0109
          21   -0.0140    0.0090    0.1018    0.2319   -0.0013    0.0050   -0.0022   -0.0093
          22   -0.0017   -0.0039    0.1385    0.0766    0.0004    0.0011   -0.0049   -0.0102
          23   -0.0091   -0.0086   -0.1872    0.3181   -0.0016    0.0069   -0.0056   -0.0159
          24    0.0055   -0.0001   -0.0157   -0.1566    0.0004   -0.0032    0.0043    0.0101
          25    0.0654   -0.0588   -0.0161   -0.1398   -0.0019    0.0005   -0.0008   -0.0072
          26    0.0162   -0.0165   -0.0816   -0.0661   -0.0002   -0.0004   -0.0004   -0.0012
          27    0.0038    0.0091    0.3980   -0.0523   -0.0003   -0.0004    0.0037    0.0042
          28   -0.0615   -0.0891   -0.0001    0.0175   -0.0136    0.0156    0.2360    0.1895
          29    0.0907    0.0528   -0.0024   -0.0050   -0.0276    0.0216    0.2572   -0.1615
          30   -0.0165   -0.0509    0.0006    0.0051   -0.0008    0.0027    0.0625    0.0481
          31    0.1919    0.0040   -0.0015    0.0221   -0.0027    0.0072   -0.0447    0.2072
          32   -0.1584   -0.0045    0.0007   -0.0192   -0.0059   -0.0084    0.0725   -0.1993
          33    0.0956    0.0214   -0.0045    0.0145   -0.0255    0.0260    0.3405    0.0596
          34    0.0303   -0.0256    0.0001   -0.0053    0.1784    0.3065   -0.0054   -0.0382
          35   -0.0441    0.0329   -0.0010   -0.0002   -0.1081    0.1253   -0.0607    0.0922
          36    0.0034   -0.0049   -0.0002   -0.0014    0.0782    0.1158   -0.0072   -0.0069
          37    0.0141   -0.0098   -0.0003   -0.0020   -0.1624    0.0065    0.0037   -0.0648
          38   -0.0035    0.0143    0.0004    0.0034    0.1664   -0.0254   -0.0079    0.0861
          39    0.0103   -0.0153    0.0004   -0.0065   -0.1483    0.3367   -0.0485    0.0299
          40   -0.0005    0.0075   -0.0003    0.0013    0.2711    0.0121    0.0202   -0.0027
          41    0.0592   -0.0623    0.0011    0.0088    0.1863   -0.1219   -0.0225    0.0220
          42    0.0288   -0.0433    0.0010    0.0050   -0.2105   -0.1270   -0.0363    0.0363
          43   -0.0067   -0.0134   -0.0004   -0.0010   -0.0002    0.0003    0.0022    0.0007
          44   -0.0028    0.0097    0.0007   -0.0017    0.0003    0.0002   -0.0001    0.0018
          45    0.0048   -0.0069   -0.0001    0.0012   -0.0002   -0.0001   -0.0002   -0.0017
          46    0.1175    0.2815   -0.0088    0.0084    0.0016   -0.0020   -0.0373   -0.0113
          47    0.0696    0.0370   -0.0046    0.0145   -0.0001    0.0003   -0.0205   -0.0405
          48    0.0067    0.1275    0.0005   -0.0125    0.0010   -0.0079   -0.0078    0.0169
          49    0.0274    0.0676   -0.0016    0.0006    0.0009   -0.0015   -0.0092   -0.0024
          50   -0.0556   -0.1227   -0.0013    0.0000   -0.0009    0.0025    0.0139    0.0016
          51    0.0039   -0.0026   -0.0046    0.0036    0.0011   -0.0011   -0.0050   -0.0011


   Root No.      33        34        35        36        37        38        39        40

                33 A      34 A      35 A      36 A      37 A      38 A      39 A      40 A   

                1378.4    1394.8    1851.3    2093.2    2638.8    2664.1    2666.9    2675.8
  
           1    0.0012   -0.0005    0.2225    0.0001   -0.0002   -0.0001    0.0000    0.0002
           2    0.0044   -0.0005    0.1209   -0.0271   -0.0005   -0.0009   -0.0027   -0.0000
           3    0.0015   -0.0004    0.1027   -0.0229    0.0001   -0.0024    0.0005    0.0001
           4   -0.0650   -0.0012   -0.0391    0.0001   -0.0000   -0.0008   -0.0004    0.0000
           5    0.0013   -0.0000   -0.0074    0.0014   -0.0002   -0.0113   -0.0495   -0.0011
           6    0.0016   -0.0000   -0.0073    0.0012    0.0006   -0.0458    0.0120    0.0000
           7    0.0008   -0.0032   -0.0093    0.0076    0.0008    0.0000   -0.0002    0.0006
           8   -0.0013    0.0038    0.0049    0.0018    0.0007    0.0000    0.0000   -0.0005
           9    0.0003    0.0003   -0.0101   -0.0270   -0.0010   -0.0003    0.0001    0.0005
          10   -0.0013    0.0003   -0.1158    0.0071    0.0003    0.0004    0.0003   -0.0001
          11   -0.0020    0.0002   -0.0951    0.0067    0.0000    0.0002   -0.0000   -0.0000
          12   -0.0015    0.0002   -0.0822    0.0056    0.0000    0.0001    0.0001   -0.0000
          13   -0.0015    0.0158    0.0064   -0.0051    0.0257    0.0002    0.0000   -0.0042
          14    0.0018   -0.0226    0.0039    0.0023    0.0205    0.0002    0.0000   -0.0006
          15   -0.0003   -0.0017    0.0048    0.0003   -0.0241    0.0000   -0.0002    0.0050
          16   -0.0000    0.0118   -0.0024    0.0002   -0.0081   -0.0003    0.0016   -0.0391
          17    0.0007   -0.0403   -0.0010   -0.0006   -0.0049   -0.0004    0.0008   -0.0041
          18    0.0005   -0.0181   -0.0022   -0.0005    0.0071    0.0010   -0.0006   -0.0226
          19    0.2490    0.0067   -0.0414    0.0018    0.0031   -0.1115    0.1616    0.0021
          20   -0.0810   -0.0017    0.0401   -0.0031    0.0042   -0.1729    0.2208    0.0029
          21    0.0872    0.0026   -0.0208    0.0010   -0.0048    0.1778   -0.2849   -0.0038
          22    0.2724    0.0066   -0.0791    0.0068   -0.0018    0.1961    0.0204    0.0009
          23   -0.0540   -0.0009    0.0263   -0.0049   -0.0016    0.1414   -0.0074    0.0003
          24   -0.1244   -0.0034    0.0550   -0.0104   -0.0034    0.3860    0.0488    0.0018
          25    0.2630    0.0054   -0.0051   -0.0036   -0.0006   -0.0742   -0.1786   -0.0044
          26    0.1167    0.0025   -0.0252   -0.0021    0.0010    0.1737    0.4087    0.0101
          27    0.0272    0.0008    0.0067   -0.0012    0.0006    0.0107    0.0838    0.0019
          28    0.0042   -0.0313   -0.0013    0.0193   -0.0717   -0.0000   -0.0004    0.0240
          29   -0.0012    0.0828    0.0102   -0.0046    0.0059    0.0000    0.0000    0.0020
          30    0.0016   -0.0155    0.0004    0.0023    0.2908   -0.0001    0.0020   -0.0896
          31    0.0042   -0.0723   -0.0152    0.0009   -0.2691   -0.0031    0.0006   -0.0020
          32   -0.0032    0.0639    0.0169    0.0014   -0.2773   -0.0031    0.0005    0.0019
          33    0.0039    0.0218    0.0054    0.0012    0.0261    0.0004   -0.0003    0.0032
          34    0.0001   -0.0349    0.0066    0.0062    0.0376    0.0042   -0.0036   -0.0486
          35   -0.0070    0.2259   -0.0026   -0.0015    0.0031    0.0002   -0.0000   -0.0055
          36    0.0001   -0.0172    0.0017   -0.0011   -0.1068   -0.0105    0.0113    0.0636
          37    0.0039   -0.1456    0.0050    0.0003    0.0869    0.0036   -0.0134    0.2450
          38   -0.0039    0.1418   -0.0084   -0.0008    0.0769    0.0032   -0.0127    0.2381
          39   -0.0037    0.0872    0.0020    0.0052    0.0051    0.0008   -0.0007   -0.0055
          40    0.0006   -0.0060   -0.0018   -0.0008   -0.0095   -0.0046   -0.0022    0.2882
          41   -0.0057    0.1786    0.0058   -0.0017   -0.0007    0.0022    0.0021   -0.1736
          42   -0.0047    0.1487    0.0009   -0.0016    0.0003   -0.0029   -0.0029    0.2294
          43   -0.0003   -0.0007   -0.0071    0.0050   -0.0001   -0.0004    0.0001    0.0000
          44   -0.0007   -0.0002   -0.0083   -0.0247   -0.0001   -0.0001   -0.0001    0.0000
          45   -0.0008   -0.0000    0.0035    0.0039    0.0000   -0.0000   -0.0000   -0.0000
          46   -0.0059    0.0161    0.0030   -0.2883    0.0012   -0.0001   -0.0005    0.0000
          47   -0.0001    0.0077    0.0877    0.5469   -0.0006    0.0010    0.0020    0.0004
          48   -0.0053    0.0063    0.0830    0.5343    0.0038    0.0040    0.0001    0.0005
          49    0.0002    0.0037   -0.0059   -0.0011    0.0016   -0.0006   -0.0016   -0.0005
          50    0.0060   -0.0058    0.0274    0.0143    0.0008   -0.0001   -0.0007   -0.0002
          51    0.0103    0.0014    0.1077    0.0087   -0.0010   -0.0002    0.0004    0.0002


   Root No.      41        42        43        44        45

                41 A      42 A      43 A      44 A      45 A   

                2681.1    2717.1    2774.3    2782.7    2816.5
  
           1   -0.0001   -0.0001    0.0086   -0.0006   -0.0022
           2   -0.0002    0.0007    0.0007   -0.0004    0.0009
           3    0.0001   -0.0001    0.0003    0.0002    0.0090
           4   -0.0000   -0.0002    0.0211   -0.0014    0.0023
           5    0.0009   -0.0001    0.0003   -0.0000   -0.0002
           6   -0.0011   -0.0004   -0.0001   -0.0001   -0.0006
           7    0.0005   -0.0022   -0.0004   -0.0005   -0.0002
           8    0.0002    0.0002    0.0003    0.0003    0.0009
           9   -0.0002   -0.0022   -0.0001   -0.0004   -0.0016
          10    0.0001   -0.0002   -0.0015    0.0001   -0.0015
          11    0.0000   -0.0001   -0.0009    0.0001   -0.0013
          12   -0.0000   -0.0001   -0.0008    0.0000   -0.0011
          13    0.0084   -0.0077    0.0003    0.0014    0.0000
          14    0.0081   -0.0156   -0.0004   -0.0061   -0.0003
          15   -0.0062   -0.0278   -0.0004   -0.0034   -0.0001
          16    0.0152   -0.0034    0.0005    0.0064   -0.0007
          17    0.0170   -0.0006   -0.0012   -0.0184    0.0008
          18   -0.0307   -0.0077   -0.0007   -0.0076    0.0003
          19   -0.0050   -0.0002   -0.1082    0.0073   -0.0067
          20   -0.0073    0.0003   -0.1746    0.0113   -0.0127
          21    0.0086   -0.0002    0.2078   -0.0136    0.0153
          22    0.0032    0.0025   -0.1135    0.0077   -0.0101
          23    0.0027    0.0023   -0.0904    0.0060   -0.0067
          24    0.0064    0.0058   -0.2527    0.0170   -0.0187
          25    0.0029    0.0014   -0.1011    0.0062   -0.0084
          26   -0.0068   -0.0032    0.2628   -0.0163    0.0220
          27   -0.0017   -0.0007    0.0474   -0.0029    0.0042
          28   -0.0111   -0.1270   -0.0021   -0.0092   -0.0022
          29    0.0049   -0.0137   -0.0001    0.0008   -0.0005
          30    0.0484    0.4359    0.0068    0.0298    0.0063
          31   -0.0929    0.2422    0.0024    0.0175    0.0077
          32   -0.0976    0.2425    0.0025    0.0200    0.0072
          33    0.0102   -0.0452   -0.0005   -0.0026   -0.0013
          34   -0.1280   -0.0094   -0.0075   -0.1018    0.0056
          35   -0.0040    0.0030   -0.0013   -0.0163    0.0006
          36    0.3354    0.0143    0.0200    0.2671   -0.0135
          37   -0.1697   -0.0100    0.0135    0.2075   -0.0074
          38   -0.1540   -0.0031    0.0113    0.1793   -0.0069
          39   -0.0196   -0.0024    0.0001    0.0014    0.0001
          40    0.1115    0.0743   -0.0142   -0.1985    0.0095
          41   -0.0495   -0.0422    0.0076    0.1052   -0.0050
          42    0.0655    0.0564   -0.0115   -0.1606    0.0076
          43   -0.0001    0.0005    0.0009   -0.0007   -0.0376
          44   -0.0001    0.0001    0.0007   -0.0004   -0.0211
          45   -0.0000   -0.0000    0.0000    0.0000    0.0082
          46   -0.0006    0.0005    0.0014    0.0002   -0.0110
          47   -0.0003    0.0026   -0.0003   -0.0013   -0.0343
          48    0.0030   -0.0011   -0.0020    0.0028    0.0177
          49    0.0022   -0.0079   -0.0198    0.0119    0.6541
          50    0.0017   -0.0046   -0.0105    0.0066    0.3627
          51   -0.0010    0.0028    0.0077   -0.0037   -0.2084


           MASS-WEIGHTED COORDINATE ANALYSIS (NORMAL COORDINATES)


   Root No.       1         2         3         4         5         6         7         8

                 1 A       2 A       3 A       4 A       5 A       6 A       7 A       8 A   

               -1073.0      41.0      68.6     129.3     158.0     174.8     288.8     316.3
  
           1   -0.0065   -0.0160   -0.0067    0.0350   -0.0415    0.0463    0.0314   -0.1349
           2   -0.3017   -0.0206    0.0049   -0.0071    0.0573    0.1382   -0.0313    0.1450
           3    0.3713    0.0116   -0.0152   -0.0433    0.0611   -0.0252   -0.1148    0.0310
           4   -0.0004   -0.0164   -0.0084    0.0347   -0.0458    0.0405    0.0328   -0.1088
           5    0.0132   -0.1933    0.0172   -0.1096   -0.0080   -0.3774   -0.2702    0.2285
           6   -0.0074    0.0501    0.0082    0.2072   -0.1865    0.0560    0.2944    0.2023
           7   -0.0259    0.2016   -0.0001    0.1161   -0.0198    0.2019   -0.3618   -0.0822
           8    0.1811    0.0431   -0.0045    0.0419    0.0351    0.1858   -0.0552   -0.1801
           9    0.0974   -0.2633    0.0246   -0.2001    0.3656    0.1222   -0.0453   -0.0686
          10   -0.0017   -0.0916    0.0079    0.0902   -0.1624   -0.0934    0.0764   -0.2734
          11    0.0250   -0.0161    0.0141    0.0279    0.1740    0.4622   -0.0678    0.3938
          12   -0.0296    0.1103   -0.0521   -0.1498    0.0810   -0.1962   -0.1126   -0.1311
          13   -0.0567    0.2240    0.0290   -0.1214    0.3091   -0.0409   -0.1687   -0.0447
          14    0.0461    0.1301    0.0327   -0.0676    0.0878   -0.2020    0.2463   -0.2620
          15   -0.0160   -0.2538   -0.0085    0.1195   -0.1717    0.2166   -0.1431   -0.2152
          16   -0.0186   -0.2407   -0.0078    0.0189   -0.1453   -0.2398   -0.1297    0.3073
          17    0.0134   -0.2537   -0.0070   -0.0187   -0.0635   -0.1385    0.2412   -0.2967
          18   -0.0111    0.3460    0.0631    0.1175   -0.2092   -0.1697   -0.0200    0.0925
          19   -0.0241    0.0251   -0.0151    0.0635   -0.0455    0.0955    0.1301   -0.0118
          20   -0.0013   -0.0515   -0.4288   -0.0581   -0.0008   -0.1660   -0.1020    0.0840
          21   -0.0078    0.0332   -0.3692    0.0651   -0.0693    0.0124    0.1325    0.0870
          22    0.0107   -0.0010   -0.0012   -0.0286    0.0372    0.0350   -0.0579   -0.0827
          23   -0.0019   -0.0917    0.5382   -0.0219   -0.0122   -0.1463   -0.1137    0.0646
          24   -0.0002    0.0259   -0.1903    0.0734   -0.0727    0.0192    0.1317    0.0837
          25    0.0101   -0.0377    0.0016   -0.0032   -0.0337   -0.0958   -0.0401   -0.0024
          26    0.0047   -0.0646   -0.0966   -0.0446   -0.0048   -0.1547   -0.1066    0.0780
          27   -0.0052   -0.0057    0.5689    0.1020   -0.0816    0.0367    0.1298    0.0721
          28    0.0300    0.1269    0.0222   -0.1354    0.2443   -0.0672    0.0066    0.0084
          29   -0.0121    0.2197    0.0315   -0.0567    0.0883   -0.1457    0.1246   -0.0717
          30    0.0099   -0.0494    0.0024    0.0047   -0.0029    0.0434   -0.0240   -0.0531
          31   -0.0005    0.1119    0.0092   -0.0222    0.0900    0.0251   -0.0756   -0.0273
          32   -0.0065   -0.0353    0.0047   -0.0175   -0.0015   -0.0812    0.0889   -0.0635
          33   -0.0053   -0.2354   -0.0279    0.1332   -0.2018    0.1686   -0.1190   -0.0815
          34   -0.0114   -0.1164   -0.0191    0.4426    0.1981   -0.2214   -0.0128    0.1419
          35    0.0052   -0.2522   -0.0240    0.0827   -0.0147    0.0054    0.0509   -0.1284
          36   -0.0014    0.0722    0.0106    0.2071    0.0327   -0.1051    0.0023    0.0467
          37   -0.0081   -0.1304   -0.0034   -0.0860   -0.1797   -0.0658   -0.0382    0.1411
          38    0.0097   -0.0052   -0.0010    0.1044    0.1411   -0.0450    0.0693   -0.1422
          39   -0.0035    0.2409    0.0464   -0.4069   -0.2963    0.0401   -0.0118    0.0315
          40   -0.0083   -0.0750    0.0075   -0.3174   -0.2681    0.0268   -0.0533    0.0849
          41    0.0114   -0.0479    0.0101   -0.1995   -0.2243   -0.0570    0.0784    0.0133
          42    0.0021    0.1231    0.0142    0.3082    0.0837   -0.1824    0.0197    0.1008
          43    0.0765   -0.0451   -0.0108   -0.1533    0.1087    0.1049    0.4890    0.2508
          44   -0.1423    0.3015   -0.0511    0.1263   -0.2208    0.0342   -0.0271   -0.0083
          45   -0.2095   -0.0192   -0.0260   -0.0983    0.1189   -0.0082    0.0493    0.0194
          46    0.0359    0.0388   -0.0121    0.0583   -0.0719    0.0770   -0.0559   -0.0192
          47    0.5673    0.0676   -0.0118    0.0457   -0.0627    0.0329   -0.0517    0.0469
          48   -0.5651   -0.0569    0.0029   -0.0391    0.0700    0.0323   -0.0134   -0.0460
          49    0.0547   -0.0310    0.0014   -0.0698    0.0578    0.0099    0.1948    0.1195
          50   -0.0398    0.1170   -0.0221    0.0845   -0.1159    0.0403   -0.0820   -0.0598
          51   -0.0216    0.0071   -0.0090   -0.0456    0.0325   -0.0055    0.1276    0.0952


   Root No.       9        10        11        12        13        14        15        16

                 9 A      10 A      11 A      12 A      13 A      14 A      15 A      16 A   

                 365.4     440.7     503.4     580.8     631.2     658.6     730.9     871.7
  
           1    0.0837    0.1514    0.3479    0.1472    0.0492   -0.0704   -0.0201    0.0017
           2    0.2563    0.2361   -0.3768   -0.2443   -0.0544    0.1045   -0.3205   -0.0131
           3    0.2230   -0.0133   -0.0715   -0.3779    0.0932   -0.0284    0.4415    0.0088
           4    0.0965    0.1939    0.3280    0.0914    0.1437   -0.1694   -0.0645   -0.0138
           5   -0.2530   -0.0216   -0.0309   -0.0687    0.0060    0.0080   -0.1093   -0.0093
           6   -0.2354    0.0954   -0.0825   -0.0238    0.0489    0.0002    0.1424    0.0078
           7   -0.3350    0.0044   -0.0889   -0.2074   -0.2642   -0.0229   -0.0483    0.0856
           8   -0.0358    0.1257   -0.0599    0.4609   -0.3621    0.4482    0.2960    0.1059
           9    0.1283   -0.1510   -0.1962    0.4034    0.1872   -0.0608   -0.1273   -0.0954
          10    0.3727   -0.1709   -0.2048   -0.1749   -0.0868    0.1323    0.0348    0.0037
          11    0.1290    0.1024    0.3637   -0.1722    0.1045   -0.1081    0.1014    0.0062
          12   -0.0001    0.5736    0.0161    0.0271    0.0314    0.0238   -0.1042    0.0001
          13   -0.1715   -0.0973   -0.1184    0.0216    0.0299   -0.1100    0.0428   -0.1848
          14   -0.0865    0.0102    0.0452   -0.1323   -0.0108   -0.0142   -0.0217   -0.1396
          15   -0.1894   -0.0805   -0.1031   -0.0362    0.0827   -0.1974   -0.0665    0.2045
          16    0.1692   -0.0039   -0.0470    0.1258   -0.0069    0.0410   -0.0225   -0.0722
          17   -0.0801    0.0187    0.0711   -0.1519    0.0257   -0.0745    0.0230   -0.0701
          18    0.0871    0.0159   -0.0018    0.0156   -0.0063   -0.0292    0.0010    0.0702
          19    0.0193    0.1421    0.0223    0.0996   -0.0012   -0.0083   -0.3418   -0.0269
          20   -0.1469   -0.0409    0.0469    0.0222    0.0103   -0.0273    0.0711    0.0057
          21   -0.1324    0.0485   -0.0243    0.0661   -0.0003   -0.0036   -0.0718   -0.0054
          22    0.1835    0.0386    0.0559   -0.1253    0.0620   -0.0238    0.1614    0.0035
          23   -0.1367   -0.0404    0.0604    0.0267    0.0136   -0.0329    0.0769    0.0064
          24   -0.1229    0.0477   -0.0253    0.0579   -0.0044    0.0019   -0.0923   -0.0048
          25   -0.1384   -0.0121    0.2339    0.1399    0.0601   -0.1076    0.1219    0.0131
          26   -0.1318   -0.0374    0.0442    0.0118    0.0140   -0.0286    0.0574    0.0062
          27   -0.1235    0.0513   -0.0142    0.0666    0.0014    0.0083   -0.1024   -0.0065
          28    0.0089   -0.0743   -0.0545    0.0576    0.1285   -0.0312   -0.1121    0.1870
          29   -0.0083    0.0002    0.0336   -0.0664    0.0544   -0.0195   -0.0129    0.4436
          30   -0.0340   -0.0345   -0.0327    0.0064    0.0531   -0.0559   -0.0522    0.1042
          31   -0.0678   -0.0179   -0.0459    0.0197   -0.0376    0.0094    0.0203    0.0930
          32   -0.0096   -0.0003    0.0286   -0.0508    0.0253   -0.0347   -0.0020   -0.2087
          33   -0.1062    0.0126   -0.0258   -0.0200   -0.1129   -0.0330    0.0456   -0.4251
          34    0.1074    0.0137    0.0047    0.0887   -0.0195    0.0740    0.0346    0.0046
          35   -0.0546   -0.0068    0.0015   -0.0776    0.0416   -0.0838   -0.0383    0.4288
          36    0.0473    0.0092    0.0053    0.0251   -0.0097    0.0149    0.0092    0.0250
          37    0.1043    0.0186    0.0032    0.0904   -0.0161    0.0711    0.0249    0.2068
          38   -0.0830   -0.0163   -0.0000   -0.0995    0.0209   -0.0820   -0.0303   -0.2383
          39    0.0214    0.0088    0.0072    0.0184   -0.0228    0.0154    0.0189   -0.2459
          40    0.0448    0.0022   -0.0135    0.0434   -0.0001    0.0150   -0.0001    0.1219
          41    0.0720    0.0383    0.0488    0.0295   -0.0350    0.0916    0.0393    0.0325
          42    0.0980    0.0244    0.0216    0.0582   -0.0360    0.0743    0.0295   -0.1282
          43   -0.2122   -0.0537   -0.1700   -0.0332    0.1414    0.1573    0.1130   -0.0218
          44    0.1778   -0.3353   -0.1181    0.2785    0.1114   -0.4041    0.0279   -0.0118
          45    0.0743   -0.4258    0.4555   -0.1378   -0.3430    0.2719   -0.2543   -0.0001
          46   -0.1695   -0.0834   -0.0124   -0.1239    0.2178    0.2899   -0.1104    0.0248
          47    0.0499   -0.1005   -0.0584   -0.0220    0.0426   -0.0006   -0.3536   -0.0283
          48   -0.0142    0.0048   -0.0948    0.0194    0.1457    0.0506    0.2950    0.0114
          49   -0.0114    0.0067   -0.1085    0.0327   -0.3042   -0.2855    0.0270    0.0319
          50   -0.0675   -0.2088    0.0600    0.0274    0.5103    0.3911   -0.0230   -0.0457
          51   -0.0444   -0.2205   -0.0199   -0.0064   -0.2726   -0.1288    0.0668    0.0498


   Root No.      17        18        19        20        21        22        23        24

                17 A      18 A      19 A      20 A      21 A      22 A      23 A      24 A   

                 978.1     997.3    1045.3    1085.2    1108.0    1127.8    1146.2    1180.3
  
           1   -0.1259   -0.0470   -0.1721    0.1150    0.2200   -0.2930   -0.0218    0.0578
           2    0.0440    0.0002   -0.0326   -0.2522   -0.1925    0.0097   -0.0363   -0.0223
           3    0.0102   -0.0188    0.0089    0.1594   -0.0802    0.3775    0.0747   -0.0284
           4    0.3033    0.1933    0.3341   -0.1482   -0.2349    0.2743    0.0202   -0.0528
           5    0.0598    0.1076    0.2323    0.2719    0.1611   -0.0184   -0.0023    0.0301
           6    0.0327    0.0069    0.2241   -0.1851    0.0626   -0.2909   -0.0622    0.0265
           7    0.2317   -0.2540   -0.0071   -0.0454   -0.0741    0.0401   -0.1098    0.1948
           8   -0.0978    0.1589    0.0910   -0.0600    0.0533    0.1230   -0.0227   -0.0740
           9    0.1790   -0.1502    0.0011   -0.0193   -0.1732   -0.0884   -0.0758    0.1889
          10   -0.0971   -0.0228   -0.2859    0.0346    0.0596   -0.0761    0.0255   -0.0109
          11   -0.0700    0.0005   -0.2270    0.0856    0.0973   -0.0863    0.0324   -0.0053
          12   -0.0359    0.0212   -0.2146   -0.0009    0.0645   -0.1426    0.0039    0.0003
          13   -0.1519    0.0917    0.0178    0.2406   -0.0270   -0.1085   -0.0397   -0.2821
          14    0.0142    0.0015    0.0356   -0.0294   -0.2138   -0.1527    0.5608   -0.0458
          15   -0.1149    0.0861    0.0009   -0.0605    0.3129    0.0553    0.3205    0.0300
          16   -0.2230    0.2389    0.0165   -0.1776    0.0473    0.0880    0.0815    0.2294
          17    0.1053   -0.1072   -0.0517    0.0401    0.1610    0.1291   -0.5149    0.0877
          18   -0.1486    0.1127    0.0130    0.0590   -0.1919   -0.0337   -0.3085   -0.1648
          19    0.0612    0.1233    0.0579    0.4184    0.0188    0.3982    0.0784   -0.0196
          20   -0.0262   -0.0595   -0.1012   -0.0991   -0.0568   -0.0055   -0.0038    0.0010
          21   -0.0287   -0.0237   -0.0862    0.0826   -0.0311    0.1391    0.0275   -0.0053
          22    0.1624    0.1463    0.4715   -0.1294    0.1040   -0.3000   -0.0701    0.0276
          23   -0.0253   -0.0638   -0.1002   -0.0928   -0.0677    0.0313    0.0022    0.0027
          24   -0.0289   -0.0195   -0.0924    0.0662   -0.0220    0.0970    0.0213   -0.0103
          25   -0.0113   -0.1366   -0.2834   -0.3849   -0.2978    0.1672    0.0126   -0.0678
          26   -0.0108   -0.0520   -0.0723   -0.1156   -0.0715    0.0189   -0.0039   -0.0134
          27   -0.0248   -0.0111   -0.0888    0.0779   -0.0212    0.1101    0.0232   -0.0143
          28    0.0541   -0.0151   -0.0432   -0.1584    0.3409    0.0732   -0.0840   -0.3749
          29   -0.0421    0.0250    0.0138    0.0047   -0.0188    0.0181    0.1781    0.4324
          30    0.0061    0.0005   -0.0147   -0.0701    0.1670    0.0368    0.0442   -0.0684
          31    0.0124   -0.0448    0.0249    0.1454   -0.1191   -0.0770    0.0226    0.2013
          32   -0.0319    0.0499   -0.0106   -0.0689    0.0286   -0.0038    0.0924   -0.2815
          33   -0.0056   -0.0215    0.0175    0.1488   -0.2019   -0.1633    0.0945   -0.0885
          34    0.1186   -0.1017   -0.0059    0.0333    0.0846   -0.0034    0.0956   -0.0158
          35   -0.1253    0.0570    0.0315    0.1417   -0.3339   -0.1403   -0.1933   -0.2571
          36    0.0307   -0.0351    0.0000    0.0388   -0.0203   -0.0227   -0.0318   -0.0727
          37    0.1214   -0.1276    0.0088    0.1127   -0.0614   -0.0885    0.0949   -0.1482
          38   -0.1619    0.1700   -0.0143   -0.1524    0.1012    0.1372   -0.1783    0.2339
          39    0.0143    0.0099   -0.0183   -0.0699    0.1541    0.0801   -0.0374    0.1071
          40   -0.0517    0.0388    0.0152    0.0269   -0.0766   -0.0329    0.0159   -0.0516
          41    0.3928   -0.3742   -0.0323    0.1252    0.1068   -0.0425    0.0555   -0.0612
          42    0.2310   -0.2046   -0.0268    0.0232    0.1360    0.0111    0.0432    0.0212
          43   -0.1272   -0.1239    0.0708    0.0463   -0.0458    0.0143   -0.0194    0.0534
          44   -0.0588   -0.1454    0.0879    0.0180    0.0389    0.0344    0.0178   -0.0035
          45   -0.1428   -0.0986    0.1645   -0.0386   -0.0255    0.0475   -0.0065   -0.0220
          46    0.1353    0.0462   -0.0249   -0.2430    0.1615    0.0868    0.0838   -0.2669
          47    0.0217   -0.0252    0.0076   -0.1489   -0.0351   -0.0696   -0.0193   -0.0478
          48    0.0692   -0.0065    0.0144    0.0049    0.0281    0.1816    0.0544   -0.0748
          49    0.0498    0.0213   -0.0136   -0.0657    0.0663   -0.0027    0.0245   -0.0651
          50    0.1407    0.2099   -0.1638    0.1278   -0.1174   -0.1153   -0.0642    0.1488
          51    0.4971    0.5732   -0.3620    0.0258   -0.0111   -0.1120   -0.0118    0.0116


   Root No.      25        26        27        28        29        30        31        32

                25 A      26 A      27 A      28 A      29 A      30 A      31 A      32 A   

                1202.8    1234.3    1261.9    1264.4    1285.8    1292.7    1320.9    1341.8
  
           1   -0.0833    0.1515   -0.0133   -0.0077    0.0078   -0.0099   -0.0170    0.0336
           2    0.1203   -0.2020    0.0040    0.0250   -0.0055    0.0106    0.0001   -0.0453
           3   -0.0414    0.0092    0.0081   -0.0182   -0.0033    0.0014    0.0229    0.0405
           4    0.0845   -0.1244    0.0217    0.0056   -0.0051    0.0039    0.0121   -0.0134
           5   -0.0702    0.0774    0.0141   -0.2502    0.0033   -0.0079    0.0073    0.0305
           6    0.0091   -0.0251   -0.2420   -0.0035    0.0015   -0.0006   -0.0071   -0.0112
           7   -0.4021    0.0561    0.0063   -0.0323    0.0073    0.0212    0.0215   -0.0162
           8    0.0048   -0.0483    0.0013   -0.0068   -0.0040   -0.0176    0.0148   -0.0277
           9   -0.1434    0.2091   -0.0037   -0.0162    0.0065    0.0114   -0.0130   -0.0584
          10   -0.0041    0.0337    0.0010    0.0012    0.0003   -0.0002   -0.0048   -0.0108
          11    0.0024    0.0658   -0.0029   -0.0059    0.0017   -0.0019   -0.0062    0.0085
          12    0.0058    0.0314   -0.0074    0.0008    0.0018   -0.0008   -0.0106   -0.0094
          13    0.3702   -0.1786   -0.0014    0.0101   -0.0113   -0.0478   -0.1326   -0.2979
          14   -0.1792    0.0615    0.0006    0.0001    0.0082    0.0055   -0.1414    0.2553
          15    0.1147   -0.3132    0.0061    0.0070    0.0100   -0.0297   -0.1836   -0.0820
          16   -0.0579    0.0546    0.0004    0.0034   -0.1424   -0.1606    0.0123    0.1400
          17    0.1711   -0.0025   -0.0006    0.0028   -0.1160    0.0101    0.0025   -0.0961
          18   -0.0513    0.0890   -0.0021    0.0049    0.1469   -0.1699    0.0307    0.0323
          19   -0.0623    0.0638   -0.2366    0.1521   -0.0019    0.0018    0.0011    0.0094
          20   -0.0014   -0.0097    0.4107    0.3878   -0.0022    0.0091   -0.0033   -0.0230
          21   -0.0304    0.0197    0.1795    0.4371   -0.0024    0.0093   -0.0042   -0.0196
          22   -0.0038   -0.0085    0.2441    0.1444    0.0008    0.0020   -0.0093   -0.0216
          23   -0.0197   -0.0189   -0.3300    0.5997   -0.0029    0.0128   -0.0105   -0.0337
          24    0.0119   -0.0002   -0.0277   -0.2953    0.0008   -0.0060    0.0081    0.0215
          25    0.1418   -0.1289   -0.0284   -0.2636   -0.0034    0.0009   -0.0014   -0.0152
          26    0.0350   -0.0363   -0.1438   -0.1247   -0.0004   -0.0007   -0.0007   -0.0026
          27    0.0083    0.0199    0.7016   -0.0987   -0.0005   -0.0008    0.0070    0.0089
          28   -0.1333   -0.1955   -0.0001    0.0330   -0.0249    0.0291    0.4455    0.4017
          29    0.1964    0.1159   -0.0042   -0.0095   -0.0506    0.0402    0.4856   -0.3423
          30   -0.0358   -0.1116    0.0010    0.0096   -0.0015    0.0050    0.1179    0.1020
          31    0.4157    0.0088   -0.0027    0.0417   -0.0050    0.0134   -0.0845    0.4392
          32   -0.3432   -0.0099    0.0012   -0.0362   -0.0109   -0.0157    0.1369   -0.4225
          33    0.2071    0.0470   -0.0079    0.0273   -0.0469    0.0485    0.6427    0.1264
          34    0.0656   -0.0561    0.0001   -0.0101    0.3277    0.5723   -0.0102   -0.0810
          35   -0.0957    0.0722   -0.0018   -0.0004   -0.1986    0.2339   -0.1146    0.1955
          36    0.0073   -0.0108   -0.0004   -0.0027    0.1436    0.2162   -0.0135   -0.0146
          37    0.0307   -0.0215   -0.0006   -0.0038   -0.2982    0.0121    0.0069   -0.1373
          38   -0.0075    0.0313    0.0007    0.0064    0.3057   -0.0473   -0.0150    0.1824
          39    0.0223   -0.0336    0.0006   -0.0122   -0.2723    0.6285   -0.0915    0.0634
          40   -0.0010    0.0165   -0.0006    0.0024    0.4980    0.0226    0.0381   -0.0058
          41    0.1283   -0.1367    0.0020    0.0165    0.3422   -0.2276   -0.0426    0.0467
          42    0.0624   -0.0949    0.0017    0.0095   -0.3867   -0.2371   -0.0685    0.0769
          43   -0.0580   -0.1173   -0.0030   -0.0071   -0.0016    0.0022    0.0168    0.0055
          44   -0.0241    0.0845    0.0048   -0.0124    0.0021    0.0012   -0.0008    0.0151
          45    0.0415   -0.0600   -0.0008    0.0093   -0.0018   -0.0007   -0.0017   -0.0145
          46    0.2546    0.6174   -0.0155    0.0158    0.0029   -0.0038   -0.0705   -0.0239
          47    0.1508    0.0813   -0.0081    0.0274   -0.0003    0.0005   -0.0386   -0.0859
          48    0.0145    0.2796    0.0009   -0.0235    0.0018   -0.0147   -0.0148    0.0358
          49    0.0593    0.1483   -0.0028    0.0012    0.0017   -0.0028   -0.0173   -0.0051
          50   -0.1204   -0.2691   -0.0023    0.0000   -0.0016    0.0046    0.0261    0.0034
          51    0.0084   -0.0056   -0.0081    0.0069    0.0020   -0.0021   -0.0094   -0.0024


   Root No.      33        34        35        36        37        38        39        40

                33 A      34 A      35 A      36 A      37 A      38 A      39 A      40 A   

                1378.4    1394.8    1851.3    2093.2    2638.8    2664.1    2666.9    2675.8
  
           1    0.0076   -0.0036    0.6442    0.0005   -0.0011   -0.0005    0.0001    0.0011
           2    0.0274   -0.0041    0.3499   -0.1109   -0.0029   -0.0051   -0.0146   -0.0002
           3    0.0096   -0.0033    0.2974   -0.0939    0.0004   -0.0138    0.0028    0.0003
           4   -0.4074   -0.0093   -0.1133    0.0004   -0.0000   -0.0044   -0.0019    0.0003
           5    0.0079   -0.0000   -0.0214    0.0056   -0.0016   -0.0665   -0.2715   -0.0064
           6    0.0098   -0.0002   -0.0212    0.0050    0.0037   -0.2697    0.0656    0.0001
           7    0.0059   -0.0280   -0.0312    0.0360    0.0058    0.0002   -0.0015    0.0040
           8   -0.0092    0.0332    0.0164    0.0083    0.0055    0.0002    0.0002   -0.0035
           9    0.0021    0.0030   -0.0339   -0.1279   -0.0076   -0.0018    0.0005    0.0036
          10   -0.0097    0.0030   -0.3869    0.0338    0.0020    0.0025    0.0019   -0.0004
          11   -0.0144    0.0022   -0.3179    0.0315    0.0003    0.0011   -0.0001   -0.0002
          12   -0.0107    0.0019   -0.2746    0.0266    0.0002    0.0004    0.0009   -0.0002
          13   -0.0096    0.1195    0.0186   -0.0209    0.1651    0.0012    0.0001   -0.0253
          14    0.0114   -0.1707    0.0112    0.0096    0.1318    0.0013    0.0002   -0.0035
          15   -0.0020   -0.0132    0.0139    0.0011   -0.1553    0.0000   -0.0009    0.0305
          16   -0.0002    0.0892   -0.0069    0.0008   -0.0524   -0.0015    0.0086   -0.2377
          17    0.0043   -0.3050   -0.0030   -0.0026   -0.0318   -0.0025    0.0044   -0.0247
          18    0.0034   -0.1366   -0.0064   -0.0022    0.0456    0.0059   -0.0034   -0.1373
          19    0.4518    0.0146   -0.0347    0.0021    0.0058   -0.1900    0.2567    0.0037
          20   -0.1471   -0.0038    0.0336   -0.0037    0.0077   -0.2948    0.3506    0.0051
          21    0.1582    0.0057   -0.0175    0.0012   -0.0089    0.3031   -0.4525   -0.0067
          22    0.4943    0.0144   -0.0663    0.0081   -0.0034    0.3343    0.0323    0.0016
          23   -0.0980   -0.0020    0.0221   -0.0058   -0.0029    0.2411   -0.0118    0.0005
          24   -0.2258   -0.0075    0.0462   -0.0123   -0.0063    0.6581    0.0776    0.0031
          25    0.4773    0.0118   -0.0043   -0.0042   -0.0012   -0.1265   -0.2836   -0.0077
          26    0.2117    0.0054   -0.0211   -0.0025    0.0019    0.2961    0.6491    0.0178
          27    0.0494    0.0017    0.0056   -0.0014    0.0012    0.0183    0.1331    0.0033
          28    0.0076   -0.0685   -0.0011    0.0229   -0.1337   -0.0000   -0.0006    0.0423
          29   -0.0022    0.1814    0.0085   -0.0054    0.0109    0.0000    0.0000    0.0035
          30    0.0029   -0.0339    0.0003    0.0028    0.5421   -0.0002    0.0031   -0.1577
          31    0.0077   -0.1584   -0.0127    0.0011   -0.5016   -0.0052    0.0010   -0.0034
          32   -0.0057    0.1400    0.0142    0.0016   -0.5170   -0.0053    0.0009    0.0033
          33    0.0071    0.0478    0.0045    0.0014    0.0486    0.0007   -0.0004    0.0056
          34    0.0003   -0.0764    0.0055    0.0073    0.0702    0.0072   -0.0058   -0.0856
          35   -0.0126    0.4949   -0.0021   -0.0017    0.0059    0.0003   -0.0000   -0.0097
          36    0.0001   -0.0376    0.0015   -0.0013   -0.1990   -0.0180    0.0180    0.1119
          37    0.0071   -0.3190    0.0042    0.0003    0.1620    0.0062   -0.0214    0.4311
          38   -0.0071    0.3107   -0.0070   -0.0010    0.1433    0.0054   -0.0202    0.4191
          39   -0.0066    0.1910    0.0017    0.0062    0.0095    0.0013   -0.0012   -0.0097
          40    0.0010   -0.0131   -0.0015   -0.0009   -0.0178   -0.0078   -0.0035    0.5072
          41   -0.0104    0.3913    0.0049   -0.0020   -0.0013    0.0038    0.0033   -0.3055
          42   -0.0085    0.3256    0.0007   -0.0019    0.0005   -0.0049   -0.0045    0.4037
          43   -0.0019   -0.0062   -0.0236    0.0239   -0.0005   -0.0025    0.0007    0.0001
          44   -0.0053   -0.0017   -0.0278   -0.1167   -0.0005   -0.0005   -0.0006    0.0001
          45   -0.0058   -0.0000    0.0118    0.0187    0.0003   -0.0003   -0.0001   -0.0003
          46   -0.0106    0.0352    0.0025   -0.3424    0.0022   -0.0001   -0.0008    0.0000
          47   -0.0002    0.0168    0.0736    0.6495   -0.0012    0.0017    0.0031    0.0006
          48   -0.0096    0.0137    0.0696    0.6346    0.0070    0.0068    0.0001    0.0009
          49    0.0004    0.0080   -0.0049   -0.0013    0.0030   -0.0009   -0.0026   -0.0008
          50    0.0109   -0.0127    0.0229    0.0170    0.0014   -0.0001   -0.0011   -0.0003
          51    0.0186    0.0030    0.0903    0.0103   -0.0019   -0.0004    0.0006    0.0004


   Root No.      41        42        43        44        45

                41 A      42 A      43 A      44 A      45 A   

                2681.1    2717.1    2774.3    2782.7    2816.5
  
           1   -0.0009   -0.0009    0.0586   -0.0041   -0.0094
           2   -0.0012    0.0042    0.0047   -0.0025    0.0040
           3    0.0006   -0.0005    0.0022    0.0013    0.0388
           4   -0.0003   -0.0012    0.1426   -0.0100    0.0100
           5    0.0065   -0.0004    0.0017   -0.0003   -0.0008
           6   -0.0075   -0.0023   -0.0007   -0.0005   -0.0027
           7    0.0041   -0.0151   -0.0030   -0.0042   -0.0012
           8    0.0019    0.0011    0.0023    0.0028    0.0044
           9   -0.0015   -0.0148   -0.0005   -0.0033   -0.0078
          10    0.0008   -0.0012   -0.0115    0.0007   -0.0075
          11    0.0002   -0.0010   -0.0071    0.0010   -0.0064
          12   -0.0001   -0.0007   -0.0061    0.0004   -0.0052
          13    0.0587   -0.0446    0.0020    0.0097    0.0001
          14    0.0566   -0.0911   -0.0030   -0.0428   -0.0014
          15   -0.0434   -0.1618   -0.0029   -0.0239   -0.0006
          16    0.1068   -0.0196    0.0037    0.0449   -0.0030
          17    0.1195   -0.0033   -0.0079   -0.1292    0.0034
          18   -0.2159   -0.0451   -0.0045   -0.0532    0.0015
          19   -0.0101   -0.0003   -0.2123    0.0149   -0.0083
          20   -0.0148    0.0005   -0.3425    0.0231   -0.0159
          21    0.0174   -0.0004    0.4076   -0.0275    0.0192
          22    0.0065    0.0043   -0.2226    0.0157   -0.0126
          23    0.0056    0.0038   -0.1773    0.0122   -0.0084
          24    0.0130    0.0097   -0.4957    0.0345   -0.0234
          25    0.0059    0.0024   -0.1983    0.0126   -0.0105
          26   -0.0139   -0.0053    0.5155   -0.0331    0.0275
          27   -0.0035   -0.0012    0.0930   -0.0059    0.0052
          28   -0.0226   -0.2144   -0.0042   -0.0187   -0.0028
          29    0.0099   -0.0232   -0.0002    0.0015   -0.0007
          30    0.0985    0.7360    0.0133    0.0605    0.0079
          31   -0.1889    0.4090    0.0047    0.0357    0.0096
          32   -0.1986    0.4095    0.0049    0.0407    0.0091
          33    0.0208   -0.0762   -0.0010   -0.0053   -0.0017
          34   -0.2604   -0.0158   -0.0147   -0.2069    0.0070
          35   -0.0082    0.0051   -0.0026   -0.0330    0.0008
          36    0.6824    0.0241    0.0392    0.5426   -0.0169
          37   -0.3454   -0.0169    0.0264    0.4216   -0.0092
          38   -0.3133   -0.0052    0.0222    0.3643   -0.0086
          39   -0.0398   -0.0040    0.0002    0.0028    0.0001
          40    0.2269    0.1255   -0.0278   -0.4033    0.0119
          41   -0.1007   -0.0713    0.0148    0.2137   -0.0062
          42    0.1332    0.0953   -0.0225   -0.3262    0.0095
          43   -0.0007    0.0031    0.0073   -0.0054   -0.1877
          44   -0.0009    0.0004    0.0053   -0.0029   -0.1050
          45   -0.0002   -0.0001    0.0003    0.0003    0.0409
          46   -0.0011    0.0008    0.0027    0.0003   -0.0137
          47   -0.0006    0.0044   -0.0006   -0.0027   -0.0429
          48    0.0062   -0.0019   -0.0040    0.0057    0.0222
          49    0.0045   -0.0134   -0.0389    0.0242    0.8187
          50    0.0034   -0.0078   -0.0206    0.0134    0.4539
          51   -0.0019    0.0048    0.0151   -0.0075   -0.2608


          DESCRIPTION OF VIBRATIONS


 VIBRATION    1    1A       ATOM PAIR        ENERGY CONTRIBUTION    RADIAL
 FREQ.     -1072.99        O 15 --  H 16          -71.3% (-61.2%)    94.7%
 T-DIPOLE    2.3355        O  3 --  H 16          -64.3% (-58.1%)    86.0%
 TRAVEL      0.1492        C  1 --  O  4           -8.1% (-20.7%)     0.0%
 RED. MASS   1.1540        C  1 --  C  2           -7.9% (-20.3%)     0.0%
 EFF. MASS   2.8246

 VIBRATION    2    2A       ATOM PAIR        ENERGY CONTRIBUTION    RADIAL
 FREQ.        40.99        C  5 --  C  6          +24.1% (999.0%)     0.0%
 T-DIPOLE    0.0402        C  6 --  H 14          +12.0% (999.0%)     6.5%
 TRAVEL      0.0333        C  6 --  H 13          +11.7% (999.0%)    70.6%
 RED. MASS   1.2996        C  6 --  H 12          +11.1% (999.0%)    99.4%
 EFF. MASS1483.1277

 VIBRATION    3    3A       ATOM PAIR        ENERGY CONTRIBUTION    RADIAL
 FREQ.        68.60        C  2 --  H  9          +32.4% (788.9%)     0.1%
 T-DIPOLE    0.0252        C  2 --  H  7          +32.3% (787.9%)     0.0%
 TRAVEL      0.3134        C  2 --  H  8          +32.1% (785.6%)     0.0%
 RED. MASS   0.3229        C  5 --  C  6           +0.6% (110.1%)     0.0%
 EFF. MASS  10.0066

 VIBRATION    4    4A       ATOM PAIR        ENERGY CONTRIBUTION    RADIAL
 FREQ.       129.27        C  6 --  H 12          +20.6% (365.7%)     2.7%
 T-DIPOLE    0.0854        C  6 --  H 13          +20.3% (362.8%)     0.0%
 TRAVEL      0.1095        C  6 --  H 14          +19.4% (354.7%)     2.2%
 RED. MASS   0.3094        O  3 --  C  5           +5.3% (184.8%)     0.0%
 EFF. MASS  43.5205

 VIBRATION    5    5A       ATOM PAIR        ENERGY CONTRIBUTION    RADIAL
 FREQ.       158.01        C  5 --  C  6          +13.8% (274.4%)     0.1%
 T-DIPOLE    0.1492        O  3 --  C  5          +12.6% (262.7%)     0.1%
 TRAVEL      0.0796        C  6 --  H 14          +11.1% (246.5%)    16.0%
 RED. MASS   0.7781        C  6 --  H 13          +10.6% (240.9%)    22.5%
 EFF. MASS  67.3515

 VIBRATION    6    6A       ATOM PAIR        ENERGY CONTRIBUTION    RADIAL
 FREQ.       174.77        C  5 --  C  6          +12.2% (239.7%)     0.1%
 T-DIPOLE    0.2351        C  1 --  C  2          +11.7% (234.1%)     0.0%
 TRAVEL      0.0717        C  2 --  H  8           +8.3% (198.0%)     2.6%
 RED. MASS   1.7275        C  2 --  H  7           +7.7% (190.7%)    64.0%
 EFF. MASS  75.1051

 VIBRATION    7    7A       ATOM PAIR        ENERGY CONTRIBUTION    RADIAL
 FREQ.       288.75        O  3 --  O 15           +9.0% (137.9%)     0.3%
 T-DIPOLE    0.3189        C  1 --  C  2           +9.0% (137.8%)     0.0%
 TRAVEL      0.0778        C  5 --  C  6           +7.9% (128.8%)     3.9%
 RED. MASS   1.7784        C  2 --  H  8           +7.2% (122.9%)    27.4%
 EFF. MASS  38.5905

 VIBRATION    8    8A       ATOM PAIR        ENERGY CONTRIBUTION    RADIAL
 FREQ.       316.30        C  5 --  C  6          +15.1% (156.7%)     0.5%
 T-DIPOLE    0.7049        C  6 --  H 13          +11.2% (135.2%)     1.2%
 TRAVEL      0.0838        C  6 --  H 12          +11.1% (134.5%)     0.1%
 RED. MASS   1.8308        C  6 --  H 14           +8.8% (119.7%)    51.5%
 EFF. MASS  30.3881

 VIBRATION    9    9A       ATOM PAIR        ENERGY CONTRIBUTION    RADIAL
 FREQ.       365.42        C  1 --  C  2          +17.5% (157.6%)     0.0%
 T-DIPOLE    0.5301        C  1 --  O  3          +13.1% (136.3%)    13.0%
 TRAVEL      0.0858        C  1 --  O 15          +10.9% (124.2%)     5.6%
 RED. MASS   1.2407        C  2 --  H  8           +6.7% ( 97.8%)    82.8%
 EFF. MASS  25.0739

 VIBRATION   10   10A       ATOM PAIR        ENERGY CONTRIBUTION    RADIAL
 FREQ.       440.72        C  1 --  O 15          +19.7% (102.3%)    29.9%
 T-DIPOLE    0.5165        C  1 --  C  2          +13.4% ( 84.3%)     2.3%
 TRAVEL      0.0931        C  1 --  O  3          +13.4% ( 84.2%)    10.2%
 RED. MASS   3.7205        C  1 --  O  4           +9.3% ( 70.3%)     0.0%
 EFF. MASS  17.6417

 VIBRATION   11   11A       ATOM PAIR        ENERGY CONTRIBUTION    RADIAL
 FREQ.       503.41        C  1 --  O 15          +14.3% ( 99.5%)    70.1%
 T-DIPOLE    2.6076        C  1 --  O  4          +13.4% ( 96.1%)     0.8%
 TRAVEL      0.0871        C  1 --  O  3          +11.4% ( 88.7%)    54.6%
 RED. MASS   2.5656        C  1 --  C  2          +10.4% ( 84.7%)     0.3%
 EFF. MASS  17.6593

 VIBRATION   12   12A       ATOM PAIR        ENERGY CONTRIBUTION    RADIAL
 FREQ.       580.83        C  1 --  O  3          +18.2% ( 90.5%)    47.8%
 T-DIPOLE    2.4017        C  1 --  O 15          +13.0% ( 76.6%)    28.5%
 TRAVEL      0.0866        O  3 --  O 15          +10.6% ( 69.2%)    21.9%
 RED. MASS   3.6409        C  1 --  C  2           +9.9% ( 66.7%)     2.0%
 EFF. MASS  15.4744

 VIBRATION   13   13A       ATOM PAIR        ENERGY CONTRIBUTION    RADIAL
 FREQ.       631.23        O 15 --  H 17          +22.8% ( 82.2%)    12.5%
 T-DIPOLE    0.7741        O  3 --  O 15          +15.1% ( 67.1%)    75.9%
 TRAVEL      0.1129        O  3 --  H 16          +14.3% ( 65.1%)     9.9%
 RED. MASS   1.4567        O 15 --  H 16          +12.1% ( 60.0%)    17.6%
 EFF. MASS   8.3801

 VIBRATION   14   14A       ATOM PAIR        ENERGY CONTRIBUTION    RADIAL
 FREQ.       658.57        O 15 --  H 17          +18.9% ( 80.2%)     0.4%
 T-DIPOLE    0.4607        O  3 --  O 15          +14.2% ( 69.6%)    76.9%
 TRAVEL      0.0996        O  3 --  H 16          +13.0% ( 66.6%)     4.3%
 RED. MASS   1.9028        O 15 --  H 16           +9.3% ( 56.3%)    75.6%
 EFF. MASS  10.3277

 VIBRATION   15   15A       ATOM PAIR        ENERGY CONTRIBUTION    RADIAL
 FREQ.       730.89        C  2 --  H  7          +20.5% ( 58.4%)    16.8%
 T-DIPOLE    3.4830        C  1 --  O  3          +12.1% ( 44.8%)    52.2%
 TRAVEL      0.1291        C  2 --  H  8          +11.2% ( 43.1%)     2.7%
 RED. MASS   1.4390        C  2 --  H  9           +9.0% ( 38.7%)     2.0%
 EFF. MASS   5.5390

 VIBRATION   16   16A       ATOM PAIR        ENERGY CONTRIBUTION    RADIAL
 FREQ.       871.75        C  5 --  H 10          +25.7% ( 73.4%)     9.7%
 T-DIPOLE    0.3360        C  5 --  H 11          +25.1% ( 72.5%)     9.5%
 TRAVEL      0.1700        C  6 --  H 12          +16.5% ( 58.8%)     3.6%
 RED. MASS   0.2995        C  6 --  H 13          +14.1% ( 54.2%)     4.8%
 EFF. MASS   2.6750

 VIBRATION   17   17A       ATOM PAIR        ENERGY CONTRIBUTION    RADIAL
 FREQ.       978.12        C  6 --  H 14          +15.2% ( 57.6%)    21.2%
 T-DIPOLE    0.7367        O 15 --  H 17          +14.6% ( 56.5%)     3.2%
 TRAVEL      0.1074        O  3 --  C  5           +7.7% ( 41.1%)    99.0%
 RED. MASS   0.5113        C  1 --  C  2           +7.6% ( 40.8%)    99.6%
 EFF. MASS   5.9805

 VIBRATION   18   18A       ATOM PAIR        ENERGY CONTRIBUTION    RADIAL
 FREQ.       997.34        O 15 --  H 17          +22.9% ( 65.1%)     4.4%
 T-DIPOLE    0.3919        C  6 --  H 14          +15.2% ( 52.9%)    24.0%
 TRAVEL      0.1168        C  6 --  H 13           +8.7% ( 40.0%)     4.3%
 RED. MASS   0.5253        O  3 --  C  5           +7.2% ( 36.3%)    98.6%
 EFF. MASS   4.9548

 VIBRATION   19   19A       ATOM PAIR        ENERGY CONTRIBUTION    RADIAL
 FREQ.      1045.34        C  2 --  H  8          +22.3% ( 63.0%)    46.8%
 T-DIPOLE    0.4706        C  2 --  H  9          +20.5% ( 60.4%)     2.6%
 TRAVEL      0.0955        C  1 --  C  2          +16.8% ( 54.7%)    68.7%
 RED. MASS   1.2049        C  2 --  H  7          +12.5% ( 47.1%)     2.2%
 EFF. MASS   7.0780        O 15 --  H 17          +10.1% ( 42.3%)     2.3%

 VIBRATION   20   20A       ATOM PAIR        ENERGY CONTRIBUTION    RADIAL
 FREQ.      1085.24        C  2 --  H  7          +20.6% ( 58.7%)     8.3%
 T-DIPOLE    1.5521        C  2 --  H  9          +15.7% ( 51.2%)    19.7%
[...]
     664    -163.45661     61.88179       -101.57481  27.03669   129   %  5.4688
     670    -163.57478     62.21854       -101.35624  27.25526   130   %  5.4803
     675    -163.53891     62.61555       -100.92336  27.68814   131   %  5.4881
     681    -163.53726     63.10726       -100.43000  28.18150   132   %  5.4985
     686    -163.57832     63.54081       -100.03751  28.57399   133   %  5.5082
     692    -163.57894     64.15436        -99.42458  29.18692   134   %  5.5199
     697    -163.51517     64.80700        -98.70816  29.90334   135   %  5.5300
     703    -163.50122     65.76295        -97.73827  30.87323   136   %  5.5444
     708    -163.56724     66.61331        -96.95393  31.65757   137   %  5.5569
     713    -163.59985     67.16825        -96.43160  32.17990   138   %  5.5688
     719    -163.60179     67.62086        -95.98093  32.63058   139   %  5.5786
     724    -163.55796     68.07120        -95.48676  33.12475   140   %  5.5859
     730    -163.55260     68.64367        -94.90893  33.70257   141   %  5.5966
     735    -163.60082     69.16051        -94.44032  34.17119   142   %  5.6067
     741    -163.60043     69.91097        -93.68946  34.92205   143   %  5.6191
     746    -163.53178     70.69077        -92.84100  35.77050   144   %  5.6298
     751    -163.59708     71.44939        -92.14770  36.46381   145   %  5.6416
     757    -163.59617     72.56993        -91.02625  37.58526   146   %  5.6563
     762    -163.62703     73.08553        -90.54150  38.07000   147   %  5.6678
     767    -163.59473     73.45737        -90.13736  38.47414   148   %  5.6740
     773    -163.59123     73.91929        -89.67194  38.93957   149   %  5.6828
     779    -163.58590     74.43948        -89.14642  39.46508   150   %  5.6924
     784    -163.63137     74.87202        -88.75935  39.85215   151   %  5.7021
     790    -163.63058     75.47753        -88.15305  40.45845   152   %  5.7125
     796    -163.62614     76.23618        -87.38995  41.22155   153   %  5.7238
     801    -163.54116     77.16792        -86.37324  42.23826   154   %  5.7343
     806    -163.61501     77.71955        -85.89546  42.71604   155   %  5.7453
     812    -163.61342     78.15477        -85.45865  43.15285   156   %  5.7537
     818    -163.60801     78.64175        -84.96627  43.64523   157   %  5.7626
     823    -163.64929     79.05772        -84.59156  44.01994   158   %  5.7719
     829    -163.64660     79.69071        -83.95589  44.65561   159   %  5.7818
     834    -163.58139     80.39758        -83.18381  45.42769   160   %  5.7902
     840    -163.56966     81.34186        -82.22780  46.38370   161   %  5.8030
     845    -163.63428     82.17496        -81.45931  47.15219   162   %  5.8146
     850    -163.66650     82.71677        -80.94973  47.66177   163   %  5.8259
     856    -163.66823     83.15170        -80.51653  48.09497   164   %  5.8343
     862    -163.66891     83.62290        -80.04600  48.56550   165   %  5.8427
     867    -163.62137     84.09659        -79.52478  49.08672   166   %  5.8483
     873    -163.60997     84.73284        -78.87713  49.73437   167   %  5.8580
     878    -163.66240     85.32365        -78.33876  50.27275   168   %  5.8684
     884    -163.65621     86.28973        -77.36647  51.24503   169   %  5.8804
     889    -163.68232     87.08152        -76.60079  52.01071   170   %  5.8932
     895    -163.68496     87.44998        -76.23498  52.37652   171   %  5.9012
     900    -163.65102     87.82861        -75.82240  52.78910   172   %  5.9054
     906    -163.64750     88.29911        -75.34839  53.26312   173   %  5.9135
     912    -163.64409     88.80929        -74.83480  53.77670   174   %  5.9220
     917    -163.68685     89.24430        -74.44255  54.16895   175   %  5.9314
     923    -163.68448     89.88929        -73.79519  54.81631   176   %  5.9409
     929    -163.68158     90.64253        -73.03905  55.57245   177   %  5.9513
     934    -163.60816     91.48293        -72.12524  56.48627   178   %  5.9596
     939    -163.66992     92.31630        -71.35362  57.25788   179   %  5.9709
     945    -163.67122     92.62998        -71.04124  57.57026   180   %  5.9791
     951    -163.66847     93.07389        -70.59459  58.01691   181   %  5.9866
     956    -163.70483     93.45832        -70.24651  58.36499   182   %  5.9955
     962    -163.70414     93.99240        -69.71174  58.89977   183   %  6.0037
     968    -163.70251     94.61240        -69.09012  59.52138   184   %  6.0127
     973    -163.63659     95.28651        -68.35007  60.26143   185   %  6.0190


 IRC CALCULATION COMPLETE 
           INITIAL VELOCITY IN DRC (Angstroms/Femtosecond)
         0.00143         0.06707        -0.08253
         0.00009        -0.00292         0.00165
         0.00498        -0.03487        -0.01875
         0.00033        -0.00481         0.00570
         0.01261        -0.01025         0.00355
         0.00414        -0.00299         0.00247
         0.01848         0.00096         0.00601
        -0.00819         0.00148         0.00014
        -0.00775        -0.00358         0.00397
        -0.02304         0.00930        -0.00756
         0.00037         0.00501         0.00403
         0.00872        -0.00399         0.00106
         0.00624        -0.00741         0.00266
         0.00639        -0.00873        -0.00158
        -0.01473         0.02740         0.04034
        -0.02755        -0.43524         0.43359
        -0.04195         0.03054         0.01655

 GEOMETRY PRIORITY, STEP = 0.1000 ANGSTROMS



     POINT   POTENTIAL  +  ENERGY LOST   =   TOTAL      ERROR    REF%   MOVEMENT
       1    -128.57772      0.00000       -128.57772   0.00000     1   %  0.0000
       6    -128.74254      0.08446       -128.65809  -0.04565     2   %  0.0863
      14    -129.59721      0.88677       -128.71044  -0.09801     3   %  0.1978
      22    -130.87374      2.12626       -128.74748  -0.13505     4   %  0.2969
      29    -132.48081      3.70789       -128.77291  -0.16048     5   %  0.3954
      36    -134.27643      5.48812       -128.78831  -0.17588     6   %  0.4931
      43    -136.15524      7.35832       -128.79691  -0.18448     7   %  0.5893
      49    -138.04977      9.24871       -128.80106  -0.18862     8   %  0.6845
      54    -139.93070     11.12860       -128.80210  -0.18967     9   %  0.7796
      59    -141.73285     12.93207       -128.80079  -0.18835    10   %  0.8731
      63    -143.50275     14.70522       -128.79754  -0.18510    11   %  0.9687
      68    -145.18377     16.39073       -128.79304  -0.18061    12   %  1.0641
      73    -146.78233     17.99494       -128.78739  -0.17496    13   %  1.1601
      77    -148.29592     19.51493       -128.78099  -0.16856    14   %  1.2564
      81    -149.72592     20.95206       -128.77386  -0.16142    15   %  1.3531
      85    -151.07173     22.30558       -128.76615  -0.15372    16   %  1.4497
      89    -152.33538     23.57716       -128.75821  -0.14578    17   %  1.5462
      93    -153.52177     24.77168       -128.75008  -0.13765    18   %  1.6425
      97    -154.63151     25.88970       -128.74182  -0.12938    19   %  1.7384
     101    -155.66722     26.93382       -128.73340  -0.12097    20   %  1.8340
     105    -156.63049     27.90561       -128.72489  -0.11245    21   %  1.9293
     108    -157.52218     28.80584       -128.71633  -0.10390    22   %  2.0240
     112    -158.34659     29.63869       -128.70791  -0.09547    23   %  2.1186
     115    -159.10366     30.40398       -128.69968  -0.08724    24   %  2.2128
     119    -159.79878     31.10707       -128.69171  -0.07928    25   %  2.3069
     122    -160.43120     31.74690       -128.68430  -0.07187    26   %  2.4005
     126    -161.01012     32.33231       -128.67781  -0.06538    27   %  2.4944
     129    -161.53299     32.86075       -128.67224  -0.05980    28   %  2.5878
     133    -162.00663     33.33920       -128.66743  -0.05500    29   %  2.6811
     136    -162.42997     33.76636       -128.66360  -0.05117    30   %  2.7738
     140    -162.80835     34.14800       -128.66035  -0.04791    31   %  2.8660
     143    -163.04801     34.40434       -128.64367  -0.03124    32   %  2.9329
     147    -163.28432     34.71095       -128.57337   0.03907    33   %  2.9956
     151    -163.46244     34.95840       -128.50405   0.10839    34   %  3.0478
     155    -163.59532     35.15398       -128.44133   0.17110    35   %  3.0914
     160    -163.76193     35.41334       -128.34859   0.26385    36   %  3.1451
     164    -163.90129     35.64647       -128.25482   0.35762    37   %  3.1979
     169    -164.01822     35.85609       -128.16213   0.45030    38   %  3.2417
     174    -164.12477     36.06035       -128.06443   0.54801    39   %  3.2875
     179    -164.21867     36.25420       -127.96446   0.64797    40   %  3.3282
     184    -164.30474     36.44471       -127.86004   0.75239    41   %  3.3704
     190    -164.38265     36.62914       -127.75351   0.85892    42   %  3.4080
     195    -164.45350     36.80910       -127.64439   0.96804    43   %  3.4463
     200    -164.51808     36.98510       -127.53297   1.07946    44   %  3.4833
     206    -164.57730     37.15847       -127.41882   1.19361    45   %  3.5174
     211    -164.63191     37.32982       -127.30208   1.31035    46   %  3.5510
     217    -164.68216     37.49789       -127.18426   1.42817    47   %  3.5843
     222    -164.72894     37.66505       -127.06390   1.54854    48   %  3.6165
     228    -164.77210     37.83034       -126.94176   1.67067    49   %  3.6468
     234    -164.81229     37.99409       -126.81820   1.79423    50   %  3.6762
     240    -164.85019     38.15747       -126.69272   1.91971    51   %  3.7047
     245    -164.88553     38.32071       -126.56482   2.04762    52   %  3.7325
     251    -164.91883     38.48131       -126.43752   2.17492    53   %  3.7599
     257    -164.95007     38.64203       -126.30805   2.30439    54   %  3.7866
     263    -164.97930     38.80190       -126.17740   2.43504    55   %  3.8124
     269    -165.00669     38.96115       -126.04554   2.56689    56   %  3.8377
     275    -165.03292     39.12109       -125.91183   2.70061    57   %  3.8622
     281    -165.05783     39.28023       -125.77760   2.83483    58   %  3.8862
     287    -165.07714     39.41401       -125.66313   2.94930    59   %  3.9071
     293    -165.10302     39.59527       -125.50775   3.10468    60   %  3.9326
     300    -165.12374     39.74985       -125.37389   3.23854    61   %  3.9545
     306    -165.14352     39.91070       -125.23281   3.37962    62   %  3.9773
     312    -165.16201     40.06815       -125.09386   3.51857    63   %  3.9991
     318    -165.17980     40.22550       -124.95430   3.65813    64   %  4.0204
     324    -165.19723     40.38308       -124.81414   3.79829    65   %  4.0413
     331    -165.21368     40.54025       -124.67343   3.93900    66   %  4.0616
     337    -165.22888     40.69673       -124.53215   4.08029    67   %  4.0815
     343    -165.24410     40.85469       -124.38941   4.22302    68   %  4.1012
     350    -165.25832     41.01088       -124.24744   4.36499    69   %  4.1210
     356    -165.27148     41.16669       -124.10480   4.50764    70   %  4.1404
     362    -165.28462     41.32328       -123.96134   4.65110    71   %  4.1595
     369    -165.29748     41.48097       -123.81650   4.79593    72   %  4.1780
     375    -165.30950     41.63791       -123.67160   4.94084    73   %  4.1963
     382    -165.32104     41.79402       -123.52702   5.08542    74   %  4.2147
     388    -165.33171     41.94945       -123.38226   5.23018    75   %  4.2331
     395    -165.34205     42.10289       -123.23917   5.37327    76   %  4.2509
     401    -165.35145     42.24822       -123.10323   5.50920    77   %  4.2675
     408    -165.36372     42.42524       -122.93848   5.67395    78   %  4.2863
     414    -165.37270     42.59626       -122.77644   5.83600    79   %  4.3038
     421    -165.38176     42.78136       -122.60040   6.01203    80   %  4.3204
     427    -165.39045     42.97862       -122.41183   6.20061    81   %  4.3366
     434    -165.39834     43.18755       -122.21079   6.40164    82   %  4.3528
     441    -165.40525     43.40535       -121.99990   6.61254    83   %  4.3684
     447    -165.41159     43.61533       -121.79626   6.81617    84   %  4.3822
     454    -165.42276     43.87542       -121.54734   7.06509    85   %  4.3974
     461    -165.42652     44.14485       -121.28167   7.33076    86   %  4.4134
     468    -165.43714     44.42937       -121.00776   7.60467    87   %  4.4279
     475    -165.43956     44.72708       -120.71248   7.89995    88   %  4.4432
     481    -165.44498     44.99619       -120.44879   8.16364    89   %  4.4556
     488    -165.45534     45.32272       -120.13262   8.47982    90   %  4.4691
     495    -165.45733     45.66311       -119.79422   8.81821    91   %  4.4834
     502    -165.46393     46.04790       -119.41603   9.19640    92   %  4.4981
     509    -165.46742     46.38163       -119.08580   9.52664    93   %  4.5104
     516    -165.48015     46.74807       -118.73208   9.88036    94   %  4.5232
     523    -165.47618     47.11972       -118.35646  10.25597    95   %  4.5377
     530    -165.49147     47.48736       -118.00411  10.60832    96   %  4.5506
     537    -165.48659     47.85973       -117.62686  10.98557    97   %  4.5650
     544    -165.50212     48.23044       -117.27168  11.34075    98   %  4.5780
     551    -165.49545     48.61388       -116.88157  11.73086    99   %  4.5925
     558    -165.51298     48.98595       -116.52703  12.08541   100   %  4.6054
     564    -165.51788     49.31275       -116.20513  12.40730   101   %  4.6172
     571    -165.50783     49.70283       -115.80500  12.80743   102   %  4.6320
     578    -165.52838     50.09131       -115.43706  13.17537   103   %  4.6452
     585    -165.51625     50.48649       -115.02976  13.58267   104   %  4.6601
     592    -165.53866     50.87774       -114.66092  13.95151   105   %  4.6734
     599    -165.52487     51.28691       -114.23796  14.37447   106   %  4.6885
     606    -165.54851     51.68224       -113.86628  14.74616   107   %  4.7018
     612    -165.55276     52.03384       -113.51891  15.09352   108   %  4.7140
     619    -165.53660     52.45391       -113.08269  15.52974   109   %  4.7294
     626    -165.56251     52.86985       -112.69266  15.91978   110   %  4.7429
     633    -165.54175     53.31801       -112.22373  16.38870   111   %  4.7588
     640    -165.57210     53.75031       -111.82179  16.79065   112   %  4.7726
     646    -165.57623     54.13748       -111.43876  17.17368   113   %  4.7856
     653    -165.55064     54.60870       -110.94194  17.67050   114   %  4.8021
     660    -165.58548     55.08066       -110.50482  18.10762   115   %  4.8167
     667    -165.55557     55.59799       -109.95758  18.65486   116   %  4.8340
     673    -165.55941     56.04377       -109.51565  19.09679   117   %  4.8481
     680    -165.59885     56.54614       -109.05271  19.55972   118   %  4.8631
     687    -165.56345     57.11713       -108.44632  20.16611   119   %  4.8813
     693    -165.56566     57.61602       -107.94963  20.66280   120   %  4.8961
     700    -165.61127     58.19559       -107.41568  21.19676   121   %  4.9123
     706    -165.61558     58.71310       -106.90248  21.70996   122   %  4.9275
     713    -165.57537     59.38049       -106.19488  22.41755   123   %  4.9471
     719    -165.58082     59.91988       -105.66094  22.95150   124   %  4.9626
     726    -165.62940     60.53170       -105.09769  23.51474   125   %  4.9793
     732    -165.63170     61.11755       -104.51415  24.09828   126   %  4.9951
     738    -165.63533     61.73481       -103.90052  24.71191   127   %  5.0116
     744    -165.63811     62.38158       -103.25653  25.35590   128   %  5.0283
     751    -165.58994     63.21601       -102.37393  26.23850   129   %  5.0499
     757    -165.58452     63.95612       -101.62840  26.98403   130   %  5.0674
     763    -165.58420     64.76981       -100.81440  27.79804   131   %  5.0859
     769    -165.58029     65.70871        -99.87159  28.74084   132   %  5.1056
     775    -165.58520     66.68806        -98.89714  29.71530   133   %  5.1261
     780    -165.65008     67.50198        -98.14810  30.46433   134   %  5.1408
     787    -165.68491     68.40983        -97.27508  31.33736   135   %  5.1633
     793    -165.68774     68.82296        -96.86478  31.74765   136   %  5.1749
     800    -165.65747     69.33384        -96.32362  32.28881   137   %  5.1897
     807    -165.69451     69.84920        -95.84530  32.76713   138   %  5.2038
     813    -165.69745     70.33340        -95.36405  33.24839   139   %  5.2169
     820    -165.65766     70.93771        -94.71996  33.89248   140   %  5.2332
     826    -165.65727     71.47947        -94.17780  34.43463   141   %  5.2472
     833    -165.70444     72.13911        -93.56533  35.04710   142   %  5.2633
     839    -165.70765     72.78958        -92.91807  35.69436   143   %  5.2787
     845    -165.70914     73.45541        -92.25373  36.35870   144   %  5.2941
     852    -165.65496     74.34072        -91.31424  37.29819   145   %  5.3141
     858    -165.64425     75.19088        -90.45338  38.15906   146   %  5.3312
     864    -165.64154     76.18686        -89.45469  39.15775   147   %  5.3495
     870    -165.63051     77.30143        -88.32907  40.28336   148   %  5.3687
     876    -165.74131     77.61784        -88.12347  40.48896   149   %  5.3812
     883    -165.71053     78.12568        -87.58485  41.02759   150   %  5.3941
     890    -165.74668     78.63128        -87.11540  41.49704   151   %  5.4073
     896    -165.74903     79.09536        -86.65367  41.95877   152   %  5.4191
     903    -165.70859     79.69805        -86.01054  42.60189   153   %  5.4336
     910    -165.75371     80.28394        -85.46978  43.14265   154   %  5.4480
     916    -165.75590     80.82880        -84.92711  43.68533   155   %  5.4608
     923    -165.71036     81.52476        -84.18560  44.42684   156   %  5.4766
     929    -165.70681     82.15531        -83.55150  45.06093   157   %  5.4902
     936    -165.75981     82.92902        -82.83079  45.78164   158   %  5.5063
     942    -165.76156     83.67711        -82.08445  46.52798   159   %  5.5212
     949    -165.70041     84.69839        -81.00202  47.61042   160   %  5.5400
     955    -165.69316     85.63720        -80.05596  48.55648   161   %  5.5561
     961    -165.68437     86.73946        -78.94491  49.66752   162   %  5.5734
     967    -165.78843     87.34170        -78.44673  50.16571   163   %  5.5879
     974    -165.75428     87.86639        -77.88789  50.72455   164   %  5.5992
     981    -165.79129     88.41195        -77.37933  51.23310   165   %  5.6117
     987    -165.79150     88.95797        -76.83353  51.77891   166   %  5.6231
     994    -165.73938     89.70297        -76.03641  52.57602   167   %  5.6375
    1001    -165.78917     90.49857        -75.29061  53.32183   168   %  5.6525
    1007    -165.78828     91.32366        -74.46462  54.14781   169   %  5.6667
    1013    -165.78420     92.28424        -73.49996  55.11247   170   %  5.6818


 IRC CALCULATION COMPLETE 

 **********************
 *                    *
 * JOB ENDED NORMALLY *
 *                    *
 **********************



 TOTAL JOB TIME:             7.73 SECONDS

 == MOPAC DONE ==
