 *******************************************************************************
 ** Site#: 29054        For non-commercial use only    Version 18.027W 64BITS **
 *******************************************************************************
 ** Cite this program as: MOPAC2016, Version: 18.027W, James J. P. Stewart,   **
 ** Stewart Computational Chemistry, web: HTTP://OpenMOPAC.net. Days left: 365**
 *******************************************************************************
 **                                                                           **
 **                                MOPAC2016                                  **
 **                                                                           **
 *******************************************************************************

                              PM7 CALCULATION RESULTS


 *******************************************************************************
 *  CALCULATION DONE:                                Sat Jan 27 22:26:46 2018  *
 *  SADDLE     - TRANSITION STATE TO BE OPTIMIZED
 *  T=         - A TIME OF 172800.0 SECONDS REQUESTED
 *  DUMP=N     - RESTART FILE WRITTEN EVERY  7200.000 SECONDS
 *******************************************************************************
saddle
  Ethanol plus acetic acid

   ATOM   CHEMICAL          X               Y               Z
  NUMBER   SYMBOL      (ANGSTROMS)     (ANGSTROMS)     (ANGSTROMS)
 
     1       C         -0.84211527  *  -1.56778565  *  -0.17043336  *
     2       C         -2.18511392  *  -1.25276874  *   0.37552423  *
     3       O         -0.15252389  *   0.50204088  *   0.08552100  *
     4       O          0.08332331  *  -2.18963860  *   0.29798238  *
     5       C          1.23485404  *   0.61116240  *   0.47169751  *
     6       C          1.74214265  *   1.99001044  *   0.09573210  *
     7       H         -2.10752532  *  -0.65810224  *   1.30407749  *
     8       H         -2.79650980  *  -0.66789543  *  -0.32894469  *
     9       H         -2.72524345  *  -2.17848400  *   0.62325567  *
    10       H          1.21020364  *   0.43760337  *   1.56390308  *
    11       H          1.79635791  *  -0.21166449  *  -0.00860313  *
    12       H          1.92158388  *   2.08372170  *  -0.98073848  *
    13       H          1.00117812  *   2.75510690  *   0.37288134  *
    14       H          2.67534634  *   2.23444354  *   0.61281754  *
    15       O         -0.74021827  *  -1.16166880  *  -1.51394948  *
    16       H         -0.25421952  *   0.69204995  *  -0.89243144  *
    17       H          0.13214779  *  -1.41813122  *  -1.90448242  *
 


          CARTESIAN COORDINATES 

    NO.       ATOM           X           Y           Z

     1         C         -0.8421     -1.5678     -0.1704
     2         C         -2.1851     -1.2528      0.3755
     3         O         -0.1525      0.5020      0.0855
     4         O          0.0833     -2.1896      0.2980
     5         C          1.2349      0.6112      0.4717
     6         C          1.7421      1.9900      0.0957
     7         H         -2.1075     -0.6581      1.3041
     8         H         -2.7965     -0.6679     -0.3289
     9         H         -2.7252     -2.1785      0.6233
    10         H          1.2102      0.4376      1.5639
    11         H          1.7964     -0.2117     -0.0086
    12         H          1.9216      2.0837     -0.9807
    13         H          1.0012      2.7551      0.3729
    14         H          2.6753      2.2344      0.6128
    15         O         -0.7402     -1.1617     -1.5139
    16         H         -0.2542      0.6920     -0.8924
    17         H          0.1321     -1.4181     -1.9045

 General Reference for PM7:
 "Optimization of Parameters for Semiempirical Methods VI: More Modifications to the 
 NDDO Approximations and Re-optimization of Parameters", J. J. P. Stewart, J. Mol. Mod., 1:32, 19 (2013)
 http://www.springerlink.com/openurl.asp?genre=article&id=doi:10.1007/s00894-012-1667-x

           Empirical Formula: C4 H10 O3  =    17 atoms



      MOLECULAR POINT GROUP   :   C1  


      RHF CALCULATION, NO. OF DOUBLY OCCUPIED LEVELS = 22



  CARTESIAN GEOMETRY OF FIRST SYSTEM


   1    C         -0.72353      -1.16993      -0.04569
   2    C         -2.01846      -1.34410       0.66705
   3    O         -0.04545      -0.01708       0.44246
   4    O         -0.24252      -1.91059      -0.87263
   5    C          1.39029       0.18350       0.19998
   6    C          1.78293       1.64512       0.38630
   7    H         -1.86076      -1.37594       1.75197
   8    H         -2.72357      -0.52903       0.43792
   9    H         -2.52538      -2.28253       0.37740
  10    H          1.88022      -0.43911       0.96782
  11    H          1.64240      -0.17210      -0.81178
  12    H          1.63061       2.27370      -0.49884
  13    H          1.26388       2.13415       1.22102
  14    H          2.86123       1.71654       0.61828
  15    O         -1.14220       0.31460      -1.61100
  16    H         -0.75068       1.09032      -1.15789
  17    H         -0.41900      -0.11751      -2.07239


  CARTESIAN GEOMETRY OF SECOND SYSTEM


   1    C         -1.06500      -1.31277      -0.58139
   2    C         -2.09798      -1.35983       0.48243
   3    O         -0.04319       0.38879       0.35979
   4    O         -0.13569      -2.04780      -0.82359
   5    C          1.39495       0.34813       0.23346
   6    C          1.94253       1.75227       0.40221
   7    H         -1.63872      -1.29616       1.48587
   8    H         -2.81582      -0.52859       0.40567
   9    H         -2.65366      -2.30804       0.43580
  10    H          1.70285      -0.34092       1.04219
  11    H          1.64666      -0.10941      -0.74139
  12    H          1.77312       2.37019      -0.48619
  13    H          1.44872       2.25247       1.24906
  14    H          3.01793       1.74715       0.60585
  15    O         -1.34949      -0.29482      -1.51047
  16    H         -0.42966       1.03102      -0.30431
  17    H         -0.69755      -0.29169      -2.25497


   "DISTANCE":     1.565781


  REACTION COORDINATE VECTOR


   1    C          0.34147       0.14284       0.53570
   2    C          0.07952       0.01573       0.18462
   3    O         -0.00227      -0.40588       0.08268
   4    O         -0.10683       0.13721      -0.04904
   5    C         -0.00466      -0.16463      -0.03348
   6    C         -0.15960      -0.10715      -0.01591
   7    H         -0.22205      -0.07978       0.26611
   8    H          0.09225      -0.00044       0.03225
   9    H          0.12828       0.02551      -0.05839
  10    H          0.17737      -0.09820      -0.07437
  11    H         -0.00426      -0.06268      -0.07040
  12    H         -0.14250      -0.09648      -0.01265
  13    H         -0.18484      -0.11833      -0.02804
  14    H         -0.15670      -0.03061       0.01243
  15    O          0.20728       0.60942      -0.10052
  16    H         -0.32102       0.05930      -0.85358
  17    H          0.27855       0.17417       0.18259
 *+*+*+*+*+*+*+*+*+*+*+*+*+*+*+*+*+*+*+*+*+*+*+*+*+*+*+*+*+*+*+*+*+*+*+*+*+*+*+*+
            BAR SHORTENED BY       0.000 PERCENT
 GRADIENT CRITERION IN FLEPO =     1.000
           THERE HAVE BEEN 3 ATTEMPTS TO REDUCE THE GRADIENT.
           DURING THESE ATTEMPTS THE ENERGY DROPPED BY LESS THAN 0.3 KCAL/MOLE
           FURTHER CALCULATION IS NOT JUSTIFIED AT THIS TIME.
           TO CONTINUE, START AGAIN WITH THE WORD "PRECISE"


          FOR POINT    1 SECOND STRUCTURE
 DISTANCE A - B      1.565781
 HEAT             -162.451277
 GRADIENT NORM      20.481453
 DIRECTION COSINE   -0.000000
 saddle
  Ethanol plus acetic acid

  C     0.00000000 +1    0.0000000 +1    0.0000000 +1     0     0     0
  C     1.48761304 +1    0.0000000 +1    0.0000000 +1     1     0     0
  O     1.39205585 +1  109.3891825 +1    0.0000000 +1     1     2     0
  O     1.20350221 +1  129.0973858 +1  176.1541666 +1     1     2     3
  C     1.43421052 +1  117.2888471 +1  164.0114499 +1     3     1     2
  C     1.52557337 +1  109.3951538 +1  161.2439900 +1     5     3     1
  H     1.10021709 +1  109.5964708 +1  -54.0926043 +1     2     1     3
  H     1.10484907 +1  112.1042358 +1   65.3704042 +1     2     1     3
  H     1.10404050 +1  112.3039699 +1 -174.6093593 +1     2     1     3
  H     1.10507336 +1  104.6851127 +1  -79.5399230 +1     5     3     1
  H     1.10428100 +1  109.8128500 +1   38.4830435 +1     5     3     1
  H     1.09533261 +1  113.3297595 +1  -80.6905651 +1     6     5     3
  H     1.09715726 +1  112.5584657 +1   41.6918781 +1     6     5     3
  H     1.10285194 +1  109.8473555 +1  160.4144754 +1     6     5     3
  O     2.32153396 +1   94.8603046 +1  -83.0721264 +1     1     2     3
  H     0.97800754 +1   77.0928195 +1  109.2548196 +1    15     1     2
  H     0.95863544 +1   88.1605347 +1 -143.0621781 +1    15     1     2
 
 TIME=     0.17
  REACTANTS AND PRODUCTS SWAPPED AROUND
 *+*+*+*+*+*+*+*+*+*+*+*+*+*+*+*+*+*+*+*+*+*+*+*+*+*+*+*+*+*+*+*+*+*+*+*+*+*+*+*+
            BAR SHORTENED BY       1.000 PERCENT
 GRADIENT CRITERION IN FLEPO =    10.000


          FOR POINT    2 FIRST  STRUCTURE
 DISTANCE A - B      1.550123
 HEAT             -160.567718
 GRADIENT NORM      24.053808
 DIRECTION COSINE    0.711214
 saddle
  Ethanol plus acetic acid

  C     0.00000000 +1    0.0000000 +1    0.0000000 +1     0     0     0
  C     1.48658544 +1    0.0000000 +1    0.0000000 +1     1     0     0
  O     2.23885972 +1   91.2663365 +1    0.0000000 +1     1     2     0
  O     1.20422794 +1  129.7027883 +1  106.1264017 +1     1     2     3
  C     1.41754130 +1  111.8264813 +1  144.6566470 +1     3     1     2
  C     1.51974376 +1  107.6147970 +1  156.4475360 +1     5     3     1
  H     1.10028901 +1  112.4157708 +1  -45.2825350 +1     2     1     3
  H     1.10326111 +1  111.5117891 +1   74.5376920 +1     2     1     3
  H     1.09515392 +1  109.6217101 +1 -164.8099308 +1     2     1     3
  H     1.10121396 +1  103.3425282 +1  -83.3536711 +1     5     3     1
  H     1.10193760 +1  110.4974717 +1   32.4718598 +1     5     3     1
  H     1.08684694 +1  111.5504607 +1  -76.2838589 +1     6     5     3
  H     1.09934346 +1  109.3786769 +1   43.0372080 +1     6     5     3
  H     1.09396196 +1  111.7886174 +1  162.0078758 +1     6     5     3
  O     1.38491202 +1  111.0952097 +1  -81.3299552 +1     1     2     3
  H     1.00504302 +1   85.5436506 +1 -105.3346435 +1     3     1     2
  H     0.98029312 +1  113.2120782 +1 -178.0818171 +1    15     1     2
 
 TIME=     0.03
  REACTANTS AND PRODUCTS SWAPPED AROUND
 *+*+*+*+*+*+*+*+*+*+*+*+*+*+*+*+*+*+*+*+*+*+*+*+*+*+*+*+*+*+*+*+*+*+*+*+*+*+*+*+
            BAR SHORTENED BY       1.000 PERCENT
 GRADIENT CRITERION IN FLEPO =    10.000


          FOR POINT    3 SECOND STRUCTURE
 DISTANCE A - B      1.534622
 HEAT             -162.085481
 GRADIENT NORM      28.790053
 DIRECTION COSINE    0.721973
 saddle
  Ethanol plus acetic acid

  C     0.00000000 +1    0.0000000 +1    0.0000000 +1     0     0     0
  C     1.48657477 +1    0.0000000 +1    0.0000000 +1     1     0     0
  O     1.40036876 +1  109.2270479 +1    0.0000000 +1     1     2     0
  O     1.20180954 +1  129.3447491 +1  175.5021447 +1     1     2     3
  C     1.43388563 +1  117.2350631 +1  163.8040891 +1     3     1     2
  C     1.52542410 +1  109.3779385 +1  161.1517993 +1     5     3     1
  H     1.09965100 +1  109.6228800 +1  -53.9342822 +1     2     1     3
  H     1.10464088 +1  112.0862348 +1   65.5234977 +1     2     1     3
  H     1.10370839 +1  112.2681246 +1 -174.4270850 +1     2     1     3
  H     1.10491905 +1  104.6699407 +1  -79.6279008 +1     5     3     1
  H     1.10422811 +1  109.8159596 +1   38.3775412 +1     5     3     1
  H     1.09524594 +1  113.3122839 +1  -80.6467145 +1     6     5     3
  H     1.09717807 +1  112.5275359 +1   41.7030301 +1     6     5     3
  H     1.10273155 +1  109.8670439 +1  160.4294535 +1     6     5     3
  O     2.31204527 +1   95.0252825 +1  -83.1897558 +1     1     2     3
  H     0.98805134 +1   77.2090847 +1  108.9979825 +1    15     1     2
  H     0.95764952 +1   88.3867165 +1 -143.3990285 +1    15     1     2
 
 *+*+*+*+*+*+*+*+*+*+*+*+*+*+*+*+*+*+*+*+*+*+*+*+*+*+*+*+*+*+*+*+*+*+*+*+*+*+*+*+
            BAR SHORTENED BY       1.000 PERCENT
 GRADIENT CRITERION IN FLEPO =    10.000


          FOR POINT    4 SECOND STRUCTURE
 DISTANCE A - B      1.519276
 HEAT             -161.748360
 GRADIENT NORM      27.245568
 DIRECTION COSINE    0.957562
 saddle
  Ethanol plus acetic acid

  C     0.00000000 +1    0.0000000 +1    0.0000000 +1     0     0     0
  C     1.49180442 +1    0.0000000 +1    0.0000000 +1     1     0     0
  O     1.39787521 +1  109.1301062 +1    0.0000000 +1     1     2     0
  O     1.20198892 +1  129.0383602 +1  175.5416053 +1     1     2     3
  C     1.43470305 +1  117.2231947 +1  163.7564415 +1     3     1     2
  C     1.52491980 +1  109.8152040 +1  161.1350648 +1     5     3     1
  H     1.09904085 +1  109.1322084 +1  -53.8900368 +1     2     1     3
  H     1.10558946 +1  112.2377255 +1   64.9699145 +1     2     1     3
  H     1.10254587 +1  112.6018976 +1 -174.2838411 +1     2     1     3
  H     1.10349486 +1  104.6931635 +1  -79.3382279 +1     5     3     1
  H     1.10279331 +1  109.6308640 +1   38.4461690 +1     5     3     1
  H     1.09505997 +1  113.4971331 +1  -80.6161625 +1     6     5     3
  H     1.09674030 +1  112.4179325 +1   41.8213169 +1     6     5     3
  H     1.10305157 +1  110.1422649 +1  160.4056104 +1     6     5     3
  O     2.30286032 +1   95.0511932 +1  -83.0205822 +1     1     2     3
  H     0.98667888 +1   77.2260256 +1  108.6505779 +1    15     1     2
  H     0.95766326 +1   88.7113005 +1 -142.9712521 +1    15     1     2
 
 *+*+*+*+*+*+*+*+*+*+*+*+*+*+*+*+*+*+*+*+*+*+*+*+*+*+*+*+*+*+*+*+*+*+*+*+*+*+*+*+
            BAR SHORTENED BY       1.000 PERCENT
 GRADIENT CRITERION IN FLEPO =    10.000


          FOR POINT    5 SECOND STRUCTURE
 DISTANCE A - B      1.504083
 HEAT             -161.360398
 GRADIENT NORM      30.520291
 DIRECTION COSINE    0.851411
 saddle
  Ethanol plus acetic acid

  C     0.00000000 +1    0.0000000 +1    0.0000000 +1     0     0     0
  C     1.48589049 +1    0.0000000 +1    0.0000000 +1     1     0     0
  O     1.40026428 +1  109.1663636 +1    0.0000000 +1     1     2     0
  O     1.20675831 +1  129.2326828 +1  175.0360775 +1     1     2     3
  C     1.43476991 +1  117.4378038 +1  163.6568253 +1     3     1     2
  C     1.52631665 +1  110.0737962 +1  161.2763160 +1     5     3     1
  H     1.09848211 +1  109.0926737 +1  -54.0123440 +1     2     1     3
  H     1.10440876 +1  112.5877546 +1   65.0457919 +1     2     1     3
  H     1.10276522 +1  112.8846489 +1 -174.1005862 +1     2     1     3
  H     1.10269117 +1  104.2498205 +1  -79.4968877 +1     5     3     1
  H     1.10100769 +1  109.8302573 +1   38.7364594 +1     5     3     1
  H     1.09776806 +1  113.2346948 +1  -80.6944904 +1     6     5     3
  H     1.09475828 +1  112.5126299 +1   41.5446897 +1     6     5     3
  H     1.10305255 +1  110.1215187 +1  160.3773253 +1     6     5     3
  O     2.29313422 +1   95.2433367 +1  -83.0433374 +1     1     2     3
  H     0.98811482 +1   77.3861188 +1  108.5262977 +1    15     1     2
  H     0.95847134 +1   88.7769861 +1 -143.0973375 +1    15     1     2
 
 TIME=     0.03
  REACTANTS AND PRODUCTS SWAPPED AROUND
 *+*+*+*+*+*+*+*+*+*+*+*+*+*+*+*+*+*+*+*+*+*+*+*+*+*+*+*+*+*+*+*+*+*+*+*+*+*+*+*+
            BAR SHORTENED BY       0.000 PERCENT
 GRADIENT CRITERION IN FLEPO =    10.000


          FOR POINT    6 FIRST  STRUCTURE
 DISTANCE A - B      1.504083
 HEAT             -160.666805
 GRADIENT NORM      21.258444
 DIRECTION COSINE    0.865178
 saddle
  Ethanol plus acetic acid

  C     0.00000000 +1    0.0000000 +1    0.0000000 +1     0     0     0
  C     1.48799145 +1    0.0000000 +1    0.0000000 +1     1     0     0
  O     2.24091674 +1   91.1471748 +1    0.0000000 +1     1     2     0
  O     1.19916750 +1  129.8147842 +1  106.0688069 +1     1     2     3
  C     1.41720180 +1  111.6510148 +1  144.5809630 +1     3     1     2
  C     1.52063662 +1  107.6064225 +1  156.5820390 +1     5     3     1
  H     1.10545858 +1  112.2606009 +1  -45.7181713 +1     2     1     3
  H     1.10022345 +1  111.8054687 +1   74.5503559 +1     2     1     3
  H     1.09929226 +1  109.4863852 +1 -164.7685492 +1     2     1     3
  H     1.10413582 +1  103.7744912 +1  -83.2383429 +1     5     3     1
  H     1.10473938 +1  110.2772017 +1   32.7686805 +1     5     3     1
  H     1.09339406 +1  111.4818970 +1  -75.8737199 +1     6     5     3
  H     1.09889247 +1  109.2505178 +1   42.8627639 +1     6     5     3
  H     1.08979875 +1  111.9482176 +1  162.3593536 +1     6     5     3
  O     1.38811763 +1  110.7315226 +1  -81.1814136 +1     1     2     3
  H     0.99890363 +1   85.5344400 +1 -105.0250610 +1     3     1     2
  H     0.98844512 +1  113.2793343 +1 -177.8263302 +1    15     1     2
 
 TIME=     0.02
  REACTANTS AND PRODUCTS SWAPPED AROUND
 *+*+*+*+*+*+*+*+*+*+*+*+*+*+*+*+*+*+*+*+*+*+*+*+*+*+*+*+*+*+*+*+*+*+*+*+*+*+*+*+
            BAR SHORTENED BY       1.000 PERCENT
 GRADIENT CRITERION IN FLEPO =    10.000


          FOR POINT    7 SECOND STRUCTURE
 DISTANCE A - B      1.489042
 HEAT             -161.001942
 GRADIENT NORM      29.131930
 DIRECTION COSINE    0.857082
 saddle
  Ethanol plus acetic acid

  C     0.00000000 +1    0.0000000 +1    0.0000000 +1     0     0     0
  C     1.48848176 +1    0.0000000 +1    0.0000000 +1     1     0     0
  O     1.39647309 +1  109.3015284 +1    0.0000000 +1     1     2     0
  O     1.20624700 +1  128.8509598 +1  174.0127665 +1     1     2     3
  C     1.43524102 +1  117.6280267 +1  163.2100538 +1     3     1     2
  C     1.52658279 +1  110.3299625 +1  161.0797090 +1     5     3     1
  H     1.09885755 +1  108.6558749 +1  -53.6612964 +1     2     1     3
  H     1.10442036 +1  112.3892047 +1   65.1135956 +1     2     1     3
  H     1.10293285 +1  113.0907057 +1 -173.9037846 +1     2     1     3
  H     1.10436302 +1  104.4588049 +1  -79.7080852 +1     5     3     1
  H     1.10308951 +1  109.5111677 +1   38.4998239 +1     5     3     1
  H     1.09657896 +1  113.4738648 +1  -80.4493416 +1     6     5     3
  H     1.09647697 +1  112.6007552 +1   41.8877003 +1     6     5     3
  H     1.10775862 +1  110.1407047 +1  160.6018449 +1     6     5     3
  O     2.27661841 +1   95.5416039 +1  -83.3579220 +1     1     2     3
  H     0.98847913 +1   77.3684365 +1  108.6926592 +1    15     1     2
  H     0.96018648 +1   88.8664711 +1 -143.2017493 +1    15     1     2
 
 *+*+*+*+*+*+*+*+*+*+*+*+*+*+*+*+*+*+*+*+*+*+*+*+*+*+*+*+*+*+*+*+*+*+*+*+*+*+*+*+
            BAR SHORTENED BY       1.000 PERCENT
 GRADIENT CRITERION IN FLEPO =    10.000


          FOR POINT    8 SECOND STRUCTURE
 DISTANCE A - B      1.474152
 HEAT             -160.604805
 GRADIENT NORM      31.140474
 DIRECTION COSINE    0.779580
 saddle
  Ethanol plus acetic acid

  C     0.00000000 +1    0.0000000 +1    0.0000000 +1     0     0     0
  C     1.48722777 +1    0.0000000 +1    0.0000000 +1     1     0     0
  O     1.40255963 +1  109.0027930 +1    0.0000000 +1     1     2     0
  O     1.19896898 +1  129.1694256 +1  173.9758156 +1     1     2     3
  C     1.43422912 +1  117.5899427 +1  162.9283762 +1     3     1     2
  C     1.52733115 +1  110.4786596 +1  161.4972818 +1     5     3     1
  H     1.10042331 +1  107.9229796 +1  -54.3326878 +1     2     1     3
  H     1.10372534 +1  112.9171853 +1   64.7034624 +1     2     1     3
  H     1.10230545 +1  112.7695127 +1 -174.0295058 +1     2     1     3
  H     1.10515399 +1  104.5085462 +1  -79.5054961 +1     5     3     1
  H     1.10263627 +1  109.5262757 +1   38.5425946 +1     5     3     1
  H     1.09543999 +1  113.4384305 +1  -80.3535511 +1     6     5     3
  H     1.09507008 +1  112.7318266 +1   41.8297279 +1     6     5     3
  H     1.10294193 +1  110.1220981 +1  160.9456309 +1     6     5     3
  O     2.26917437 +1   95.5178502 +1  -82.9489149 +1     1     2     3
  H     0.98918393 +1   77.5534562 +1  108.3238985 +1    15     1     2
  H     0.96011088 +1   88.7562610 +1 -143.5101711 +1    15     1     2
 
 TIME=     0.03
  REACTANTS AND PRODUCTS SWAPPED AROUND
 *+*+*+*+*+*+*+*+*+*+*+*+*+*+*+*+*+*+*+*+*+*+*+*+*+*+*+*+*+*+*+*+*+*+*+*+*+*+*+*+
            BAR SHORTENED BY       1.000 PERCENT
 GRADIENT CRITERION IN FLEPO =    10.000


          FOR POINT    9 FIRST  STRUCTURE
 DISTANCE A - B      1.459410
 HEAT             -160.464241
 GRADIENT NORM      20.958251
 DIRECTION COSINE    0.783286
 saddle
  Ethanol plus acetic acid

  C     0.00000000 +1    0.0000000 +1    0.0000000 +1     0     0     0
  C     1.48838285 +1    0.0000000 +1    0.0000000 +1     1     0     0
  O     2.23411613 +1   91.0846229 +1    0.0000000 +1     1     2     0
  O     1.20040869 +1  129.6576236 +1  106.0582452 +1     1     2     3
  C     1.41817008 +1  111.5755288 +1  144.4190968 +1     3     1     2
  C     1.52115864 +1  107.4062523 +1  156.5090338 +1     5     3     1
  H     1.10585764 +1  112.7169152 +1  -45.4453866 +1     2     1     3
  H     1.10249104 +1  111.5177914 +1   74.6957070 +1     2     1     3
  H     1.10027048 +1  109.2457263 +1 -164.7721444 +1     2     1     3
  H     1.10564555 +1  104.0349702 +1  -83.3402653 +1     5     3     1
  H     1.10939740 +1  109.8969698 +1   32.3947173 +1     5     3     1
  H     1.09278340 +1  111.3767928 +1  -75.7458300 +1     6     5     3
  H     1.10166523 +1  109.3979036 +1   42.9746120 +1     6     5     3
  H     1.09233477 +1  111.8451742 +1  162.5130465 +1     6     5     3
  O     1.38906865 +1  110.6832394 +1  -81.2047082 +1     1     2     3
  H     1.00057894 +1   85.2231992 +1 -105.0456281 +1     3     1     2
  H     0.98110509 +1  113.1254122 +1 -177.6249659 +1    15     1     2
 
 TIME=     0.02
  REACTANTS AND PRODUCTS SWAPPED AROUND
 *+*+*+*+*+*+*+*+*+*+*+*+*+*+*+*+*+*+*+*+*+*+*+*+*+*+*+*+*+*+*+*+*+*+*+*+*+*+*+*+
            BAR SHORTENED BY       1.000 PERCENT
 GRADIENT CRITERION IN FLEPO =    10.000


          FOR POINT   10 SECOND STRUCTURE
 DISTANCE A - B      1.444816
 HEAT             -160.198982
 GRADIENT NORM      30.149734
 DIRECTION COSINE    0.868383
 saddle
  Ethanol plus acetic acid

  C     0.00000000 +1    0.0000000 +1    0.0000000 +1     0     0     0
  C     1.48589053 +1    0.0000000 +1    0.0000000 +1     1     0     0
  O     1.40543257 +1  109.0167948 +1    0.0000000 +1     1     2     0
  O     1.20192475 +1  129.2707999 +1  173.5363542 +1     1     2     3
  C     1.43438049 +1  117.7335502 +1  162.6528884 +1     3     1     2
  C     1.52709230 +1  110.6006205 +1  161.4591754 +1     5     3     1
  H     1.09826422 +1  108.1123104 +1  -54.1330637 +1     2     1     3
  H     1.10489353 +1  112.9082447 +1   64.7640156 +1     2     1     3
  H     1.10247279 +1  112.9156028 +1 -173.8866062 +1     2     1     3
  H     1.10411468 +1  104.4594887 +1  -79.3708542 +1     5     3     1
  H     1.10230613 +1  109.4331900 +1   38.7546997 +1     5     3     1
  H     1.09553621 +1  113.6411086 +1  -80.4183621 +1     6     5     3
  H     1.09488002 +1  112.8464882 +1   42.2906105 +1     6     5     3
  H     1.10549113 +1  109.8893546 +1  160.8930117 +1     6     5     3
  O     2.25529167 +1   95.7080504 +1  -82.9301205 +1     1     2     3
  H     0.98723710 +1   77.6333285 +1  108.3477656 +1    15     1     2
  H     0.96041091 +1   88.4832750 +1 -144.2482521 +1    15     1     2
 
 TIME=     0.02
  REACTANTS AND PRODUCTS SWAPPED AROUND
 *+*+*+*+*+*+*+*+*+*+*+*+*+*+*+*+*+*+*+*+*+*+*+*+*+*+*+*+*+*+*+*+*+*+*+*+*+*+*+*+
            BAR SHORTENED BY       1.000 PERCENT
 GRADIENT CRITERION IN FLEPO =    10.000


          FOR POINT   11 FIRST  STRUCTURE
 DISTANCE A - B      1.430368
 HEAT             -160.223804
 GRADIENT NORM      23.789882
 DIRECTION COSINE    0.893686
 saddle
  Ethanol plus acetic acid

  C     0.00000000 +1    0.0000000 +1    0.0000000 +1     0     0     0
  C     1.48222940 +1    0.0000000 +1    0.0000000 +1     1     0     0
  O     2.22391503 +1   91.3352943 +1    0.0000000 +1     1     2     0
  O     1.19979442 +1  130.1703305 +1  106.4374791 +1     1     2     3
  C     1.41817383 +1  111.5475309 +1  144.4614477 +1     3     1     2
  C     1.52139955 +1  107.2624313 +1  156.7604313 +1     5     3     1
  H     1.10541790 +1  112.7945475 +1  -44.5479067 +1     2     1     3
  H     1.09924571 +1  111.7367105 +1   74.6016963 +1     2     1     3
  H     1.10006205 +1  109.2731916 +1 -164.8165238 +1     2     1     3
  H     1.10900099 +1  104.2552305 +1  -83.3852662 +1     5     3     1
  H     1.10436353 +1  109.9820553 +1   32.6974073 +1     5     3     1
  H     1.09741841 +1  111.3599526 +1  -75.8218852 +1     6     5     3
  H     1.09929463 +1  109.5579188 +1   42.8152150 +1     6     5     3
  H     1.09186381 +1  112.0381614 +1  162.7270881 +1     6     5     3
  O     1.39415785 +1  110.5479732 +1  -81.4714929 +1     1     2     3
  H     1.00294741 +1   85.1778509 +1 -105.0841263 +1     3     1     2
  H     0.98294229 +1  113.1674030 +1 -177.3501965 +1    15     1     2
 
 *+*+*+*+*+*+*+*+*+*+*+*+*+*+*+*+*+*+*+*+*+*+*+*+*+*+*+*+*+*+*+*+*+*+*+*+*+*+*+*+
            BAR SHORTENED BY       1.000 PERCENT
 GRADIENT CRITERION IN FLEPO =    10.000


          FOR POINT   12 FIRST  STRUCTURE
 DISTANCE A - B      1.416064
 HEAT             -159.977059
 GRADIENT NORM      24.750791
 DIRECTION COSINE    0.939373
 saddle
  Ethanol plus acetic acid

  C     0.00000000 +1    0.0000000 +1    0.0000000 +1     0     0     0
  C     1.48378189 +1    0.0000000 +1    0.0000000 +1     1     0     0
  O     2.21679747 +1   91.1153665 +1    0.0000000 +1     1     2     0
  O     1.19970912 +1  130.3663367 +1  106.2691181 +1     1     2     3
  C     1.41780530 +1  111.5398284 +1  144.3440690 +1     3     1     2
  C     1.51889494 +1  107.2269932 +1  156.6027648 +1     5     3     1
  H     1.10347670 +1  113.2297208 +1  -45.2136538 +1     2     1     3
  H     1.09786658 +1  111.7402206 +1   75.1478864 +1     2     1     3
  H     1.10448101 +1  108.9391298 +1 -164.6865386 +1     2     1     3
  H     1.10672819 +1  104.4952878 +1  -83.1916168 +1     5     3     1
  H     1.10514731 +1  109.8738135 +1   32.7680933 +1     5     3     1
  H     1.09516025 +1  111.6170946 +1  -75.4634634 +1     6     5     3
  H     1.10250738 +1  109.4833390 +1   43.1621809 +1     6     5     3
  H     1.09204848 +1  112.1247490 +1  162.6852803 +1     6     5     3
  O     1.39397539 +1  110.4489356 +1  -81.3961728 +1     1     2     3
  H     1.00653991 +1   84.9585494 +1 -105.3443719 +1     3     1     2
  H     0.98048675 +1  113.3609757 +1 -177.1892665 +1    15     1     2
 
 TIME=     0.03
  REACTANTS AND PRODUCTS SWAPPED AROUND
 *+*+*+*+*+*+*+*+*+*+*+*+*+*+*+*+*+*+*+*+*+*+*+*+*+*+*+*+*+*+*+*+*+*+*+*+*+*+*+*+
            BAR SHORTENED BY       1.000 PERCENT
 GRADIENT CRITERION IN FLEPO =    10.000


          FOR POINT   13 SECOND STRUCTURE
 DISTANCE A - B      1.401904
 HEAT             -159.734492
 GRADIENT NORM      37.162342
 DIRECTION COSINE    0.870230
 saddle
  Ethanol plus acetic acid

  C     0.00000000 +1    0.0000000 +1    0.0000000 +1     0     0     0
  C     1.48491777 +1    0.0000000 +1    0.0000000 +1     1     0     0
  O     1.41339789 +1  108.8541738 +1    0.0000000 +1     1     2     0
  O     1.20036091 +1  129.5038292 +1  172.9099959 +1     1     2     3
  C     1.43403780 +1  117.6725234 +1  162.4581273 +1     3     1     2
  C     1.52694541 +1  110.5677266 +1  161.3685547 +1     5     3     1
  H     1.09792268 +1  108.1597882 +1  -53.9781124 +1     2     1     3
  H     1.10469690 +1  112.8894866 +1   64.9274579 +1     2     1     3
  H     1.10230461 +1  112.8694871 +1 -173.7189754 +1     2     1     3
  H     1.10405633 +1  104.4573272 +1  -79.4549949 +1     5     3     1
  H     1.10229908 +1  109.4334134 +1   38.6530092 +1     5     3     1
  H     1.09553237 +1  113.6219993 +1  -80.3683897 +1     6     5     3
  H     1.09495617 +1  112.8138839 +1   42.2970868 +1     6     5     3
  H     1.10534129 +1  109.9118697 +1  160.9104165 +1     6     5     3
  O     2.24657751 +1   95.8601668 +1  -83.0375124 +1     1     2     3
  H     0.99691716 +1   77.7367673 +1  108.1085189 +1    15     1     2
  H     0.95946982 +1   88.7120106 +1 -144.5662531 +1    15     1     2
 
 TIME=     0.00
  REACTANTS AND PRODUCTS SWAPPED AROUND
 *+*+*+*+*+*+*+*+*+*+*+*+*+*+*+*+*+*+*+*+*+*+*+*+*+*+*+*+*+*+*+*+*+*+*+*+*+*+*+*+
            BAR SHORTENED BY       1.000 PERCENT
 GRADIENT CRITERION IN FLEPO =    10.000


          FOR POINT   14 FIRST  STRUCTURE
 DISTANCE A - B      1.387885
 HEAT             -159.717132
 GRADIENT NORM      28.601320
 DIRECTION COSINE    0.837579
 saddle
  Ethanol plus acetic acid

  C     0.00000000 +1    0.0000000 +1    0.0000000 +1     0     0     0
  C     1.48573200 +1    0.0000000 +1    0.0000000 +1     1     0     0
  O     2.20791547 +1   91.3132280 +1    0.0000000 +1     1     2     0
  O     1.19835604 +1  130.4137094 +1  106.4186125 +1     1     2     3
  C     1.41802324 +1  111.4681417 +1  144.2877591 +1     3     1     2
  C     1.52249577 +1  107.0481918 +1  156.6631060 +1     5     3     1
  H     1.10728378 +1  113.1860773 +1  -45.1432304 +1     2     1     3
  H     1.10088678 +1  111.4668967 +1   75.0226134 +1     2     1     3
  H     1.09929409 +1  109.0125411 +1 -164.6796309 +1     2     1     3
  H     1.10827301 +1  104.4656564 +1  -83.3511668 +1     5     3     1
  H     1.10366076 +1  109.4828449 +1   32.7866045 +1     5     3     1
  H     1.09398909 +1  111.3026154 +1  -75.3520380 +1     6     5     3
  H     1.09915922 +1  109.4609491 +1   43.0509029 +1     6     5     3
  H     1.09123008 +1  111.8569192 +1  162.9084315 +1     6     5     3
  O     1.39772519 +1  110.0966216 +1  -81.7537053 +1     1     2     3
  H     1.00941963 +1   84.7867869 +1 -105.5458276 +1     3     1     2
  H     0.98572550 +1  112.7580404 +1 -177.0298168 +1    15     1     2
 
 TIME=     0.02
  REACTANTS AND PRODUCTS SWAPPED AROUND
 *+*+*+*+*+*+*+*+*+*+*+*+*+*+*+*+*+*+*+*+*+*+*+*+*+*+*+*+*+*+*+*+*+*+*+*+*+*+*+*+
            BAR SHORTENED BY       1.000 PERCENT
 GRADIENT CRITERION IN FLEPO =    10.000


          FOR POINT   15 SECOND STRUCTURE
 DISTANCE A - B      1.374006
 HEAT             -159.280475
 GRADIENT NORM      37.798709
 DIRECTION COSINE    0.835872
 saddle
  Ethanol plus acetic acid

  C     0.00000000 +1    0.0000000 +1    0.0000000 +1     0     0     0
  C     1.48999457 +1    0.0000000 +1    0.0000000 +1     1     0     0
  O     1.41177399 +1  108.6847937 +1    0.0000000 +1     1     2     0
  O     1.20126306 +1  129.3282051 +1  173.0386621 +1     1     2     3
  C     1.43383102 +1  117.6220219 +1  162.4576247 +1     3     1     2
  C     1.52801165 +1  110.8805346 +1  161.3021603 +1     5     3     1
  H     1.10174954 +1  107.7215755 +1  -53.7762386 +1     2     1     3
  H     1.10243519 +1  113.2700809 +1   64.6951356 +1     2     1     3
  H     1.10437393 +1  113.0035159 +1 -173.4963617 +1     2     1     3
  H     1.10386718 +1  104.4562970 +1  -79.3531264 +1     5     3     1
  H     1.10524533 +1  108.8868284 +1   38.6458536 +1     5     3     1
  H     1.09548476 +1  113.6780031 +1  -80.0649212 +1     6     5     3
  H     1.09736727 +1  112.5756681 +1   42.6127689 +1     6     5     3
  H     1.10476981 +1  110.0225338 +1  161.0870126 +1     6     5     3
  O     2.23670645 +1   95.6891177 +1  -82.9773899 +1     1     2     3
  H     1.00190422 +1   77.7549375 +1  107.8119656 +1    15     1     2
  H     0.96040489 +1   89.1338152 +1 -144.5620240 +1    15     1     2
 
 TIME=     0.02
  REACTANTS AND PRODUCTS SWAPPED AROUND
 *+*+*+*+*+*+*+*+*+*+*+*+*+*+*+*+*+*+*+*+*+*+*+*+*+*+*+*+*+*+*+*+*+*+*+*+*+*+*+*+
            BAR SHORTENED BY       1.000 PERCENT
 GRADIENT CRITERION IN FLEPO =    10.000


          FOR POINT   16 FIRST  STRUCTURE
 DISTANCE A - B      1.360266
 HEAT             -159.401202
 GRADIENT NORM      29.113974
 DIRECTION COSINE    0.907175
 saddle
  Ethanol plus acetic acid

  C     0.00000000 +1    0.0000000 +1    0.0000000 +1     0     0     0
  C     1.48219700 +1    0.0000000 +1    0.0000000 +1     1     0     0
  O     2.19785394 +1   91.5018262 +1    0.0000000 +1     1     2     0
  O     1.20289057 +1  130.6475649 +1  107.0527655 +1     1     2     3
  C     1.41787160 +1  111.5105021 +1  144.1162967 +1     3     1     2
  C     1.52171823 +1  106.9754102 +1  156.6589679 +1     5     3     1
  H     1.10204056 +1  113.3441178 +1  -45.1826120 +1     2     1     3
  H     1.10454370 +1  111.1737161 +1   74.9100244 +1     2     1     3
  H     1.10235576 +1  108.7844272 +1 -164.8101064 +1     2     1     3
  H     1.10576808 +1  104.7285332 +1  -83.0210843 +1     5     3     1
  H     1.10784882 +1  109.5609605 +1   33.1479452 +1     5     3     1
  H     1.09387602 +1  111.4526498 +1  -75.1494147 +1     6     5     3
  H     1.09948281 +1  109.1133859 +1   43.5510788 +1     6     5     3
  H     1.09121698 +1  112.0404041 +1  162.8552064 +1     6     5     3
  O     1.40057287 +1  110.1994057 +1  -81.8536755 +1     1     2     3
  H     1.01116080 +1   84.7833281 +1 -105.6706297 +1     3     1     2
  H     0.98271515 +1  113.0607310 +1 -176.8208628 +1    15     1     2
 
 *+*+*+*+*+*+*+*+*+*+*+*+*+*+*+*+*+*+*+*+*+*+*+*+*+*+*+*+*+*+*+*+*+*+*+*+*+*+*+*+
            BAR SHORTENED BY       1.000 PERCENT
 GRADIENT CRITERION IN FLEPO =    10.000


          FOR POINT   17 FIRST  STRUCTURE
 DISTANCE A - B      1.346663
 HEAT             -159.095257
 GRADIENT NORM      30.857474
 DIRECTION COSINE    0.949581
 saddle
  Ethanol plus acetic acid

  C     0.00000000 +1    0.0000000 +1    0.0000000 +1     0     0     0
  C     1.48431453 +1    0.0000000 +1    0.0000000 +1     1     0     0
  O     2.18765059 +1   91.6770863 +1    0.0000000 +1     1     2     0
  O     1.20288342 +1  130.7257529 +1  107.3781496 +1     1     2     3
  C     1.41819393 +1  111.3598702 +1  144.2614874 +1     3     1     2
  C     1.52078258 +1  106.7541194 +1  156.8294395 +1     5     3     1
  H     1.10552449 +1  113.2647852 +1  -45.0404688 +1     2     1     3
  H     1.09873744 +1  111.3516495 +1   74.6562284 +1     2     1     3
  H     1.10006284 +1  108.9169498 +1 -164.5898297 +1     2     1     3
  H     1.10944313 +1  104.9393362 +1  -83.1652991 +1     5     3     1
  H     1.10540204 +1  109.8422408 +1   33.1300597 +1     5     3     1
  H     1.09364325 +1  111.4159613 +1  -75.3068893 +1     6     5     3
  H     1.10031659 +1  109.5605726 +1   43.5421572 +1     6     5     3
  H     1.09314281 +1  111.9376133 +1  163.1234932 +1     6     5     3
  O     1.40248182 +1  109.9761855 +1  -82.0039326 +1     1     2     3
  H     1.01297884 +1   84.7179531 +1 -105.6250368 +1     3     1     2
  H     0.97636809 +1  113.4336571 +1 -176.0009111 +1    15     1     2
 
 TIME=     0.03
  REACTANTS AND PRODUCTS SWAPPED AROUND
 *+*+*+*+*+*+*+*+*+*+*+*+*+*+*+*+*+*+*+*+*+*+*+*+*+*+*+*+*+*+*+*+*+*+*+*+*+*+*+*+
            BAR SHORTENED BY       1.000 PERCENT
 GRADIENT CRITERION IN FLEPO =    10.000


          FOR POINT   18 SECOND STRUCTURE
 DISTANCE A - B      1.333197
 HEAT             -158.785077
 GRADIENT NORM      40.800503
 DIRECTION COSINE    0.794680
 saddle
  Ethanol plus acetic acid

  C     0.00000000 +1    0.0000000 +1    0.0000000 +1     0     0     0
  C     1.48652554 +1    0.0000000 +1    0.0000000 +1     1     0     0
  O     1.41273362 +1  108.7662090 +1    0.0000000 +1     1     2     0
  O     1.20605973 +1  129.4138210 +1  172.4771926 +1     1     2     3
  C     1.43412317 +1  117.8015834 +1  162.2190246 +1     3     1     2
  C     1.52921702 +1  111.1113134 +1  161.4594180 +1     5     3     1
  H     1.09800221 +1  107.7511280 +1  -53.4357040 +1     2     1     3
  H     1.10801236 +1  113.0383967 +1   64.9323278 +1     2     1     3
  H     1.10254801 +1  113.2738235 +1 -173.6018432 +1     2     1     3
  H     1.10535558 +1  104.2826849 +1  -79.4929828 +1     5     3     1
  H     1.10273970 +1  109.0786877 +1   38.4797868 +1     5     3     1
  H     1.10074864 +1  113.9243226 +1  -79.9373277 +1     6     5     3
  H     1.09523138 +1  112.6816149 +1   42.3371739 +1     6     5     3
  H     1.10432499 +1  109.9915244 +1  161.2507156 +1     6     5     3
  O     2.22611540 +1   96.0159600 +1  -83.0943612 +1     1     2     3
  H     1.00476730 +1   77.8407956 +1  107.5986838 +1    15     1     2
  H     0.96053324 +1   89.6835554 +1 -144.4570323 +1    15     1     2
 
 TIME=     0.02
  REACTANTS AND PRODUCTS SWAPPED AROUND
 *+*+*+*+*+*+*+*+*+*+*+*+*+*+*+*+*+*+*+*+*+*+*+*+*+*+*+*+*+*+*+*+*+*+*+*+*+*+*+*+
            BAR SHORTENED BY       1.000 PERCENT
 GRADIENT CRITERION IN FLEPO =    10.000


          FOR POINT   19 FIRST  STRUCTURE
 DISTANCE A - B      1.319865
 HEAT             -158.864084
 GRADIENT NORM      26.414741
 DIRECTION COSINE    0.791789
 saddle
  Ethanol plus acetic acid

  C     0.00000000 +1    0.0000000 +1    0.0000000 +1     0     0     0
  C     1.48288107 +1    0.0000000 +1    0.0000000 +1     1     0     0
  O     2.17505022 +1   91.5760735 +1    0.0000000 +1     1     2     0
  O     1.20308253 +1  130.8691408 +1  106.3032850 +1     1     2     3
  C     1.41585660 +1  111.4774673 +1  144.1066852 +1     3     1     2
  C     1.51571916 +1  106.8485716 +1  156.7872473 +1     5     3     1
  H     1.10689058 +1  113.8848350 +1  -45.3646902 +1     2     1     3
  H     1.09823459 +1  111.4513127 +1   75.3982197 +1     2     1     3
  H     1.09997007 +1  108.7739113 +1 -164.5477657 +1     2     1     3
  H     1.11134700 +1  104.6174936 +1  -82.7199648 +1     5     3     1
  H     1.10620134 +1  109.8556275 +1   32.2335513 +1     5     3     1
  H     1.09699152 +1  111.2307685 +1  -74.1328372 +1     6     5     3
  H     1.10043285 +1  109.2473217 +1   43.7281710 +1     6     5     3
  H     1.09338438 +1  112.3958320 +1  163.2301915 +1     6     5     3
  O     1.39451329 +1  109.8369881 +1  -82.4517349 +1     1     2     3
  H     1.00762261 +1   84.3263410 +1 -105.9657217 +1     3     1     2
  H     0.98053855 +1  113.7450708 +1 -176.4267338 +1    15     1     2
 
 *+*+*+*+*+*+*+*+*+*+*+*+*+*+*+*+*+*+*+*+*+*+*+*+*+*+*+*+*+*+*+*+*+*+*+*+*+*+*+*+
            BAR SHORTENED BY       1.000 PERCENT
 GRADIENT CRITERION IN FLEPO =    10.000


          FOR POINT   20 FIRST  STRUCTURE
 DISTANCE A - B      1.306666
 HEAT             -158.607541
 GRADIENT NORM      28.266587
 DIRECTION COSINE    0.913166
 saddle
  Ethanol plus acetic acid

  C     0.00000000 +1    0.0000000 +1    0.0000000 +1     0     0     0
  C     1.48488047 +1    0.0000000 +1    0.0000000 +1     1     0     0
  O     2.16167674 +1   91.9931145 +1    0.0000000 +1     1     2     0
  O     1.20506385 +1  130.4428297 +1  105.6833850 +1     1     2     3
  C     1.41832465 +1  111.4147440 +1  143.8266423 +1     3     1     2
  C     1.51901298 +1  106.6155330 +1  156.6352427 +1     5     3     1
  H     1.10489097 +1  113.7716763 +1  -44.7205568 +1     2     1     3
  H     1.10248386 +1  110.9455248 +1   75.3206514 +1     2     1     3
  H     1.10041827 +1  109.1429119 +1 -164.6231209 +1     2     1     3
  H     1.10673639 +1  104.6930749 +1  -82.9654557 +1     5     3     1
  H     1.10324580 +1  109.8360828 +1   32.7593514 +1     5     3     1
  H     1.09420080 +1  111.3429954 +1  -74.2675752 +1     6     5     3
  H     1.10162902 +1  109.1542439 +1   43.9033756 +1     6     5     3
  H     1.09155331 +1  112.1564274 +1  163.3861772 +1     6     5     3
  O     1.39523952 +1  110.0195807 +1  -83.0972063 +1     1     2     3
  H     1.01141829 +1   83.9356624 +1 -106.2686073 +1     3     1     2
  H     0.98030182 +1  113.7660060 +1 -175.3811554 +1    15     1     2
 
 TIME=     0.03
  REACTANTS AND PRODUCTS SWAPPED AROUND
 *+*+*+*+*+*+*+*+*+*+*+*+*+*+*+*+*+*+*+*+*+*+*+*+*+*+*+*+*+*+*+*+*+*+*+*+*+*+*+*+
            BAR SHORTENED BY       1.000 PERCENT
 GRADIENT CRITERION IN FLEPO =    10.000


          FOR POINT   21 SECOND STRUCTURE
 DISTANCE A - B      1.293599
 HEAT             -158.320130
 GRADIENT NORM      41.555016
 DIRECTION COSINE    0.881310
 saddle
  Ethanol plus acetic acid

  C     0.00000000 +1    0.0000000 +1    0.0000000 +1     0     0     0
  C     1.48889368 +1    0.0000000 +1    0.0000000 +1     1     0     0
  O     1.41486331 +1  108.5552685 +1    0.0000000 +1     1     2     0
  O     1.20071101 +1  129.4592495 +1  171.8088898 +1     1     2     3
  C     1.43424300 +1  118.0141093 +1  162.1229385 +1     3     1     2
  C     1.52541322 +1  111.5963831 +1  161.1833120 +1     5     3     1
  H     1.10169682 +1  107.5797879 +1  -53.3336956 +1     2     1     3
  H     1.10192481 +1  113.1188542 +1   64.9866137 +1     2     1     3
  H     1.10194226 +1  113.3489984 +1 -173.2500152 +1     2     1     3
  H     1.10519818 +1  104.1611978 +1  -79.2473637 +1     5     3     1
  H     1.10397775 +1  108.9638636 +1   37.9495270 +1     5     3     1
  H     1.09531375 +1  113.8803509 +1  -79.6463549 +1     6     5     3
  H     1.09762965 +1  112.4440189 +1   42.6268334 +1     6     5     3
  H     1.10494148 +1  110.1594507 +1  161.1608553 +1     6     5     3
  O     2.21156766 +1   96.0618266 +1  -83.2240913 +1     1     2     3
  H     1.00721892 +1   78.1057918 +1  107.4640889 +1    15     1     2
  H     0.95931510 +1   90.3697412 +1 -144.6436802 +1    15     1     2
 
 TIME=     0.02
  REACTANTS AND PRODUCTS SWAPPED AROUND
 *+*+*+*+*+*+*+*+*+*+*+*+*+*+*+*+*+*+*+*+*+*+*+*+*+*+*+*+*+*+*+*+*+*+*+*+*+*+*+*+
            BAR SHORTENED BY       1.000 PERCENT
 GRADIENT CRITERION IN FLEPO =    10.000


          FOR POINT   22 FIRST  STRUCTURE
 DISTANCE A - B      1.280663
 HEAT             -158.236985
 GRADIENT NORM      33.160984
 DIRECTION COSINE    0.915492
 saddle
  Ethanol plus acetic acid

  C     0.00000000 +1    0.0000000 +1    0.0000000 +1     0     0     0
  C     1.48406821 +1    0.0000000 +1    0.0000000 +1     1     0     0
  O     2.15411838 +1   92.1626784 +1    0.0000000 +1     1     2     0
  O     1.20348489 +1  130.6512638 +1  106.2026014 +1     1     2     3
  C     1.41828087 +1  111.4808734 +1  143.9993689 +1     3     1     2
  C     1.51903388 +1  106.6656911 +1  156.6574689 +1     5     3     1
  H     1.10456743 +1  113.7112794 +1  -44.7628641 +1     2     1     3
  H     1.10238255 +1  110.9612569 +1   75.2579542 +1     2     1     3
  H     1.10029199 +1  109.1770307 +1 -164.6601129 +1     2     1     3
  H     1.10664018 +1  104.6854275 +1  -82.9545189 +1     5     3     1
  H     1.10322194 +1  109.8235311 +1   32.7886189 +1     5     3     1
  H     1.09420960 +1  111.3696090 +1  -74.3199991 +1     6     5     3
  H     1.10158819 +1  109.1877251 +1   43.8889179 +1     6     5     3
  H     1.09167826 +1  112.1366477 +1  163.3638208 +1     6     5     3
  O     1.40330163 +1  109.8941255 +1  -83.2026970 +1     1     2     3
  H     1.01968965 +1   83.8869196 +1 -106.1770240 +1     3     1     2
  H     0.97906927 +1  113.5300426 +1 -175.0721836 +1    15     1     2
 
 TIME=     0.00
  REACTANTS AND PRODUCTS SWAPPED AROUND
 *+*+*+*+*+*+*+*+*+*+*+*+*+*+*+*+*+*+*+*+*+*+*+*+*+*+*+*+*+*+*+*+*+*+*+*+*+*+*+*+
            BAR SHORTENED BY       1.000 PERCENT
 GRADIENT CRITERION IN FLEPO =    10.000


          FOR POINT   23 SECOND STRUCTURE
 DISTANCE A - B      1.267857
 HEAT             -157.798836
 GRADIENT NORM      42.672569
 DIRECTION COSINE    0.886049
 saddle
  Ethanol plus acetic acid

  C     0.00000000 +1    0.0000000 +1    0.0000000 +1     0     0     0
  C     1.48738721 +1    0.0000000 +1    0.0000000 +1     1     0     0
  O     1.41947646 +1  108.4820440 +1    0.0000000 +1     1     2     0
  O     1.20170454 +1  129.6099585 +1  171.6989731 +1     1     2     3
  C     1.43385165 +1  117.7793447 +1  161.7859172 +1     3     1     2
  C     1.52875494 +1  111.3214217 +1  161.4529808 +1     5     3     1
  H     1.09974397 +1  107.4541007 +1  -53.4207872 +1     2     1     3
  H     1.10488263 +1  113.1386431 +1   65.0553625 +1     2     1     3
  H     1.10341828 +1  113.3979062 +1 -173.2444904 +1     2     1     3
  H     1.09790589 +1  103.8404457 +1  -79.5157336 +1     5     3     1
  H     1.10278745 +1  109.1996911 +1   38.3825808 +1     5     3     1
  H     1.09485478 +1  113.8127943 +1  -79.7465401 +1     6     5     3
  H     1.09636755 +1  112.7616051 +1   42.8192280 +1     6     5     3
  H     1.11875016 +1  109.9373974 +1  161.5205359 +1     6     5     3
  O     2.20121918 +1   96.1826613 +1  -83.0976232 +1     1     2     3
  H     1.00454090 +1   78.0793293 +1  107.3572358 +1    15     1     2
  H     0.95982158 +1   90.9504634 +1 -144.7570681 +1    15     1     2
 
 TIME=     0.02
  REACTANTS AND PRODUCTS SWAPPED AROUND
 *+*+*+*+*+*+*+*+*+*+*+*+*+*+*+*+*+*+*+*+*+*+*+*+*+*+*+*+*+*+*+*+*+*+*+*+*+*+*+*+
            BAR SHORTENED BY       1.000 PERCENT
 GRADIENT CRITERION IN FLEPO =    10.000


          FOR POINT   24 FIRST  STRUCTURE
 DISTANCE A - B      1.255178
 HEAT             -157.860467
 GRADIENT NORM      33.922886
 DIRECTION COSINE    0.917591
 saddle
  Ethanol plus acetic acid

  C     0.00000000 +1    0.0000000 +1    0.0000000 +1     0     0     0
  C     1.48599731 +1    0.0000000 +1    0.0000000 +1     1     0     0
  O     2.14436259 +1   92.3754330 +1    0.0000000 +1     1     2     0
  O     1.20171988 +1  130.6755576 +1  106.9801171 +1     1     2     3
  C     1.41878085 +1  111.2414686 +1  143.9272214 +1     3     1     2
  C     1.52182011 +1  106.3575960 +1  156.7971279 +1     5     3     1
  H     1.10638907 +1  113.7308107 +1  -44.9529079 +1     2     1     3
  H     1.09807012 +1  110.8765744 +1   75.1670377 +1     2     1     3
  H     1.10082148 +1  109.1105587 +1 -164.5072546 +1     2     1     3
  H     1.10663159 +1  104.8270227 +1  -83.1749573 +1     5     3     1
  H     1.10391807 +1  110.1377548 +1   33.1140440 +1     5     3     1
  H     1.09609155 +1  111.2182343 +1  -74.4297671 +1     6     5     3
  H     1.10267462 +1  109.1631814 +1   43.5411440 +1     6     5     3
  H     1.09125245 +1  112.0742207 +1  163.6408391 +1     6     5     3
  O     1.40557837 +1  109.6772059 +1  -83.3939928 +1     1     2     3
  H     1.01904988 +1   83.7804649 +1 -106.2330844 +1     3     1     2
  H     0.98276806 +1  113.3259447 +1 -174.8331426 +1    15     1     2
 
 *+*+*+*+*+*+*+*+*+*+*+*+*+*+*+*+*+*+*+*+*+*+*+*+*+*+*+*+*+*+*+*+*+*+*+*+*+*+*+*+
            BAR SHORTENED BY       1.000 PERCENT
 GRADIENT CRITERION IN FLEPO =    10.000


          FOR POINT   25 FIRST  STRUCTURE
 DISTANCE A - B      1.242626
 HEAT             -157.492125
 GRADIENT NORM      36.050902
 DIRECTION COSINE    0.947024
 saddle
  Ethanol plus acetic acid

  C     0.00000000 +1    0.0000000 +1    0.0000000 +1     0     0     0
  C     1.48623059 +1    0.0000000 +1    0.0000000 +1     1     0     0
  O     2.13974599 +1   92.3150316 +1    0.0000000 +1     1     2     0
  O     1.19848186 +1  130.9359792 +1  106.8728991 +1     1     2     3
  C     1.41890951 +1  111.2434049 +1  143.7185576 +1     3     1     2
  C     1.51805636 +1  106.3641788 +1  156.7448877 +1     5     3     1
  H     1.10459110 +1  114.1119898 +1  -45.0372849 +1     2     1     3
  H     1.10064787 +1  110.7632481 +1   75.4217022 +1     2     1     3
  H     1.09937626 +1  108.8258040 +1 -164.7514524 +1     2     1     3
  H     1.10818924 +1  104.9383752 +1  -82.9243083 +1     5     3     1
  H     1.10892880 +1  110.1442576 +1   33.2007255 +1     5     3     1
  H     1.09387424 +1  111.3373475 +1  -74.0112682 +1     6     5     3
  H     1.10091320 +1  109.1977810 +1   43.9093250 +1     6     5     3
  H     1.09131730 +1  112.0733131 +1  163.7843576 +1     6     5     3
  O     1.40819706 +1  109.6904897 +1  -83.1697705 +1     1     2     3
  H     1.02074876 +1   83.5604643 +1 -106.6156089 +1     3     1     2
  H     0.97985757 +1  113.2523956 +1 -174.6184517 +1    15     1     2
 
 TIME=     0.03
  REACTANTS AND PRODUCTS SWAPPED AROUND
 *+*+*+*+*+*+*+*+*+*+*+*+*+*+*+*+*+*+*+*+*+*+*+*+*+*+*+*+*+*+*+*+*+*+*+*+*+*+*+*+
            BAR SHORTENED BY       1.000 PERCENT
 GRADIENT CRITERION IN FLEPO =    10.000


          FOR POINT   26 SECOND STRUCTURE
 DISTANCE A - B      1.230200
 HEAT             -157.391640
 GRADIENT NORM      41.765841
 DIRECTION COSINE    0.939860
 saddle
  Ethanol plus acetic acid

  C     0.00000000 +1    0.0000000 +1    0.0000000 +1     0     0     0
  C     1.48584480 +1    0.0000000 +1    0.0000000 +1     1     0     0
  O     1.42067750 +1  108.3830578 +1    0.0000000 +1     1     2     0
  O     1.20126420 +1  129.8522922 +1  171.2196879 +1     1     2     3
  C     1.43367327 +1  117.7835011 +1  161.7471420 +1     3     1     2
  C     1.52997523 +1  111.5473673 +1  161.5990772 +1     5     3     1
  H     1.09935493 +1  107.3306429 +1  -53.1926995 +1     2     1     3
  H     1.10551509 +1  113.2566366 +1   65.4175903 +1     2     1     3
  H     1.10224697 +1  113.3581712 +1 -173.1913646 +1     2     1     3
  H     1.10435104 +1  103.8380592 +1  -79.4583231 +1     5     3     1
  H     1.10210375 +1  109.3129324 +1   38.0303572 +1     5     3     1
  H     1.09631256 +1  113.3114473 +1  -79.5987797 +1     6     5     3
  H     1.09273552 +1  112.5997734 +1   42.5850525 +1     6     5     3
  H     1.11215165 +1  109.9532255 +1  161.6677713 +1     6     5     3
  O     2.18995736 +1   96.1177611 +1  -83.1805493 +1     1     2     3
  H     1.00359387 +1   77.0977849 +1  107.6732705 +1    15     1     2
  H     0.96192232 +1   91.5011088 +1 -145.2430907 +1    15     1     2
 
 TIME=     0.02
  REACTANTS AND PRODUCTS SWAPPED AROUND
 *+*+*+*+*+*+*+*+*+*+*+*+*+*+*+*+*+*+*+*+*+*+*+*+*+*+*+*+*+*+*+*+*+*+*+*+*+*+*+*+
            BAR SHORTENED BY       1.000 PERCENT
 GRADIENT CRITERION IN FLEPO =    10.000


          FOR POINT   27 FIRST  STRUCTURE
 DISTANCE A - B      1.217898
 HEAT             -157.084380
 GRADIENT NORM      36.854740
 DIRECTION COSINE    0.932685
 saddle
  Ethanol plus acetic acid

  C     0.00000000 +1    0.0000000 +1    0.0000000 +1     0     0     0
  C     1.48151623 +1    0.0000000 +1    0.0000000 +1     1     0     0
  O     2.13188714 +1   92.5363815 +1    0.0000000 +1     1     2     0
  O     1.20237962 +1  131.1334270 +1  107.4714634 +1     1     2     3
  C     1.41575528 +1  111.1402010 +1  143.6529688 +1     3     1     2
  C     1.52073115 +1  106.2053525 +1  157.0244328 +1     5     3     1
  H     1.10585266 +1  114.2765963 +1  -45.0847417 +1     2     1     3
  H     1.10274873 +1  110.8231219 +1   75.1241558 +1     2     1     3
  H     1.10081832 +1  108.6962490 +1 -164.7514603 +1     2     1     3
  H     1.10509574 +1  105.2179487 +1  -82.6888404 +1     5     3     1
  H     1.10606819 +1  110.3068868 +1   33.3677893 +1     5     3     1
  H     1.09402613 +1  111.0497654 +1  -74.1823277 +1     6     5     3
  H     1.10038772 +1  109.2325676 +1   44.0164786 +1     6     5     3
  H     1.09146034 +1  111.9545523 +1  164.0156981 +1     6     5     3
  O     1.41140871 +1  109.7208980 +1  -83.2128540 +1     1     2     3
  H     1.02205318 +1   83.4611779 +1 -106.7892799 +1     3     1     2
  H     0.98141535 +1  113.3977525 +1 -174.3947510 +1    15     1     2
 
 TIME=     0.02
  REACTANTS AND PRODUCTS SWAPPED AROUND
 *+*+*+*+*+*+*+*+*+*+*+*+*+*+*+*+*+*+*+*+*+*+*+*+*+*+*+*+*+*+*+*+*+*+*+*+*+*+*+*+
            BAR SHORTENED BY       1.000 PERCENT
 GRADIENT CRITERION IN FLEPO =    10.000


          FOR POINT   28 SECOND STRUCTURE
 DISTANCE A - B      1.205719
 HEAT             -156.864575
 GRADIENT NORM      46.856674
 DIRECTION COSINE    0.946115
 saddle
  Ethanol plus acetic acid

  C     0.00000000 +1    0.0000000 +1    0.0000000 +1     0     0     0
  C     1.48501338 +1    0.0000000 +1    0.0000000 +1     1     0     0
  O     1.42765998 +1  108.2397521 +1    0.0000000 +1     1     2     0
  O     1.19988869 +1  130.0619403 +1  170.6259538 +1     1     2     3
  C     1.43329150 +1  117.7181266 +1  161.5577217 +1     3     1     2
  C     1.52984644 +1  111.4952124 +1  161.5181785 +1     5     3     1
  H     1.09918762 +1  107.3964915 +1  -53.0553569 +1     2     1     3
  H     1.10539385 +1  113.2268834 +1   65.5670819 +1     2     1     3
  H     1.10211958 +1  113.3068539 +1 -173.0476243 +1     2     1     3
  H     1.10429148 +1  103.8489297 +1  -79.5278167 +1     5     3     1
  H     1.10211667 +1  109.3192793 +1   37.9489856 +1     5     3     1
  H     1.09628739 +1  113.2900736 +1  -79.5436983 +1     6     5     3
  H     1.09281054 +1  112.5667325 +1   42.5975994 +1     6     5     3
  H     1.11193837 +1  109.9733887 +1  161.6911022 +1     6     5     3
  O     2.18210971 +1   96.2574920 +1  -83.2791486 +1     1     2     3
  H     1.01229489 +1   77.1895404 +1  107.4828493 +1    15     1     2
  H     0.96119091 +1   91.7082166 +1 -145.5232957 +1    15     1     2
 
 TIME=     0.02
  REACTANTS AND PRODUCTS SWAPPED AROUND
 *+*+*+*+*+*+*+*+*+*+*+*+*+*+*+*+*+*+*+*+*+*+*+*+*+*+*+*+*+*+*+*+*+*+*+*+*+*+*+*+
            BAR SHORTENED BY       1.000 PERCENT
 GRADIENT CRITERION IN FLEPO =    10.000


          FOR POINT   29 FIRST  STRUCTURE
 DISTANCE A - B      1.193662
 HEAT             -156.681015
 GRADIENT NORM      37.656463
 DIRECTION COSINE    0.952403
 saddle
  Ethanol plus acetic acid

  C     0.00000000 +1    0.0000000 +1    0.0000000 +1     0     0     0
  C     1.48577452 +1    0.0000000 +1    0.0000000 +1     1     0     0
  O     2.12426928 +1   92.5930099 +1    0.0000000 +1     1     2     0
  O     1.20301399 +1  131.1632475 +1  107.5305587 +1     1     2     3
  C     1.41973746 +1  110.9111256 +1  143.5573011 +1     3     1     2
  C     1.52271313 +1  105.8302215 +1  157.1024178 +1     5     3     1
  H     1.10506215 +1  114.2932716 +1  -45.1519179 +1     2     1     3
  H     1.09896330 +1  110.6497486 +1   75.1793475 +1     2     1     3
  H     1.09997042 +1  108.4449887 +1 -164.8854804 +1     2     1     3
  H     1.10581479 +1  105.3479170 +1  -82.9053865 +1     5     3     1
  H     1.10424656 +1  110.3603910 +1   33.6984954 +1     5     3     1
  H     1.09424473 +1  111.2634871 +1  -73.9722860 +1     6     5     3
  H     1.10230592 +1  109.2518061 +1   44.2214149 +1     6     5     3
  H     1.08965088 +1  111.9965175 +1  163.9413020 +1     6     5     3
  O     1.41151817 +1  109.5798764 +1  -83.2389581 +1     1     2     3
  H     1.02405760 +1   83.2653651 +1 -106.7615440 +1     3     1     2
  H     0.97929713 +1  113.4612183 +1 -174.2545272 +1    15     1     2
 
 TIME=     0.02
  REACTANTS AND PRODUCTS SWAPPED AROUND
 *+*+*+*+*+*+*+*+*+*+*+*+*+*+*+*+*+*+*+*+*+*+*+*+*+*+*+*+*+*+*+*+*+*+*+*+*+*+*+*+
            BAR SHORTENED BY       1.000 PERCENT
 GRADIENT CRITERION IN FLEPO =    10.000


          FOR POINT   30 SECOND STRUCTURE
 DISTANCE A - B      1.181725
 HEAT             -156.354990
 GRADIENT NORM      48.072969
 DIRECTION COSINE    0.960162
 saddle
  Ethanol plus acetic acid

  C     0.00000000 +1    0.0000000 +1    0.0000000 +1     0     0     0
  C     1.48803142 +1    0.0000000 +1    0.0000000 +1     1     0     0
  O     1.42628587 +1  108.1597834 +1    0.0000000 +1     1     2     0
  O     1.19971131 +1  130.1094736 +1  170.7885742 +1     1     2     3
  C     1.43252930 +1  117.6185173 +1  161.4528659 +1     3     1     2
  C     1.53041495 +1  111.6369648 +1  161.4478467 +1     5     3     1
  H     1.09967872 +1  107.0119526 +1  -53.1870049 +1     2     1     3
  H     1.10456195 +1  113.4624440 +1   65.2221854 +1     2     1     3
  H     1.10451597 +1  113.4163474 +1 -172.7731703 +1     2     1     3
  H     1.10217327 +1  104.0208417 +1  -79.5418829 +1     5     3     1
  H     1.10414653 +1  109.1841964 +1   38.3755482 +1     5     3     1
  H     1.09529975 +1  113.6253404 +1  -79.0693378 +1     6     5     3
  H     1.09762136 +1  112.4723889 +1   42.8915770 +1     6     5     3
  H     1.10787094 +1  110.3186053 +1  161.8419228 +1     6     5     3
  O     2.17337161 +1   96.1226191 +1  -83.2561373 +1     1     2     3
  H     1.01934201 +1   77.1610713 +1  107.4709989 +1    15     1     2
  H     0.96051387 +1   92.1552700 +1 -145.3567293 +1    15     1     2
 
 TIME=     0.00
  REACTANTS AND PRODUCTS SWAPPED AROUND
 *+*+*+*+*+*+*+*+*+*+*+*+*+*+*+*+*+*+*+*+*+*+*+*+*+*+*+*+*+*+*+*+*+*+*+*+*+*+*+*+
            BAR SHORTENED BY       1.000 PERCENT
 GRADIENT CRITERION IN FLEPO =    10.000


          FOR POINT   31 FIRST  STRUCTURE
 DISTANCE A - B      1.169908
 HEAT             -156.266530
 GRADIENT NORM      38.962870
 DIRECTION COSINE    0.961765
 saddle
  Ethanol plus acetic acid

  C     0.00000000 +1    0.0000000 +1    0.0000000 +1     0     0     0
  C     1.48487594 +1    0.0000000 +1    0.0000000 +1     1     0     0
  O     2.11212034 +1   92.5892822 +1    0.0000000 +1     1     2     0
  O     1.20207264 +1  131.3635785 +1  107.6504298 +1     1     2     3
  C     1.41890722 +1  111.1928647 +1  143.6372744 +1     3     1     2
  C     1.51897764 +1  106.0962002 +1  157.1475400 +1     5     3     1
  H     1.10595572 +1  114.5421801 +1  -45.5091836 +1     2     1     3
  H     1.09827837 +1  111.0870666 +1   75.3217441 +1     2     1     3
  H     1.10424564 +1  108.4024821 +1 -164.7405849 +1     2     1     3
  H     1.10769927 +1  105.3212760 +1  -82.6016269 +1     5     3     1
  H     1.10870407 +1  110.1657062 +1   33.6787630 +1     5     3     1
  H     1.09287382 +1  111.0920787 +1  -73.7656516 +1     6     5     3
  H     1.10074437 +1  109.2715362 +1   44.2612133 +1     6     5     3
  H     1.09214180 +1  112.2064424 +1  164.4035951 +1     6     5     3
  O     1.41400613 +1  109.2275785 +1  -83.3480792 +1     1     2     3
  H     1.02568452 +1   83.3058292 +1 -106.7248284 +1     3     1     2
  H     0.98245948 +1  113.2759532 +1 -174.3072613 +1    15     1     2
 
 TIME=     0.02
  REACTANTS AND PRODUCTS SWAPPED AROUND
 *+*+*+*+*+*+*+*+*+*+*+*+*+*+*+*+*+*+*+*+*+*+*+*+*+*+*+*+*+*+*+*+*+*+*+*+*+*+*+*+
            BAR SHORTENED BY       1.000 PERCENT
 GRADIENT CRITERION IN FLEPO =    10.000


          FOR POINT   32 SECOND STRUCTURE
 DISTANCE A - B      1.158209
 HEAT             -155.815682
 GRADIENT NORM      49.747563
 DIRECTION COSINE    0.967513
 saddle
  Ethanol plus acetic acid

  C     0.00000000 +1    0.0000000 +1    0.0000000 +1     0     0     0
  C     1.48598858 +1    0.0000000 +1    0.0000000 +1     1     0     0
  O     1.43157061 +1  108.1077956 +1    0.0000000 +1     1     2     0
  O     1.20058833 +1  130.2846204 +1  170.3059681 +1     1     2     3
  C     1.43372353 +1  117.6573930 +1  161.2642047 +1     3     1     2
  C     1.52858296 +1  111.5573958 +1  161.4689469 +1     5     3     1
  H     1.10011549 +1  106.8888964 +1  -52.4274103 +1     2     1     3
  H     1.10471588 +1  113.6006553 +1   65.3035786 +1     2     1     3
  H     1.09981676 +1  113.2863224 +1 -172.6098832 +1     2     1     3
  H     1.10121448 +1  103.5256402 +1  -79.4452607 +1     5     3     1
  H     1.10313743 +1  109.0265321 +1   38.2898414 +1     5     3     1
  H     1.09477733 +1  113.6131097 +1  -79.0883696 +1     6     5     3
  H     1.09616838 +1  112.5452932 +1   43.0121358 +1     6     5     3
  H     1.10576333 +1  110.1849625 +1  161.9510958 +1     6     5     3
  O     2.16088408 +1   96.2336814 +1  -83.2996282 +1     1     2     3
  H     1.01981259 +1   77.2676809 +1  107.3605051 +1    15     1     2
  H     0.96135786 +1   92.8887669 +1 -145.2994898 +1    15     1     2
 
 TIME=     0.02
  REACTANTS AND PRODUCTS SWAPPED AROUND
 *+*+*+*+*+*+*+*+*+*+*+*+*+*+*+*+*+*+*+*+*+*+*+*+*+*+*+*+*+*+*+*+*+*+*+*+*+*+*+*+
            BAR SHORTENED BY       1.000 PERCENT
 GRADIENT CRITERION IN FLEPO =    10.000


          FOR POINT   33 FIRST  STRUCTURE
 DISTANCE A - B      1.146627
 HEAT             -155.844237
 GRADIENT NORM      41.216904
 DIRECTION COSINE    0.959805
 saddle
  Ethanol plus acetic acid

  C     0.00000000 +1    0.0000000 +1    0.0000000 +1     0     0     0
  C     1.48683178 +1    0.0000000 +1    0.0000000 +1     1     0     0
  O     2.10468643 +1   92.6833219 +1    0.0000000 +1     1     2     0
  O     1.19909701 +1  131.1256503 +1  107.5265548 +1     1     2     3
  C     1.42225239 +1  111.1484882 +1  143.3569014 +1     3     1     2
  C     1.51962759 +1  105.9796687 +1  157.3076305 +1     5     3     1
  H     1.10290886 +1  114.6197616 +1  -45.1966530 +1     2     1     3
  H     1.10371282 +1  110.7029253 +1   75.4281667 +1     2     1     3
  H     1.10079842 +1  108.3632058 +1 -165.0737905 +1     2     1     3
  H     1.10859132 +1  105.2186270 +1  -82.6670265 +1     5     3     1
  H     1.10315407 +1  110.0207201 +1   33.9203341 +1     5     3     1
  H     1.09818836 +1  110.9968486 +1  -73.6123626 +1     6     5     3
  H     1.10203757 +1  109.2903349 +1   44.2008497 +1     6     5     3
  H     1.08890952 +1  112.1546689 +1  164.4463233 +1     6     5     3
  O     1.41477761 +1  109.3743822 +1  -83.3184318 +1     1     2     3
  H     1.02935462 +1   83.1066797 +1 -107.0836353 +1     3     1     2
  H     0.97895768 +1  113.2913235 +1 -174.0647699 +1    15     1     2
 
 *+*+*+*+*+*+*+*+*+*+*+*+*+*+*+*+*+*+*+*+*+*+*+*+*+*+*+*+*+*+*+*+*+*+*+*+*+*+*+*+
            BAR SHORTENED BY       1.000 PERCENT
 GRADIENT CRITERION IN FLEPO =    10.000


          FOR POINT   34 FIRST  STRUCTURE
 DISTANCE A - B      1.135161
 HEAT             -155.412317
 GRADIENT NORM      41.964399
 DIRECTION COSINE    0.969713
 saddle
  Ethanol plus acetic acid

  C     0.00000000 +1    0.0000000 +1    0.0000000 +1     0     0     0
  C     1.48390529 +1    0.0000000 +1    0.0000000 +1     1     0     0
  O     2.09567129 +1   93.0262570 +1    0.0000000 +1     1     2     0
  O     1.20041577 +1  131.4116690 +1  108.2672318 +1     1     2     3
  C     1.41916780 +1  111.2984485 +1  143.4130520 +1     3     1     2
  C     1.51901251 +1  105.9543946 +1  157.2999518 +1     5     3     1
  H     1.10526189 +1  114.5760273 +1  -44.5370054 +1     2     1     3
  H     1.10126912 +1  110.7865882 +1   75.2957055 +1     2     1     3
  H     1.10060232 +1  108.4158348 +1 -165.0340563 +1     2     1     3
  H     1.10753548 +1  105.0754949 +1  -82.2721973 +1     5     3     1
  H     1.10650687 +1  110.0721267 +1   34.0290773 +1     5     3     1
  H     1.09404094 +1  111.1632992 +1  -73.4477244 +1     6     5     3
  H     1.10175199 +1  109.2869117 +1   44.6174393 +1     6     5     3
  H     1.09180289 +1  111.9986770 +1  164.5390911 +1     6     5     3
  O     1.41897547 +1  109.1847747 +1  -83.3840094 +1     1     2     3
  H     1.03025794 +1   83.0022636 +1 -107.0484506 +1     3     1     2
  H     0.98227711 +1  113.2941401 +1 -173.5151058 +1    15     1     2
 
 TIME=     0.03
  REACTANTS AND PRODUCTS SWAPPED AROUND
 *+*+*+*+*+*+*+*+*+*+*+*+*+*+*+*+*+*+*+*+*+*+*+*+*+*+*+*+*+*+*+*+*+*+*+*+*+*+*+*+
            BAR SHORTENED BY       1.000 PERCENT
 GRADIENT CRITERION IN FLEPO =    10.000


          FOR POINT   35 SECOND STRUCTURE
 DISTANCE A - B      1.123809
 HEAT             -155.229708
 GRADIENT NORM      54.550104
 DIRECTION COSINE    0.970323
 saddle
  Ethanol plus acetic acid

  C     0.00000000 +1    0.0000000 +1    0.0000000 +1     0     0     0
  C     1.48523653 +1    0.0000000 +1    0.0000000 +1     1     0     0
  O     1.43809745 +1  107.9709269 +1    0.0000000 +1     1     2     0
  O     1.19927124 +1  130.4829799 +1  169.7277926 +1     1     2     3
  C     1.43338346 +1  117.5945405 +1  161.0773588 +1     3     1     2
  C     1.52845965 +1  111.5023796 +1  161.3964489 +1     5     3     1
  H     1.09998699 +1  106.9627031 +1  -52.2977821 +1     2     1     3
  H     1.10461020 +1  113.5692447 +1   65.4516222 +1     2     1     3
  H     1.09973789 +1  113.2342907 +1 -172.4821144 +1     2     1     3
  H     1.10121453 +1  103.5382085 +1  -79.5057521 +1     5     3     1
  H     1.10314729 +1  109.0336225 +1   38.2168560 +1     5     3     1
  H     1.09476603 +1  113.5898199 +1  -79.0308997 +1     6     5     3
  H     1.09622148 +1  112.5132654 +1   43.0265905 +1     6     5     3
  H     1.10561914 +1  110.2031035 +1  161.9768666 +1     6     5     3
  O     2.15340986 +1   96.3677287 +1  -83.3891283 +1     1     2     3
  H     1.02790773 +1   77.3519931 +1  107.1878707 +1    15     1     2
  H     0.96071616 +1   93.0839352 +1 -145.5709668 +1    15     1     2
 
 TIME=     0.02
  REACTANTS AND PRODUCTS SWAPPED AROUND
 *+*+*+*+*+*+*+*+*+*+*+*+*+*+*+*+*+*+*+*+*+*+*+*+*+*+*+*+*+*+*+*+*+*+*+*+*+*+*+*+
            BAR SHORTENED BY       1.000 PERCENT
 GRADIENT CRITERION IN FLEPO =    10.000


          FOR POINT   36 FIRST  STRUCTURE
 DISTANCE A - B      1.112571
 HEAT             -154.916854
 GRADIENT NORM      47.444420
 DIRECTION COSINE    0.947140
 saddle
  Ethanol plus acetic acid

  C     0.00000000 +1    0.0000000 +1    0.0000000 +1     0     0     0
  C     1.48320094 +1    0.0000000 +1    0.0000000 +1     1     0     0
  O     2.08901889 +1   93.1797475 +1    0.0000000 +1     1     2     0
  O     1.19911497 +1  131.5908806 +1  108.7671070 +1     1     2     3
  C     1.41911738 +1  111.3614014 +1  143.5804736 +1     3     1     2
  C     1.51907976 +1  106.0101190 +1  157.3215431 +1     5     3     1
  H     1.10503358 +1  114.5015718 +1  -44.5766516 +1     2     1     3
  H     1.10123251 +1  110.8097422 +1   75.2337547 +1     2     1     3
  H     1.10050874 +1  108.4582710 +1 -165.0698823 +1     2     1     3
  H     1.10741071 +1  105.0575269 +1  -82.2651178 +1     5     3     1
  H     1.10644999 +1  110.0585900 +1   34.0519978 +1     5     3     1
  H     1.09404434 +1  111.1886951 +1  -73.5022235 +1     6     5     3
  H     1.10169401 +1  109.3196664 +1   44.6002363 +1     6     5     3
  H     1.09193650 +1  111.9807637 +1  164.5136232 +1     6     5     3
  O     1.42623795 +1  109.0697370 +1  -83.4702846 +1     1     2     3
  H     1.03763537 +1   82.9679052 +1 -106.9426418 +1     3     1     2
  H     0.98124515 +1  113.0919379 +1 -173.2335295 +1    15     1     2
 
 TIME=     0.00
  REACTANTS AND PRODUCTS SWAPPED AROUND
 *+*+*+*+*+*+*+*+*+*+*+*+*+*+*+*+*+*+*+*+*+*+*+*+*+*+*+*+*+*+*+*+*+*+*+*+*+*+*+*+
            BAR SHORTENED BY       1.000 PERCENT
 GRADIENT CRITERION IN FLEPO =    10.000


          FOR POINT   37 SECOND STRUCTURE
 DISTANCE A - B      1.101445
 HEAT             -154.692364
 GRADIENT NORM      54.558128
 DIRECTION COSINE    0.941730
 saddle
  Ethanol plus acetic acid

  C     0.00000000 +1    0.0000000 +1    0.0000000 +1     0     0     0
  C     1.48672432 +1    0.0000000 +1    0.0000000 +1     1     0     0
  O     1.43636603 +1  107.8246480 +1    0.0000000 +1     1     2     0
  O     1.19689995 +1  130.5553892 +1  169.8511564 +1     1     2     3
  C     1.43280522 +1  117.5025693 +1  161.0964486 +1     3     1     2
  C     1.53020939 +1  111.6813760 +1  161.5547582 +1     5     3     1
  H     1.09914137 +1  106.8390102 +1  -52.6199089 +1     2     1     3
  H     1.10638769 +1  113.7531221 +1   65.4280427 +1     2     1     3
  H     1.10392360 +1  113.4456971 +1 -172.3414646 +1     2     1     3
  H     1.10493154 +1  103.3737301 +1  -79.4101885 +1     5     3     1
  H     1.10168597 +1  109.2534206 +1   38.1194723 +1     5     3     1
  H     1.09659269 +1  113.4062962 +1  -79.1607289 +1     6     5     3
  H     1.09671319 +1  112.5351281 +1   43.0173688 +1     6     5     3
  H     1.10272336 +1  110.3363891 +1  161.9178530 +1     6     5     3
  O     2.14046615 +1   96.2112271 +1  -83.2811335 +1     1     2     3
  H     1.02892318 +1   77.4591458 +1  107.2958151 +1    15     1     2
  H     0.96338585 +1   93.8097338 +1 -145.5101711 +1    15     1     2
 
 TIME=     0.02
  REACTANTS AND PRODUCTS SWAPPED AROUND
 *+*+*+*+*+*+*+*+*+*+*+*+*+*+*+*+*+*+*+*+*+*+*+*+*+*+*+*+*+*+*+*+*+*+*+*+*+*+*+*+
            BAR SHORTENED BY       1.000 PERCENT
 GRADIENT CRITERION IN FLEPO =    10.000


          FOR POINT   38 FIRST  STRUCTURE
 DISTANCE A - B      1.090431
 HEAT             -154.493952
 GRADIENT NORM      46.204283
 DIRECTION COSINE    0.923476
 saddle
  Ethanol plus acetic acid

  C     0.00000000 +1    0.0000000 +1    0.0000000 +1     0     0     0
  C     1.48467770 +1    0.0000000 +1    0.0000000 +1     1     0     0
  O     2.08105700 +1   93.1595992 +1    0.0000000 +1     1     2     0
  O     1.19762339 +1  131.7012659 +1  108.6978122 +1     1     2     3
  C     1.42009352 +1  111.2786291 +1  143.1789806 +1     3     1     2
  C     1.52178251 +1  105.7764969 +1  157.5441347 +1     5     3     1
  H     1.10462651 +1  114.9070772 +1  -45.0196885 +1     2     1     3
  H     1.10136645 +1  110.5203857 +1   75.3659226 +1     2     1     3
  H     1.10093412 +1  108.3495446 +1 -165.1719218 +1     2     1     3
  H     1.10821170 +1  105.5449686 +1  -82.3385140 +1     5     3     1
  H     1.10444455 +1  110.2034766 +1   34.3757286 +1     5     3     1
  H     1.09586178 +1  110.9563419 +1  -73.2935949 +1     6     5     3
  H     1.10116819 +1  109.4004718 +1   44.8317507 +1     6     5     3
  H     1.09013065 +1  112.0986549 +1  164.7756511 +1     6     5     3
  O     1.42394629 +1  109.1167065 +1  -83.3010461 +1     1     2     3
  H     1.03599195 +1   82.8516690 +1 -107.0311333 +1     3     1     2
  H     0.97919951 +1  113.2217458 +1 -173.1557808 +1    15     1     2
 
 TIME=     0.02
  REACTANTS AND PRODUCTS SWAPPED AROUND
 *+*+*+*+*+*+*+*+*+*+*+*+*+*+*+*+*+*+*+*+*+*+*+*+*+*+*+*+*+*+*+*+*+*+*+*+*+*+*+*+
            BAR SHORTENED BY       1.000 PERCENT
 GRADIENT CRITERION IN FLEPO =    10.000


          FOR POINT   39 SECOND STRUCTURE
 DISTANCE A - B      1.079526
 HEAT             -154.112273
 GRADIENT NORM      54.791967
 DIRECTION COSINE    0.965194
 saddle
  Ethanol plus acetic acid

  C     0.00000000 +1    0.0000000 +1    0.0000000 +1     0     0     0
  C     1.48425327 +1    0.0000000 +1    0.0000000 +1     1     0     0
  O     1.44281334 +1  107.9796349 +1    0.0000000 +1     1     2     0
  O     1.20228401 +1  130.7169324 +1  169.4522559 +1     1     2     3
  C     1.42798148 +1  117.5738008 +1  160.7609983 +1     3     1     2
  C     1.53314278 +1  111.4984456 +1  161.4711346 +1     5     3     1
  H     1.10331256 +1  106.6295621 +1  -52.6139754 +1     2     1     3
  H     1.10028250 +1  113.8487957 +1   65.3278444 +1     2     1     3
  H     1.10140758 +1  113.4176698 +1 -171.9912549 +1     2     1     3
  H     1.10291849 +1  103.6284268 +1  -79.4159811 +1     5     3     1
  H     1.10271899 +1  109.3730153 +1   38.3028849 +1     5     3     1
  H     1.09440810 +1  113.6963609 +1  -78.7442907 +1     6     5     3
  H     1.09785794 +1  112.4741421 +1   43.6262539 +1     6     5     3
  H     1.10684825 +1  110.0889180 +1  161.9488332 +1     6     5     3
  O     2.12403878 +1   96.2663803 +1  -83.2339609 +1     1     2     3
  H     1.02714352 +1   78.0447510 +1  107.4095793 +1    15     1     2
  H     0.96422520 +1   94.5148249 +1 -145.5568477 +1    15     1     2
 
 TIME=     0.02
  REACTANTS AND PRODUCTS SWAPPED AROUND
 *+*+*+*+*+*+*+*+*+*+*+*+*+*+*+*+*+*+*+*+*+*+*+*+*+*+*+*+*+*+*+*+*+*+*+*+*+*+*+*+
            BAR SHORTENED BY       1.000 PERCENT
 GRADIENT CRITERION IN FLEPO =    10.000


          FOR POINT   40 FIRST  STRUCTURE
 DISTANCE A - B      1.068731
 HEAT             -153.996487
 GRADIENT NORM      47.207352
 DIRECTION COSINE    0.941263
 saddle
  Ethanol plus acetic acid

  C     0.00000000 +1    0.0000000 +1    0.0000000 +1     0     0     0
  C     1.48305075 +1    0.0000000 +1    0.0000000 +1     1     0     0
  O     2.07217514 +1   93.3848501 +1    0.0000000 +1     1     2     0
  O     1.20023657 +1  131.8153473 +1  109.1922019 +1     1     2     3
  C     1.41856719 +1  111.4992300 +1  143.1646810 +1     3     1     2
  C     1.51786126 +1  105.7192572 +1  157.5826861 +1     5     3     1
  H     1.10533307 +1  114.8753818 +1  -44.8883765 +1     2     1     3
  H     1.10323682 +1  110.4443964 +1   75.1881376 +1     2     1     3
  H     1.09870656 +1  108.3075560 +1 -165.0841589 +1     2     1     3
  H     1.10640157 +1  105.4710785 +1  -82.0998959 +1     5     3     1
  H     1.10620802 +1  110.1505418 +1   34.4116051 +1     5     3     1
  H     1.09423649 +1  111.2139809 +1  -73.3881407 +1     6     5     3
  H     1.09405315 +1  109.1804982 +1   45.4832987 +1     6     5     3
  H     1.09473111 +1  111.8646560 +1  164.9421812 +1     6     5     3
  O     1.42574008 +1  109.0745116 +1  -83.2760236 +1     1     2     3
  H     1.03776913 +1   82.8013549 +1 -107.3180139 +1     3     1     2
  H     0.97084688 +1  113.7797273 +1 -172.1359629 +1    15     1     2
 
 TIME=     0.02
  REACTANTS AND PRODUCTS SWAPPED AROUND
 *+*+*+*+*+*+*+*+*+*+*+*+*+*+*+*+*+*+*+*+*+*+*+*+*+*+*+*+*+*+*+*+*+*+*+*+*+*+*+*+
            BAR SHORTENED BY       1.000 PERCENT
 GRADIENT CRITERION IN FLEPO =    10.000


          FOR POINT   41 SECOND STRUCTURE
 DISTANCE A - B      1.058044
 HEAT             -153.597486
 GRADIENT NORM      55.559901
 DIRECTION COSINE    0.963553
 saddle
  Ethanol plus acetic acid

  C     0.00000000 +1    0.0000000 +1    0.0000000 +1     0     0     0
  C     1.48580551 +1    0.0000000 +1    0.0000000 +1     1     0     0
  O     1.43868284 +1  107.8729728 +1    0.0000000 +1     1     2     0
  O     1.19992138 +1  130.4995012 +1  168.6654248 +1     1     2     3
  C     1.43148463 +1  117.7088169 +1  160.3811950 +1     3     1     2
  C     1.52914235 +1  111.6660591 +1  161.3266647 +1     5     3     1
  H     1.09941872 +1  106.7461243 +1  -52.3456420 +1     2     1     3
  H     1.10411285 +1  113.6604164 +1   65.8192734 +1     2     1     3
  H     1.10311965 +1  113.5023870 +1 -172.1293425 +1     2     1     3
  H     1.10350497 +1  103.6688969 +1  -79.4795088 +1     5     3     1
  H     1.10278941 +1  109.1543391 +1   38.1680257 +1     5     3     1
  H     1.09541710 +1  113.5843662 +1  -78.3317299 +1     6     5     3
  H     1.09498860 +1  112.4919740 +1   43.6634944 +1     6     5     3
  H     1.10266014 +1  110.1644689 +1  162.3188771 +1     6     5     3
  O     2.11081212 +1   96.4661854 +1  -83.5030556 +1     1     2     3
  H     1.03476713 +1   77.9574963 +1  107.7247522 +1    15     1     2
  H     0.96112870 +1   94.9622448 +1 -145.6533252 +1    15     1     2
 
 TIME=     0.02
  REACTANTS AND PRODUCTS SWAPPED AROUND
 *+*+*+*+*+*+*+*+*+*+*+*+*+*+*+*+*+*+*+*+*+*+*+*+*+*+*+*+*+*+*+*+*+*+*+*+*+*+*+*+
            BAR SHORTENED BY       1.000 PERCENT
 GRADIENT CRITERION IN FLEPO =    10.000


          FOR POINT   42 FIRST  STRUCTURE
 DISTANCE A - B      1.047463
 HEAT             -153.582233
 GRADIENT NORM      46.957803
 DIRECTION COSINE    0.973833
 saddle
  Ethanol plus acetic acid

  C     0.00000000 +1    0.0000000 +1    0.0000000 +1     0     0     0
  C     1.48460880 +1    0.0000000 +1    0.0000000 +1     1     0     0
  O     2.06366510 +1   93.4006294 +1    0.0000000 +1     1     2     0
  O     1.20326297 +1  131.9529910 +1  109.0757396 +1     1     2     3
  C     1.41898712 +1  111.4834372 +1  143.0410683 +1     3     1     2
  C     1.51970128 +1  105.8025773 +1  157.5783315 +1     5     3     1
  H     1.10530025 +1  115.1303455 +1  -45.0238243 +1     2     1     3
  H     1.10137450 +1  110.3036575 +1   75.3994604 +1     2     1     3
  H     1.10297603 +1  108.2946405 +1 -165.2625294 +1     2     1     3
  H     1.10852468 +1  105.6553024 +1  -82.2748622 +1     5     3     1
  H     1.10507382 +1  110.3735721 +1   34.3546904 +1     5     3     1
  H     1.09411422 +1  111.3217578 +1  -72.9492431 +1     6     5     3
  H     1.10085401 +1  109.1838779 +1   45.3943026 +1     6     5     3
  H     1.09060074 +1  111.9867353 +1  164.9815816 +1     6     5     3
  O     1.42571582 +1  108.9440154 +1  -83.3464573 +1     1     2     3
  H     1.04130646 +1   82.7234190 +1 -107.6554478 +1     3     1     2
  H     0.97708141 +1  113.5767056 +1 -172.1945480 +1    15     1     2
 
 TIME=     0.02
  REACTANTS AND PRODUCTS SWAPPED AROUND
 *+*+*+*+*+*+*+*+*+*+*+*+*+*+*+*+*+*+*+*+*+*+*+*+*+*+*+*+*+*+*+*+*+*+*+*+*+*+*+*+
            BAR SHORTENED BY       1.000 PERCENT
 GRADIENT CRITERION IN FLEPO =    10.000


          FOR POINT   43 SECOND STRUCTURE
 DISTANCE A - B      1.036989
 HEAT             -152.998334
 GRADIENT NORM      59.675516
 DIRECTION COSINE    0.972135
 saddle
  Ethanol plus acetic acid

  C     0.00000000 +1    0.0000000 +1    0.0000000 +1     0     0     0
  C     1.48511273 +1    0.0000000 +1    0.0000000 +1     1     0     0
  O     1.44483404 +1  107.7408695 +1    0.0000000 +1     1     2     0
  O     1.19875208 +1  130.6874880 +1  168.1104681 +1     1     2     3
  C     1.43117346 +1  117.6473476 +1  160.1999229 +1     3     1     2
  C     1.52902678 +1  111.6082925 +1  161.2621106 +1     5     3     1
  H     1.09934102 +1  106.8271527 +1  -52.2266375 +1     2     1     3
  H     1.10402902 +1  113.6242556 +1   65.9598374 +1     2     1     3
  H     1.10305016 +1  113.4477687 +1 -172.0154896 +1     2     1     3
  H     1.10350533 +1  103.6863655 +1  -79.5351978 +1     5     3     1
  H     1.10279059 +1  109.1634228 +1   38.1032129 +1     5     3     1
  H     1.09540045 +1  113.5627658 +1  -78.2770471 +1     6     5     3
  H     1.09504264 +1  112.4592695 +1   43.6793008 +1     6     5     3
  H     1.10253706 +1  110.1826360 +1  162.3454082 +1     6     5     3
  O     2.10390806 +1   96.5958693 +1  -83.5822771 +1     1     2     3
  H     1.04228932 +1   78.0298101 +1  107.5566958 +1    15     1     2
  H     0.96057269 +1   95.1407657 +1 -145.9083269 +1    15     1     2
 
 TIME=     0.00
  REACTANTS AND PRODUCTS SWAPPED AROUND
 *+*+*+*+*+*+*+*+*+*+*+*+*+*+*+*+*+*+*+*+*+*+*+*+*+*+*+*+*+*+*+*+*+*+*+*+*+*+*+*+
            BAR SHORTENED BY       1.000 PERCENT
 GRADIENT CRITERION IN FLEPO =    10.000


          FOR POINT   44 FIRST  STRUCTURE
 DISTANCE A - B      1.026619
 HEAT             -153.082365
 GRADIENT NORM      51.249088
 DIRECTION COSINE    0.963959
 saddle
  Ethanol plus acetic acid

[...]
  C     1.42180057 +1  115.4771848 +1  145.7580157 +1     3     1     2
  C     1.52193132 +1  107.0707713 +1  159.8831502 +1     5     3     1
  H     1.10157045 +1  110.9444521 +1  -49.8943803 +1     2     1     3
  H     1.10265005 +1  112.2650973 +1   70.2561975 +1     2     1     3
  H     1.10205174 +1  110.1663365 +1 -169.7483326 +1     2     1     3
  H     1.10516110 +1  105.1773093 +1  -79.9859555 +1     5     3     1
  H     1.10627420 +1  109.9614921 +1   37.0314570 +1     5     3     1
  H     1.09505294 +1  112.1868437 +1  -69.8617091 +1     6     5     3
  H     1.09899770 +1  110.9050767 +1   50.1520172 +1     6     5     3
  H     1.09673660 +1  111.0905342 +1  169.6400900 +1     6     5     3
  O     1.64142668 +1  103.5769285 +1  -84.7092020 +1     1     2     3
  H     1.28347922 +1   83.9049381 +1 -103.1154521 +1     3     1     2
  H     0.96666459 +1  110.2624479 +1 -148.8838626 +1    15     1     2
 
 TIME=     0.02
  REACTANTS AND PRODUCTS SWAPPED AROUND
 *+*+*+*+*+*+*+*+*+*+*+*+*+*+*+*+*+*+*+*+*+*+*+*+*+*+*+*+*+*+*+*+*+*+*+*+*+*+*+*+
            BAR SHORTENED BY       1.000 PERCENT
 GRADIENT CRITERION IN FLEPO =     1.096


          FOR POINT  539 FIRST  STRUCTURE
 DISTANCE A - B      0.010710
 HEAT             -128.622583
 GRADIENT NORM       1.811476
 DIRECTION COSINE    0.671027
 saddle
  Ethanol plus acetic acid

  C     0.00000000 +1    0.0000000 +1    0.0000000 +1     0     0     0
  C     1.48665101 +1    0.0000000 +1    0.0000000 +1     1     0     0
  O     1.62188644 +1  103.3671444 +1    0.0000000 +1     1     2     0
  O     1.20502493 +1  132.4897883 +1  139.1624600 +1     1     2     3
  C     1.42189661 +1  115.4234431 +1  145.5196533 +1     3     1     2
  C     1.52176610 +1  106.9966060 +1  159.8456906 +1     5     3     1
  H     1.10160829 +1  111.1013414 +1  -49.8192395 +1     2     1     3
  H     1.10247120 +1  112.1385379 +1   70.3276995 +1     2     1     3
  H     1.10182606 +1  110.0810547 +1 -169.6996652 +1     2     1     3
  H     1.10520630 +1  105.2425992 +1  -80.0153350 +1     5     3     1
  H     1.10629760 +1  109.9626829 +1   37.0150828 +1     5     3     1
  H     1.09504986 +1  112.1523568 +1  -69.7582531 +1     6     5     3
  H     1.09904389 +1  110.8745111 +1   50.2024229 +1     6     5     3
  H     1.09652913 +1  111.1285836 +1  169.6982052 +1     6     5     3
  O     1.63474463 +1  103.7171941 +1  -84.7338194 +1     1     2     3
  H     1.27545978 +1   83.9257708 +1 -103.2883272 +1     3     1     2
  H     0.96673022 +1  110.3967916 +1 -149.1587063 +1    15     1     2
 
 TIME=     0.00
  REACTANTS AND PRODUCTS SWAPPED AROUND
 *+*+*+*+*+*+*+*+*+*+*+*+*+*+*+*+*+*+*+*+*+*+*+*+*+*+*+*+*+*+*+*+*+*+*+*+*+*+*+*+
            BAR SHORTENED BY       1.000 PERCENT
 GRADIENT CRITERION IN FLEPO =     1.096


          FOR POINT  540 SECOND STRUCTURE
 DISTANCE A - B      0.010603
 HEAT             -128.622561
 GRADIENT NORM       1.873273
 DIRECTION COSINE    0.665669
 saddle
  Ethanol plus acetic acid

  C     0.00000000 +1    0.0000000 +1    0.0000000 +1     0     0     0
  C     1.48656377 +1    0.0000000 +1    0.0000000 +1     1     0     0
  O     1.61642748 +1  103.5164441 +1    0.0000000 +1     1     2     0
  O     1.20495989 +1  132.4863148 +1  139.7962379 +1     1     2     3
  C     1.42180150 +1  115.4766474 +1  145.7556303 +1     3     1     2
  C     1.52192967 +1  107.0700296 +1  159.8827734 +1     5     3     1
  H     1.10157082 +1  110.9460212 +1  -49.8936239 +1     2     1     3
  H     1.10264824 +1  112.2638303 +1   70.2569196 +1     2     1     3
  H     1.10204949 +1  110.1654840 +1 -169.7478425 +1     2     1     3
  H     1.10516155 +1  105.1779623 +1  -79.9862510 +1     5     3     1
  H     1.10627443 +1  109.9615037 +1   37.0312914 +1     5     3     1
  H     1.09505291 +1  112.1864990 +1  -69.8606741 +1     6     5     3
  H     1.09899816 +1  110.9047711 +1   50.1525214 +1     6     5     3
  H     1.09673452 +1  111.0909147 +1  169.6406715 +1     6     5     3
  O     1.64135986 +1  103.5783324 +1  -84.7094564 +1     1     2     3
  H     1.28339901 +1   83.9051395 +1 -103.1171834 +1     3     1     2
  H     0.96666519 +1  110.2637919 +1 -148.8866093 +1    15     1     2
 
 TIME=     0.02
  REACTANTS AND PRODUCTS SWAPPED AROUND
 *+*+*+*+*+*+*+*+*+*+*+*+*+*+*+*+*+*+*+*+*+*+*+*+*+*+*+*+*+*+*+*+*+*+*+*+*+*+*+*+
            BAR SHORTENED BY       1.000 PERCENT
 GRADIENT CRITERION IN FLEPO =     1.096


          FOR POINT  541 FIRST  STRUCTURE
 DISTANCE A - B      0.010497
 HEAT             -128.622412
 GRADIENT NORM       1.781036
 DIRECTION COSINE    0.659789
 saddle
  Ethanol plus acetic acid

  C     0.00000000 +1    0.0000000 +1    0.0000000 +1     0     0     0
  C     1.48665005 +1    0.0000000 +1    0.0000000 +1     1     0     0
  O     1.62183184 +1  103.3686387 +1    0.0000000 +1     1     2     0
  O     1.20502416 +1  132.4897746 +1  139.1687932 +1     1     2     3
  C     1.42189563 +1  115.4239752 +1  145.5220113 +1     3     1     2
  C     1.52176774 +1  106.9973403 +1  159.8460593 +1     5     3     1
  H     1.10160791 +1  111.0997883 +1  -49.8199785 +1     2     1     3
  H     1.10247296 +1  112.1397894 +1   70.3269987 +1     2     1     3
  H     1.10182830 +1  110.0818993 +1 -169.7001437 +1     2     1     3
  H     1.10520585 +1  105.2419529 +1  -80.0150458 +1     5     3     1
  H     1.10629736 +1  109.9626708 +1   37.0152430 +1     5     3     1
  H     1.09504988 +1  112.1526984 +1  -69.7592769 +1     6     5     3
  H     1.09904343 +1  110.8748137 +1   50.2019241 +1     6     5     3
  H     1.09653118 +1  111.1282069 +1  169.6976301 +1     6     5     3
  O     1.63481078 +1  103.7158067 +1  -84.7335839 +1     1     2     3
  H     1.27553917 +1   83.9255577 +1 -103.2866182 +1     3     1     2
  H     0.96672952 +1  110.3954621 +1 -149.1559837 +1    15     1     2
 
 TIME=     0.00
  REACTANTS AND PRODUCTS SWAPPED AROUND
 *+*+*+*+*+*+*+*+*+*+*+*+*+*+*+*+*+*+*+*+*+*+*+*+*+*+*+*+*+*+*+*+*+*+*+*+*+*+*+*+
            BAR SHORTENED BY       1.000 PERCENT
 GRADIENT CRITERION IN FLEPO =     1.096


          FOR POINT  542 SECOND STRUCTURE
 DISTANCE A - B      0.010392
 HEAT             -128.622392
 GRADIENT NORM       1.842819
 DIRECTION COSINE    0.654289
 saddle
  Ethanol plus acetic acid

  C     0.00000000 +1    0.0000000 +1    0.0000000 +1     0     0     0
  C     1.48656454 +1    0.0000000 +1    0.0000000 +1     1     0     0
  O     1.61648152 +1  103.5149673 +1    0.0000000 +1     1     2     0
  O     1.20496041 +1  132.4863699 +1  139.7899591 +1     1     2     3
  C     1.42180241 +1  115.4761207 +1  145.7532923 +1     3     1     2
  C     1.52192805 +1  107.0693027 +1  159.8824041 +1     5     3     1
  H     1.10157119 +1  110.9475589 +1  -49.8928827 +1     2     1     3
  H     1.10264648 +1  112.2625884 +1   70.2576272 +1     2     1     3
  H     1.10204727 +1  110.1646485 +1 -169.7473622 +1     2     1     3
  H     1.10516199 +1  105.1786022 +1  -79.9865406 +1     5     3     1
  H     1.10627466 +1  109.9615151 +1   37.0311291 +1     5     3     1
  H     1.09505288 +1  112.1861612 +1  -69.8596597 +1     6     5     3
  H     1.09899861 +1  110.9044715 +1   50.1530156 +1     6     5     3
  H     1.09673249 +1  111.0912876 +1  169.6412413 +1     6     5     3
  O     1.64129436 +1  103.5797083 +1  -84.7097056 +1     1     2     3
  H     1.28332040 +1   83.9053371 +1 -103.1188802 +1     3     1     2
  H     0.96666578 +1  110.2651090 +1 -148.8893014 +1    15     1     2
 
 TIME=     0.02
  REACTANTS AND PRODUCTS SWAPPED AROUND
 *+*+*+*+*+*+*+*+*+*+*+*+*+*+*+*+*+*+*+*+*+*+*+*+*+*+*+*+*+*+*+*+*+*+*+*+*+*+*+*+
            BAR SHORTENED BY       1.000 PERCENT
 GRADIENT CRITERION IN FLEPO =     1.096


          FOR POINT  543 FIRST  STRUCTURE
 DISTANCE A - B      0.010288
 HEAT             -128.622248
 GRADIENT NORM       1.751307
 DIRECTION COSINE    0.648245
 saddle
  Ethanol plus acetic acid

  C     0.00000000 +1    0.0000000 +1    0.0000000 +1     0     0     0
  C     1.48664911 +1    0.0000000 +1    0.0000000 +1     1     0     0
  O     1.62177833 +1  103.3701032 +1    0.0000000 +1     1     2     0
  O     1.20502340 +1  132.4897607 +1  139.1750003 +1     1     2     3
  C     1.42189467 +1  115.4244967 +1  145.5243224 +1     3     1     2
  C     1.52176934 +1  106.9980599 +1  159.8464206 +1     5     3     1
  H     1.10160754 +1  111.0982662 +1  -49.8207029 +1     2     1     3
  H     1.10247468 +1  112.1410160 +1   70.3263116 +1     2     1     3
  H     1.10183048 +1  110.0827271 +1 -169.7006126 +1     2     1     3
  H     1.10520541 +1  105.2413194 +1  -80.0147624 +1     5     3     1
  H     1.10629713 +1  109.9626590 +1   37.0154002 +1     5     3     1
  H     1.09504991 +1  112.1530332 +1  -69.7602803 +1     6     5     3
  H     1.09904298 +1  110.8751104 +1   50.2014351 +1     6     5     3
  H     1.09653319 +1  111.1278377 +1  169.6970665 +1     6     5     3
  O     1.63487561 +1  103.7144469 +1  -84.7333529 +1     1     2     3
  H     1.27561697 +1   83.9253489 +1 -103.2849432 +1     3     1     2
  H     0.96672883 +1  110.3941590 +1 -149.1533152 +1    15     1     2
 
 TIME=     0.00
  REACTANTS AND PRODUCTS SWAPPED AROUND
 *+*+*+*+*+*+*+*+*+*+*+*+*+*+*+*+*+*+*+*+*+*+*+*+*+*+*+*+*+*+*+*+*+*+*+*+*+*+*+*+
            BAR SHORTENED BY       1.000 PERCENT
 GRADIENT CRITERION IN FLEPO =     1.096


          FOR POINT  544 SECOND STRUCTURE
 DISTANCE A - B      0.010185
 HEAT             -128.622230
 GRADIENT NORM       1.813087
 DIRECTION COSINE    0.642607
 saddle
  Ethanol plus acetic acid

  C     0.00000000 +1    0.0000000 +1    0.0000000 +1     0     0     0
  C     1.48656531 +1    0.0000000 +1    0.0000000 +1     1     0     0
  O     1.61653448 +1  103.5135199 +1    0.0000000 +1     1     2     0
  O     1.20496092 +1  132.4864236 +1  139.7838052 +1     1     2     3
  C     1.42180331 +1  115.4756045 +1  145.7510009 +1     3     1     2
  C     1.52192646 +1  107.0685903 +1  159.8820422 +1     5     3     1
  H     1.10157155 +1  110.9490661 +1  -49.8921563 +1     2     1     3
  H     1.10264475 +1  112.2613713 +1   70.2583206 +1     2     1     3
  H     1.10204510 +1  110.1638295 +1 -169.7468915 +1     2     1     3
  H     1.10516242 +1  105.1792295 +1  -79.9868244 +1     5     3     1
  H     1.10627488 +1  109.9615263 +1   37.0309701 +1     5     3     1
  H     1.09505284 +1  112.1858300 +1  -69.8586655 +1     6     5     3
  H     1.09899905 +1  110.9041779 +1   50.1535000 +1     6     5     3
  H     1.09673050 +1  111.0916530 +1  169.6417999 +1     6     5     3
  O     1.64123018 +1  103.5810569 +1  -84.7099497 +1     1     2     3
  H     1.28324336 +1   83.9055308 +1 -103.1205431 +1     3     1     2
  H     0.96666636 +1  110.2664000 +1 -148.8919400 +1    15     1     2
 
 TIME=     0.00
  REACTANTS AND PRODUCTS SWAPPED AROUND
 *+*+*+*+*+*+*+*+*+*+*+*+*+*+*+*+*+*+*+*+*+*+*+*+*+*+*+*+*+*+*+*+*+*+*+*+*+*+*+*+
            BAR SHORTENED BY       1.000 PERCENT
 GRADIENT CRITERION IN FLEPO =     1.096


          FOR POINT  545 FIRST  STRUCTURE
 DISTANCE A - B      0.010083
 HEAT             -128.622091
 GRADIENT NORM       1.722287
 DIRECTION COSINE    0.636403
 saddle
  Ethanol plus acetic acid

  C     0.00000000 +1    0.0000000 +1    0.0000000 +1     0     0     0
  C     1.48664819 +1    0.0000000 +1    0.0000000 +1     1     0     0
  O     1.62172589 +1  103.3715386 +1    0.0000000 +1     1     2     0
  O     1.20502265 +1  132.4897467 +1  139.1810841 +1     1     2     3
  C     1.42189373 +1  115.4250078 +1  145.5265875 +1     3     1     2
  C     1.52177091 +1  106.9987652 +1  159.8467748 +1     5     3     1
  H     1.10160718 +1  111.0967743 +1  -49.8214130 +1     2     1     3
  H     1.10247637 +1  112.1422182 +1   70.3256382 +1     2     1     3
  H     1.10183263 +1  110.0835384 +1 -169.7010723 +1     2     1     3
  H     1.10520498 +1  105.2406986 +1  -80.0144846 +1     5     3     1
  H     1.10629691 +1  109.9626474 +1   37.0155542 +1     5     3     1
  H     1.09504994 +1  112.1533613 +1  -69.7612637 +1     6     5     3
  H     1.09904254 +1  110.8754011 +1   50.2009560 +1     6     5     3
  H     1.09653517 +1  111.1274758 +1  169.6965141 +1     6     5     3
  O     1.63493916 +1  103.7131141 +1  -84.7331263 +1     1     2     3
  H     1.27569322 +1   83.9251445 +1 -103.2833015 +1     3     1     2
  H     0.96672816 +1  110.3928818 +1 -149.1507000 +1    15     1     2
 
 TIME=     0.02
  REACTANTS AND PRODUCTS SWAPPED AROUND
 *+*+*+*+*+*+*+*+*+*+*+*+*+*+*+*+*+*+*+*+*+*+*+*+*+*+*+*+*+*+*+*+*+*+*+*+*+*+*+*+
            BAR SHORTENED BY       1.000 PERCENT
 AT END OF REACTION

 -------------------------------------------------------------------------------
 saddle
  Ethanol plus acetic acid



     GRADIENTS WERE INITIALLY ACCEPTABLY SMALL                
     SCF FIELD WAS ACHIEVED                                   


                              PM7 CALCULATION
                                                       MOPAC2016 (Version: 18.027W)
                                                       Sat Jan 27 22:26:52 2018
                                                       No. of days remaining = 365




          FINAL HEAT OF FORMATION =       -128.62209 KCAL/MOL =    -538.15483 KJ/MOL


          TOTAL ENERGY            =      -1511.76440 EV
          ELECTRONIC ENERGY       =      -6346.61364 EV  POINT GROUP:     C1  
          CORE-CORE REPULSION     =       4834.84925 EV
          COSMO AREA              =        145.43 SQUARE ANGSTROMS
          COSMO VOLUME            =        135.72 CUBIC ANGSTROMS

          GRADIENT NORM           =          0.83089
          IONIZATION POTENTIAL    =         10.749789 EV
          HOMO LUMO ENERGIES (EV) =        -10.750  1.235
          NO. OF FILLED LEVELS    =         22
          MOLECULAR WEIGHT        =        106.1212

          MOLECULAR DIMENSIONS (Angstroms)

            Atom       Atom       Distance
            H    14    H     9     6.66459
            H    17    H     7     3.94613
            O     4    H     8     2.84073


          SCF CALCULATIONS        =       2221
 
          WALL-CLOCK TIME         =          5.836 SECONDS
          COMPUTATION TIME        =         23.057 SECONDS




   ATOM   CHEMICAL          X               Y               Z
  NUMBER   SYMBOL      (ANGSTROMS)     (ANGSTROMS)     (ANGSTROMS)
 
     1       C         -0.81179410  *  -1.08735508  *  -0.32643053  *
     2       C         -2.00870249  *  -1.26150139  *   0.53797881  *
     3       O         -0.08047343  *   0.21571775  *   0.30364701  *
     4       O         -0.03342473  *  -1.87200137  *  -0.80658588  *
     5       C          1.34049093  *   0.20188983  *   0.25416769  *
     6       C          1.80482720  *   1.64365401  *   0.40079415  *
     7       H         -1.73361973  *  -1.24288543  *   1.60452487  *
     8       H         -2.75645562  *  -0.46746734  *   0.37725228  *
     9       H         -2.49290837  *  -2.22774499  *   0.32360115  *
    10       H          1.65445460  *  -0.43604863  *   1.10029914  *
    11       H          1.68103800  *  -0.26430741  *  -0.68953787  *
    12       H          1.56505737  *   2.24644439  *  -0.48141252  *
    13       H          1.32516659  *   2.12357453  *   1.26537240  *
    14       H          2.88930404  *   1.69593960  *   0.55431893  *
    15       O         -1.29367170  *   0.00928118  *  -1.43927136  *
    16       H         -0.58211625  *   0.81640018  *  -0.70388505  *
    17       H         -0.84072909  *  -0.14238146  *  -2.27974949  *

                             CARTESIAN COORDINATES

   1    C       -0.811794098    -1.087355082    -0.326430531
   2    C       -2.008702486    -1.261501387     0.537978810
   3    O       -0.080473432     0.215717752     0.303647011
   4    O       -0.033424727    -1.872001367    -0.806585883
   5    C        1.340490934     0.201889834     0.254167689
   6    C        1.804827205     1.643654010     0.400794152
   7    H       -1.733619733    -1.242885433     1.604524875
   8    H       -2.756455620    -0.467467345     0.377252277
   9    H       -2.492908373    -2.227744992     0.323601153
  10    H        1.654454595    -0.436048632     1.100299140
  11    H        1.681038000    -0.264307407    -0.689537874
  12    H        1.565057374     2.246444389    -0.481412521
  13    H        1.325166594     2.123574527     1.265372404
  14    H        2.889304042     1.695939604     0.554318930
  15    O       -1.293671704     0.009281179    -1.439271361
  16    H       -0.582116247     0.816400184    -0.703885045
  17    H       -0.840729094    -0.142381464    -2.279749491


           Empirical Formula: C4 H10 O3  =    17 atoms



      MOLECULAR POINT GROUP   :   C1  


                  EIGENVALUES  
 -30.87231 -29.23990 -28.15251 -26.82187 -25.97804 -21.59592 -20.26021 -17.92202
 -17.04990 -16.37260 -15.66364 -15.17941 -14.93037 -14.33518 -13.70456 -13.45105
 -13.08583 -12.83704 -12.48039 -11.08491 -10.87171 -10.74979   1.23459   2.13874
   3.14051   3.64422   4.03667   4.25435   5.13818   5.17459   5.29896   5.41525
   5.53135   5.72320   5.79346   5.98146   6.49854   6.59967


              NET ATOMIC CHARGES AND DIPOLE CONTRIBUTIONS

  ATOM NO.   TYPE          CHARGE      No. of ELECS.   s-Pop       p-Pop       
    1          C           0.754614        3.2454     1.11668     2.12871
    2          C          -0.493966        4.4940     1.05913     3.43483
    3          O          -0.567733        6.5677     1.88817     4.67956
    4          O          -0.589557        6.5896     1.87352     4.71603
    5          C           0.006645        3.9934     1.08315     2.91020
    6          C          -0.477914        4.4779     1.05656     3.42135
    7          H           0.182808        0.8172     0.81719
    8          H           0.188918        0.8111     0.81108
    9          H           0.182987        0.8170     0.81701
   10          H           0.137105        0.8629     0.86289
   11          H           0.137979        0.8620     0.86202
   12          H           0.147128        0.8529     0.85287
   13          H           0.162101        0.8379     0.83790
   14          H           0.157137        0.8429     0.84286
   15          O          -0.710178        6.7102     1.86718     4.84300
   16          H           0.440036        0.5600     0.55996
   17          H           0.341889        0.6581     0.65811
 DIPOLE           X         Y         Z       TOTAL
 POINT-CHG.     0.147     2.043     1.129     2.339
 HYBRID         0.113     0.333    -0.439     0.562
 SUM            0.259     2.376     0.690     2.488


          ATOMIC ORBITAL ELECTRON POPULATIONS

     Atom    s        px        py        pz   
    1  C   1.11668   0.76990   0.66128   0.69753
    2  C   1.05913   1.09397   1.19971   1.14115
    3  O   1.88817   1.31601   1.63133   1.73222
    4  O   1.87352   1.54523   1.53528   1.63552
    5  C   1.08315   0.76023   1.00327   1.14670
    6  C   1.05656   1.16616   1.06737   1.18782
    7  H   0.81719
    8  H   0.81108
    9  H   0.81701
   10  H   0.86289
   11  H   0.86202
   12  H   0.85287
   13  H   0.83790
   14  H   0.84286
   15  O   1.86718   1.72025   1.68183   1.44092
   16  H   0.55996
   17  H   0.65811

 **********************
 *                    *
 * JOB ENDED NORMALLY *
 *                    *
 **********************



 TOTAL JOB TIME:             5.84 SECONDS

 == MOPAC DONE ==
