 *******************************************************************************
 ** Site#: 17703        For non-commercial use only     Version 15.351W 64BITS**
 *******************************************************************************
 ** Cite this work as:                                                        **
 **                                                                           **
 ** (a) MOPAC2012, James J. P. Stewart, Stewart Computational Chemistry,      **
 **  Version 15.351W web: HTTP://OpenMOPAC.net         Days remaining: 365    **
 **                                                                           **
 **                                 AND                                       **
 **                                                                           **
 ** (b) Maia, J.D.C., et al., J. Chem. Theory Comput. 2012, 8, 3072-3081.     **
 **                DOI: 10.1021/ct3004645.                                    **
 *******************************************************************************
 **                                                                           **
 **                                MOPAC2012                                  **
 **                                                                           **
 *******************************************************************************

                              PM7 CALCULATION RESULTS


 *******************************************************************************
 *  CALCULATION DONE:                                Thu Dec 17 20:42:44 2015  *
 *  START_RES- STARTING RESIDUE NUMBERS DEFINED
 *  Keyword:   START_RES=(1) 
 *  CHAIN      - PDB CHAIN LETTERS EXPLICITLY DEFINED
 *  Keyword:   CHAINS=(A) 
 *  1SCF       - DO 1 SCF AND THEN STOP 
 *  T=         - A TIME OF 172800.0 SECONDS REQUESTED
 *  DUMP=N     - RESTART FILE WRITTEN EVERY  7200.000 SECONDS
 *  GNORM=     - EXIT WHEN GRADIENT NORM DROPS BELOW   2.00    
 *******************************************************************************
 gnorm=2 html start_res=(1) chains=(a) 1scf
 The eight Aldohexoses, in order (ALO - ALT - GLC - MAN - CUL - IDO - GAL - TAL)
 Click on "Specific Script" to see numbering
   ATOM                 CHEMICAL                   X               Y               Z
  NUMBER                 SYMBOL               (ANGSTROMS)     (ANGSTROMS)     (ANGSTROMS)
 
     1       C(HETATM    1  C1  ALO A   1)   -6.27633718  *  -1.41988494  *  -6.40970851  *
     2       O(HETATM    2  O1  ALO A   1)   -6.68694937  *  -1.09393470  *  -5.12841750  *
     3       C(HETATM    3  C2  ALO A   1)   -5.93420500  *  -0.15371106  *  -7.23729540  *
     4       O(HETATM    4  O2  ALO A   1)   -4.97299461  *   0.60772755  *  -6.55201078  *
     5       C(HETATM    5  C3  ALO A   1)   -7.20303430  *   0.67605911  *  -7.49768702  *
     6       O(HETATM    6  O3  ALO A   1)   -7.60236511  *   1.17031395  *  -6.22907374  *
     7       C(HETATM    7  C4  ALO A   1)   -8.32346299  *  -0.20725941  *  -8.09267636  *
     8       O(HETATM    8  O4  ALO A   1)   -9.45659119  *   0.63472810  *  -8.00263309  *
     9       C(HETATM    9  C5  ALO A   1)   -8.51215956  *  -1.49923474  *  -7.27840247  *
    10       O(HETATM   10  O5  ALO A   1)   -7.25480362  *  -2.14012394  *  -7.12139062  *
    11       C(HETATM   11  C6  ALO A   1)   -9.33662660  *  -2.54384576  *  -8.04598317  *
    12       O(HETATM   12  O6  ALO A   1)   -9.89293889  *  -3.47127290  *  -7.14177008  *
    13       H(HETATM   13 1H1  ALO A   1)   -7.30211506  *  -0.31743006  *  -5.13787386  *
    14       H(HETATM   14 2H1  ALO A   1)   -5.44752602  *  -2.14846027  *  -6.28326912  *
    15       H(HETATM   15 1H2  ALO A   1)   -5.35423866  *   0.98027363  *  -5.71606583  *
    16       H(HETATM   16 2H2  ALO A   1)   -5.41571405  *  -0.42090140  *  -8.19053864  *
    17       H(HETATM   17 1H3  ALO A   1)   -8.52608699  *   1.51999436  *  -6.28934687  *
    18       H(HETATM   18 2H3  ALO A   1)   -6.99897258  *   1.56270792  *  -8.14190227  *
    19       H(HETATM   19 1H4  ALO A   1)  -10.31800876  *   0.15599008  *  -8.13974166  *
    20       H(HETATM   20 2H4  ALO A   1)   -8.13904554  *  -0.43665131  *  -9.16973170  *
    21       H(HETATM   21  H5  ALO A   1)   -8.95214623  *  -1.29660254  *  -6.27621176  *
    22       H(HETATM   22  H6  ALO A   1)   -9.18311125  *  -3.87937041  *  -6.59933810  *
    23       H(HETATM   23 1H6  ALO A   1)  -10.22109078  *  -2.10037935  *  -8.54486434  *
    24       H(HETATM   24 2H6  ALO A   1)   -8.72101508  *  -3.08588647  *  -8.78918254  *
    25       C(HETATM   26  C1  ALT A   2)  -12.89833488  *  -2.19329382  *  -7.00434496  *
    26       O(HETATM   27  O1  ALT A   2)  -13.44449214  *  -2.30421790  *  -5.70639275  *
    27       C(HETATM   28  C2  ALT A   2)  -12.66955473  *  -0.67404625  *  -7.19754492  *
    28       O(HETATM   29  O2  ALT A   2)  -11.86353136  *  -0.50146994  *  -8.32657763  *
    29       C(HETATM   30  C3  ALT A   2)  -14.01503097  *   0.06508365  *  -7.31398414  *
    30       O(HETATM   31  O3  ALT A   2)  -14.64564657  *   0.09173145  *  -6.05494847  *
    31       C(HETATM   32  C4  ALT A   2)  -14.96161049  *  -0.63582629  *  -8.31162605  *
    32       O(HETATM   33  O4  ALT A   2)  -16.24552908  *  -0.07043943  *  -8.24692263  *
    33       C(HETATM   34  C5  ALT A   2)  -15.07083860  *  -2.13902310  *  -7.98820586  *
    34       O(HETATM   35  O5  ALT A   2)  -13.77416723  *  -2.72337743  *  -7.94818823  *
    35       C(HETATM   36  C6  ALT A   2)  -15.77833865  *  -2.88839068  *  -9.12073103  *
    36       O(HETATM   37  O6  ALT A   2)  -15.91349862  *  -4.25497713  *  -8.79561782  *
    37       H(HETATM   38 1H1  ALT A   2)  -13.77506043  *  -3.20953490  *  -5.53435698  *
    38       H(HETATM   39 2H1  ALT A   2)  -11.98706701  *  -2.82577112  *  -7.10798126  *
    39       H(HETATM   40 1H2  ALT A   2)  -12.33149749  *  -0.60193265  *  -9.19078179  *
    40       H(HETATM   41 2H2  ALT A   2)  -12.05621990  *  -0.25661393  *  -6.36243335  *
    41       H(HETATM   42 1H3  ALT A   2)  -14.48588236  *  -0.76296546  *  -5.58071288  *
    42       H(HETATM   43 2H3  ALT A   2)  -13.88512420  *   1.14149368  *  -7.56795952  *
    43       H(HETATM   44 1H4  ALT A   2)  -16.47456915  *   0.14393551  *  -7.30909988  *
    44       H(HETATM   45 2H4  ALT A   2)  -14.65339984  *  -0.46340523  *  -9.36605420  *
    45       H(HETATM   46  H5  ALT A   2)  -15.57541538  *  -2.31401744  *  -7.01404022  *
    46       H(HETATM   47  H6  ALT A   2)  -15.03037449  *  -4.63859474  *  -8.60943445  *
    47       H(HETATM   48 1H6  ALT A   2)  -16.82551686  *  -2.53049241  *  -9.22443073  *
    48       H(HETATM   49 2H6  ALT A   2)  -15.24623913  *  -2.79453570  * -10.08505084  *
    49       O(HETATM   51  O1  GLC A   3)  -19.12474070  *  -4.58596157  * -11.72319871  *
    50       C(HETATM   52  C1  GLC A   3)  -18.28953625  *  -3.62803415  * -11.14837034  *
    51       C(HETATM   53  C2  GLC A   3)  -17.94176642  *  -2.49090102  * -12.14910059  *
    52       O(HETATM   54  O2  GLC A   3)  -17.11822612  *  -1.54465259  * -11.53374227  *
    53       C(HETATM   55  C3  GLC A   3)  -19.26880161  *  -1.89639039  * -12.64073143  *
    54       O(HETATM   56  O3  GLC A   3)  -18.96187808  *  -0.96218719  * -13.66448432  *
    55       C(HETATM   57  C4  GLC A   3)  -20.12635961  *  -3.02317892  * -13.25041431  *
    56       O(HETATM   58  O4  GLC A   3)  -21.33574717  *  -2.39742967  * -13.60509439  *
    57       O(HETATM   59  O5  GLC A   3)  -18.93433999  *  -2.97098131  * -10.08687308  *
    58       C(HETATM   60  C5  GLC A   3)  -20.38665087  *  -4.11875959  * -12.19637516  *
    59       C(HETATM   61  C6  GLC A   3)  -21.03005894  *  -5.37935864  * -12.78799000  *
    60       O(HETATM   62  O6  GLC A   3)  -22.07622356  *  -5.74758843  * -11.90294705  *
    61       H(HETATM   63  H1  GLC A   3)  -17.42262969  *  -4.22268379  * -10.78388209  *
    62       H(HETATM   64 1H2  GLC A   3)  -17.56077104  *  -1.12979989  * -10.75457177  *
    63       H(HETATM   65 2H2  GLC A   3)  -17.31240181  *  -2.86106424  * -12.98875334  *
    64       H(HETATM   66 1H3  GLC A   3)  -19.81156052  *  -0.57391926  * -13.99084055  *
    65       H(HETATM   67 2H3  GLC A   3)  -19.80776816  *  -1.35010415  * -11.83356844  *
    66       H(HETATM   68 1H4  GLC A   3)  -21.77689414  *  -2.92199043  * -14.32068652  *
    67       H(HETATM   69 2H4  GLC A   3)  -19.64203637  *  -3.44568551  * -14.16157041  *
    68       H(HETATM   70 1H5  GLC A   3)  -19.30281783  *  -3.60727877  *  -9.43926152  *
    69       H(HETATM   71 2H5  GLC A   3)  -20.98701417  *  -3.73055995  * -11.34230073  *
    70       H(HETATM   72  H6  GLC A   3)  -22.86265218  *  -6.03392057  * -12.40540285  *
    71       H(HETATM   73 1H6  GLC A   3)  -21.41819887  *  -5.21010233  * -13.80613616  *
    72       H(HETATM   74 2H6  GLC A   3)  -20.31356320  *  -6.22640925  * -12.79382176  *
    73       C(HETATM   76  C1  MAN A   4)  -23.92315028  *  -6.54065274  * -15.57209922  *
    74       O(HETATM   77  O1  MAN A   4)  -23.27688273  *  -6.66600560  * -16.80727742  *
    75       C(HETATM   78  C2  MAN A   4)  -25.18603553  *  -5.67066672  * -15.65724894  *
    76       O(HETATM   79  O2  MAN A   4)  -24.79899380  *  -4.43365738  * -16.23095567  *
    77       C(HETATM   80  C3  MAN A   4)  -26.21488360  *  -6.34556998  * -16.57936053  *
    78       O(HETATM   81  O3  MAN A   4)  -27.34479483  *  -5.51076078  * -16.56560760  *
    79       C(HETATM   82  C4  MAN A   4)  -26.56319264  *  -7.72148937  * -15.97644263  *
    80       O(HETATM   83  O4  MAN A   4)  -25.36409092  *  -8.48549444  * -15.87667741  *
    81       C(HETATM   84  C5  MAN A   4)  -24.34439158  *  -7.94837774  * -15.08192669  *
    82       O(HETATM   85  O5  MAN A   4)  -24.76719455  *  -7.74032251  * -13.76514823  *
    83       C(HETATM   86  C6  MAN A   4)  -27.45189168  *  -8.56080959  * -16.90200258  *
    84       O(HETATM   87  O6  MAN A   4)  -27.89135807  *  -9.71511450  * -16.22502519  *
    85       H(HETATM   88 1H1  MAN A   4)  -23.86684495  *  -7.06852209  * -17.48361841  *
    86       H(HETATM   89 2H1  MAN A   4)  -23.13991025  *  -6.08719405  * -14.91664307  *
    87       H(HETATM   90 1H2  MAN A   4)  -25.58033040  *  -3.83080811  * -16.27519846  *
    88       H(HETATM   91 2H2  MAN A   4)  -25.60884677  *  -5.46292645  * -14.64489479  *
    89       H(HETATM   92 1H3  MAN A   4)  -27.82935085  *  -5.61242759  * -17.43010412  *
    90       H(HETATM   93 2H3  MAN A   4)  -25.82806575  *  -6.42884923  * -17.62126729  *
    91       H(HETATM   94 1H5  MAN A   4)  -25.20500241  *  -8.52871821  * -13.38290432  *
    92       H(HETATM   95 2H5  MAN A   4)  -23.54584140  *  -8.71898933  * -15.14159768  *
    93       H(HETATM   96  H4  MAN A   4)  -27.02083429  *  -7.62047947  * -14.96672647  *
    94       H(HETATM   97  H6  MAN A   4)  -27.11727192  * -10.25284518  * -15.94775379  *
    95       H(HETATM   98 1H6  MAN A   4)  -28.39613562  *  -8.02945717  * -17.14599299  *
    96       H(HETATM   99 2H6  MAN A   4)  -26.92613333  *  -8.86039999  * -17.82668213  *
    97       C(HETATM  101  C1  GUL A   5)   -3.06911477  *   1.34780104  *  -9.26011181  *
    98       O(HETATM  102  O1  GUL A   5)   -3.93195032  *   2.13646047  *  -8.49677196  *
    99       C(HETATM  103  C2  GUL A   5)   -2.42863776  *   2.29612523  * -10.30609443  *
   100       O(HETATM  104  O2  GUL A   5)   -1.77136148  *   3.34244648  *  -9.65182104  *
   101       C(HETATM  105  C3  GUL A   5)   -3.49911435  *   2.82574325  * -11.27884468  *
   102       O(HETATM  106  O3  GUL A   5)   -4.38779741  *   3.69887285  * -10.63165763  *
   103       C(HETATM  107  C4  GUL A   5)   -4.29469418  *   1.64039287  * -11.87373559  *
   104       O(HETATM  108  O4  GUL A   5)   -3.46052352  *   0.91251852  * -12.74097158  *
   105       C(HETATM  109  C5  GUL A   5)   -4.83702053  *   0.73336803  * -10.75594642  *
   106       O(HETATM  110  O5  GUL A   5)   -3.77754680  *   0.31447604  *  -9.90320513  *
   107       C(HETATM  111  C6  GUL A   5)   -5.39338749  *  -0.57242646  * -11.33945233  *
   108       O(HETATM  112  O6  GUL A   5)   -6.38335584  *  -1.09324310  * -10.47911707  *
   109       H(HETATM  113 1H1  GUL A   5)   -4.32549277  *   1.64438706  *  -7.73228982  *
   110       H(HETATM  114 2H1  GUL A   5)   -2.34794541  *   0.80294417  *  -8.61687529  *
   111       H(HETATM  115 1H2  GUL A   5)   -2.43293046  *   3.92859162  *  -9.20631322  *
   112       H(HETATM  116 2H2  GUL A   5)   -1.60597291  *   1.77615453  * -10.84899802  *
   113       H(HETATM  117 1H3  GUL A   5)   -4.64519524  *   3.32591494  *  -9.75355353  *
   114       H(HETATM  118 2H3  GUL A   5)   -3.04917371  *   3.45654327  * -12.07900753  *
   115       H(HETATM  119 1H4  GUL A   5)   -2.81691953  *   0.37503415  * -12.23110657  *
   116       H(HETATM  120 2H4  GUL A   5)   -5.11191462  *   2.00510385  * -12.54338488  *
   117       H(HETATM  121  H5  GUL A   5)   -5.59795460  *   1.26492826  * -10.14264465  *
   118       H(HETATM  122  H6  GUL A   5)   -5.99228076  *  -1.54478296  *  -9.70473944  *
   119       H(HETATM  123 1H6  GUL A   5)   -5.94626210  *  -0.39080721  * -12.28608074  *
   120       H(HETATM  124 2H6  GUL A   5)   -4.60215763  *  -1.32129044  * -11.51364537  *
   121       C(HETATM  126  C1  IDO A   6)   -8.70748200  *   1.12855778  * -11.21488179  *
   122       O(HETATM  127  O1  IDO A   6)   -9.13610199  *   2.05368912  * -10.25629588  *
   123       C(HETATM  128  C2  IDO A   6)   -8.52586509  *   1.97020050  * -12.50182541  *
   124       O(HETATM  129  O2  IDO A   6)   -7.74179385  *   1.24625729  * -13.41007959  *
   125       C(HETATM  130  C3  IDO A   6)   -9.90606081  *   2.33850547  * -13.07230662  *
   126       O(HETATM  131  O3  IDO A   6)  -10.53585194  *   3.27292659  * -12.23408319  *
   127       C(HETATM  132  C4  IDO A   6)  -10.79994905  *   1.07311694  * -13.15060595  *
   128       O(HETATM  133  O4  IDO A   6)  -10.15253562  *   0.13908318  * -13.99710231  *
   129       C(HETATM  134  C5  IDO A   6)  -10.95394478  *   0.48246808  * -11.73997642  *
   130       O(HETATM  135  O5  IDO A   6)   -9.65153048  *   0.08894753  * -11.32234552  *
   131       C(HETATM  136  C6  IDO A   6)  -11.77068728  *  -0.81709360  * -11.70700761  *
   132       O(HETATM  137  O6  IDO A   6)  -12.86059030  *  -0.66750050  * -10.81934354  *
   133       H(HETATM  138 1H1  IDO A   6)   -9.34222038  *   1.61398082  *  -9.38563928  *
   134       H(HETATM  139 2H1  IDO A   6)   -7.79177851  *   0.58237368  * -10.89516141  *
   135       H(HETATM  140 1H2  IDO A   6)   -8.31315826  *   0.71760387  * -14.01607593  *
   136       H(HETATM  141 2H2  IDO A   6)   -7.91751152  *   2.88298320  * -12.28287202  *
   137       H(HETATM  142 1H3  IDO A   6)  -10.27557327  *   3.10984892  * -11.29106478  *
   138       H(HETATM  143 2H3  IDO A   6)   -9.83301623  *   2.84547263  * -14.05920130  *
   139       H(HETATM  144 1H4  IDO A   6)   -9.65780676  *  -0.52370548  * -13.45451974  *
   140       H(HETATM  145 2H4  IDO A   6)  -11.76682435  *   1.28758718  * -13.64972221  *
   141       H(HETATM  146  H5  IDO A   6)  -11.36808602  *   1.22919362  * -11.02230967  *
   142       H(HETATM  147  H6  IDO A   6)  -13.60057813  *  -0.16834091  * -11.22510560  *
   143       H(HETATM  148 1H6  IDO A   6)  -12.14146905  *  -1.12147405  * -12.70123726  *
   144       H(HETATM  149 2H6  IDO A   6)  -11.19112407  *  -1.65186071  * -11.25671789  *
   145       C(HETATM  151  C1  GAL A   7)  -17.84018349  *  -2.79047220  * -18.11415006  *
   146       O(HETATM  152  O1  GAL A   7)  -16.76498419  *  -1.92977938  * -18.38911707  *
   147       C(HETATM  153  C2  GAL A   7)  -19.11044715  *  -2.26487169  * -18.79955052  *
   148       O(HETATM  154  O2  GAL A   7)  -18.98109507  *  -2.35536226  * -20.20594007  *
   149       C(HETATM  155  C3  GAL A   7)  -20.30633505  *  -3.17007963  * -18.44896008  *
   150       O(HETATM  156  O3  GAL A   7)  -20.10754315  *  -4.47132262  * -18.96197364  *
   151       C(HETATM  157  C4  GAL A   7)  -20.43395044  *  -3.32216876  * -16.92209941  *
   152       O(HETATM  158  O4  GAL A   7)  -19.20048441  *  -3.69215003  * -16.31720870  *
   153       C(HETATM  159  C5  GAL A   7)  -18.09779306  *  -2.87796063  * -16.59209367  *
   154       O(HETATM  160  O5  GAL A   7)  -18.32241562  *  -1.55926447  * -16.19942706  *
   155       C(HETATM  161  C6  GAL A   7)  -21.36622537  *  -4.48517774  * -16.56177806  *
   156       O(HETATM  162  O6  GAL A   7)  -22.23429056  *  -4.03254588  * -15.53493893  *
   157       H(HETATM  163 1H1  GAL A   7)  -16.83474259  *  -1.11682046  * -17.83245391  *
   158       H(HETATM  164 2H1  GAL A   7)  -17.51958507  *  -3.77151067  * -18.53060002  *
   159       H(HETATM  165 1H2  GAL A   7)  -18.07654955  *  -2.07367096  * -20.47144459  *
   160       H(HETATM  166 2H2  GAL A   7)  -19.30576975  *  -1.19990307  * -18.54280919  *
   161       H(HETATM  167 1H3  GAL A   7)  -19.77759980  *  -4.40461246  * -19.88897021  *
   162       H(HETATM  168 2H3  GAL A   7)  -21.24956750  *  -2.77702116  * -18.89482564  *
   163       H(HETATM  169 1H5  GAL A   7)  -18.49157383  *  -1.45571251  * -15.22340950  *
   164       H(HETATM  170 2H5  GAL A   7)  -17.28100483  *  -3.34365846  * -16.00267330  *
   165       H(HETATM  171  H4  GAL A   7)  -20.77070294  *  -2.36602263  * -16.45724560  *
   166       H(HETATM  172  H6  GAL A   7)  -23.16915289  *  -4.03376664  * -15.81906456  *
   167       H(HETATM  173 1H6  GAL A   7)  -21.95085679  *  -4.84830954  * -17.42774257  *
   168       H(HETATM  174 2H6  GAL A   7)  -20.80541679  *  -5.33530237  * -16.12438679  *
   169       C(HETATM  176  C1  TAL A   8)  -24.21498606  *  -4.98932891  * -19.78651373  *
   170       O(HETATM  177  O1  TAL A   8)  -24.04374314  *  -4.04584304  * -18.77796134  *
   171       C(HETATM  178  C2  TAL A   8)  -23.93647560  *  -4.22105685  * -21.10510119  *
   172       O(HETATM  179  O2  TAL A   8)  -24.10316771  *  -5.11924783  * -22.15986529  *
   173       C(HETATM  180  C3  TAL A   8)  -24.92389765  *  -3.03866779  * -21.13527001  *
   174       O(HETATM  181  O3  TAL A   8)  -24.77431826  *  -2.41227604  * -22.39267797  *
   175       C(HETATM  182  C4  TAL A   8)  -26.37549710  *  -3.55914881  * -21.06259781  *
   176       O(HETATM  183  O4  TAL A   8)  -26.67770909  *  -4.28847409  * -22.23996994  *
   177       C(HETATM  184  C5  TAL A   8)  -26.57027266  *  -4.54101948  * -19.88908108  *
   178       O(HETATM  185  O5  TAL A   8)  -25.52967215  *  -5.49736281  * -19.77865561  *
   179       C(HETATM  186  C6  TAL A   8)  -27.83587106  *  -5.37899315  * -20.13763486  *
   180       O(HETATM  187  O6  TAL A   8)  -28.05471673  *  -6.25515083  * -19.04798621  *
   181       H(HETATM  188 1H1  TAL A   8)  -24.21763796  *  -4.39614578  * -17.87218539  *
   182       H(HETATM  189 2H1  TAL A   8)  -23.59632593  *  -5.89621102  * -19.63119133  *
   183       H(HETATM  190 1H2  TAL A   8)  -25.06542840  *  -5.31661918  * -22.28845477  *
   184       H(HETATM  191 2H2  TAL A   8)  -22.87868262  *  -3.88926088  * -21.19281572  *
   185       H(HETATM  192 1H3  TAL A   8)  -24.85643918  *  -1.44113654  * -22.31436228  *
   186       H(HETATM  193 2H3  TAL A   8)  -24.70103098  *  -2.32823916  * -20.30786561  *
   187       H(HETATM  194 1H4  TAL A   8)  -26.33374997  *  -3.79218110  * -23.02741845  *
   188       H(HETATM  195 2H4  TAL A   8)  -27.10492282  *  -2.72088376  * -21.00190255  *
   189       H(HETATM  196  H5  TAL A   8)  -26.61539606  *  -3.99293996  * -18.92079007  *
   190       H(HETATM  197  H6  TAL A   8)  -27.42470360  *  -7.00835837  * -19.09656890  *
   191       H(HETATM  198 1H6  TAL A   8)  -28.74498524  *  -4.75010608  * -20.15950056  *
   192       H(HETATM  199 2H6  TAL A   8)  -27.76474925  *  -5.96985443  * -21.07134840  *
 

     ===================== shared-memory parallel CPU Section ======================
     **                                                                           **
     **  MOPAC calculations will run in shared-memory parallel CPUs               **
     **                                                                           **
     **  Number of Threads =  4                                                   **
     **                                                                           **
     **                                                                           **
     **  For information on this work, see:                                       **
     **                                                                           **
     **  Maia, J.D.C., et al., J. Chem. Theory Comput. 2012, 8, 3072-3081.        **
     **        DOI: 10.1021/ct3004645.                                            **
     **                                                                           **
     ===================== shared-memory parallel CPU Section ======================
      


 General Reference for PM7:
 "Optimization of Parameters for Semiempirical Methods VI: More Modifications to the 
 NDDO Approximations and Re-optimization of Parameters", J. J. P. Stewart, J. Mol. Mod., 1:32, 19 (2013)
 http://www.springerlink.com/openurl.asp?genre=article&id=doi:10.1007/s00894-012-1667-x

           Empirical Formula: C48 H96 O48  =   192 atoms



      MOLECULAR POINT GROUP   :   C1  


      RHF CALCULATION, NO. OF DOUBLY OCCUPIED LEVELS =  288


 -------------------------------------------------------------------------------
 gnorm=2 html start_res=(1) chains=(a) 1scf
 The eight Aldohexoses, in order (ALO - ALT - GLC - MAN - CUL - IDO - GAL - TAL)
 Click on "Specific Script" to see numbering


     1SCF WAS SPECIFIED, SO BFGS WAS NOT USED                 
     SCF FIELD WAS ACHIEVED                                   


                              PM7 CALCULATION
                                                       MOPAC2012 (Version: 15.351W)
                                                       Thu Dec 17 20:42:46 2015
                                                       No. of days left = 365




          FINAL HEAT OF FORMATION =      -2317.40521 KCAL/MOL =   -9696.02341 KJ/MOL


          TOTAL ENERGY            =     -21371.80911 EV
          ELECTRONIC ENERGY       =    -326559.42252 EV  POINT GROUP:     C1  
          CORE-CORE REPULSION     =     305187.61341 EV
          COSMO AREA              =       1062.81 SQUARE ANGSTROMS
          COSMO VOLUME            =       1538.71 CUBIC ANGSTROMS

          IONIZATION POTENTIAL    =         10.085316 EV
          HOMO LUMO ENERGIES (EV) =        -10.085  0.749
          NO. OF FILLED LEVELS    =        288
          MOLECULAR WEIGHT        =       1441.2576

          MOLECULAR DIMENSIONS (Angstroms)

            Atom       Atom       Distance
            O   100    O    84    29.93261
            H   185    H    37    15.78454
            H   120    H    43     8.62989


          SCF CALCULATIONS        =          1
 
          WALL-CLOCK TIME         =          2.187 SECONDS
          COMPUTATION TIME        =          5.226 SECONDS




   ATOM                 CHEMICAL                   X               Y               Z
  NUMBER                 SYMBOL               (ANGSTROMS)     (ANGSTROMS)     (ANGSTROMS)
 
     1       C(HETATM    1  C1  ALO A   1)   -6.27633718  *  -1.41988494  *  -6.40970851  *
     2       O(HETATM    2  O1  ALO A   1)   -6.68694937  *  -1.09393470  *  -5.12841750  *
     3       C(HETATM    3  C2  ALO A   1)   -5.93420500  *  -0.15371106  *  -7.23729540  *
     4       O(HETATM    4  O2  ALO A   1)   -4.97299461  *   0.60772755  *  -6.55201078  *
     5       C(HETATM    5  C3  ALO A   1)   -7.20303430  *   0.67605911  *  -7.49768702  *
     6       O(HETATM    6  O3  ALO A   1)   -7.60236511  *   1.17031395  *  -6.22907374  *
     7       C(HETATM    7  C4  ALO A   1)   -8.32346299  *  -0.20725941  *  -8.09267636  *
     8       O(HETATM    8  O4  ALO A   1)   -9.45659119  *   0.63472810  *  -8.00263309  *
     9       C(HETATM    9  C5  ALO A   1)   -8.51215956  *  -1.49923474  *  -7.27840247  *
    10       O(HETATM   10  O5  ALO A   1)   -7.25480362  *  -2.14012394  *  -7.12139062  *
    11       C(HETATM   11  C6  ALO A   1)   -9.33662660  *  -2.54384576  *  -8.04598317  *
    12       O(HETATM   12  O6  ALO A   1)   -9.89293889  *  -3.47127290  *  -7.14177008  *
    13       H(HETATM   13 1H1  ALO A   1)   -7.30211506  *  -0.31743006  *  -5.13787386  *
    14       H(HETATM   14 2H1  ALO A   1)   -5.44752602  *  -2.14846027  *  -6.28326912  *
    15       H(HETATM   15 1H2  ALO A   1)   -5.35423866  *   0.98027363  *  -5.71606583  *
    16       H(HETATM   16 2H2  ALO A   1)   -5.41571405  *  -0.42090140  *  -8.19053864  *
    17       H(HETATM   17 1H3  ALO A   1)   -8.52608699  *   1.51999436  *  -6.28934687  *
    18       H(HETATM   18 2H3  ALO A   1)   -6.99897258  *   1.56270792  *  -8.14190227  *
    19       H(HETATM   19 1H4  ALO A   1)  -10.31800876  *   0.15599008  *  -8.13974166  *
    20       H(HETATM   20 2H4  ALO A   1)   -8.13904554  *  -0.43665131  *  -9.16973170  *
    21       H(HETATM   21  H5  ALO A   1)   -8.95214623  *  -1.29660254  *  -6.27621176  *
    22       H(HETATM   22  H6  ALO A   1)   -9.18311125  *  -3.87937041  *  -6.59933810  *
    23       H(HETATM   23 1H6  ALO A   1)  -10.22109078  *  -2.10037935  *  -8.54486434  *
    24       H(HETATM   24 2H6  ALO A   1)   -8.72101508  *  -3.08588647  *  -8.78918254  *
    25       C(HETATM   26  C1  ALT A   2)  -12.89833488  *  -2.19329382  *  -7.00434496  *
    26       O(HETATM   27  O1  ALT A   2)  -13.44449214  *  -2.30421790  *  -5.70639275  *
    27       C(HETATM   28  C2  ALT A   2)  -12.66955473  *  -0.67404625  *  -7.19754492  *
    28       O(HETATM   29  O2  ALT A   2)  -11.86353136  *  -0.50146994  *  -8.32657763  *
    29       C(HETATM   30  C3  ALT A   2)  -14.01503097  *   0.06508365  *  -7.31398414  *
    30       O(HETATM   31  O3  ALT A   2)  -14.64564657  *   0.09173145  *  -6.05494847  *
    31       C(HETATM   32  C4  ALT A   2)  -14.96161049  *  -0.63582629  *  -8.31162605  *
    32       O(HETATM   33  O4  ALT A   2)  -16.24552908  *  -0.07043943  *  -8.24692263  *
    33       C(HETATM   34  C5  ALT A   2)  -15.07083860  *  -2.13902310  *  -7.98820586  *
    34       O(HETATM   35  O5  ALT A   2)  -13.77416723  *  -2.72337743  *  -7.94818823  *
    35       C(HETATM   36  C6  ALT A   2)  -15.77833865  *  -2.88839068  *  -9.12073103  *
    36       O(HETATM   37  O6  ALT A   2)  -15.91349862  *  -4.25497713  *  -8.79561782  *
    37       H(HETATM   38 1H1  ALT A   2)  -13.77506043  *  -3.20953490  *  -5.53435698  *
    38       H(HETATM   39 2H1  ALT A   2)  -11.98706701  *  -2.82577112  *  -7.10798126  *
    39       H(HETATM   40 1H2  ALT A   2)  -12.33149749  *  -0.60193265  *  -9.19078179  *
    40       H(HETATM   41 2H2  ALT A   2)  -12.05621990  *  -0.25661393  *  -6.36243335  *
    41       H(HETATM   42 1H3  ALT A   2)  -14.48588236  *  -0.76296546  *  -5.58071288  *
    42       H(HETATM   43 2H3  ALT A   2)  -13.88512420  *   1.14149368  *  -7.56795952  *
    43       H(HETATM   44 1H4  ALT A   2)  -16.47456915  *   0.14393551  *  -7.30909988  *
    44       H(HETATM   45 2H4  ALT A   2)  -14.65339984  *  -0.46340523  *  -9.36605420  *
    45       H(HETATM   46  H5  ALT A   2)  -15.57541538  *  -2.31401744  *  -7.01404022  *
    46       H(HETATM   47  H6  ALT A   2)  -15.03037449  *  -4.63859474  *  -8.60943445  *
    47       H(HETATM   48 1H6  ALT A   2)  -16.82551686  *  -2.53049241  *  -9.22443073  *
    48       H(HETATM   49 2H6  ALT A   2)  -15.24623913  *  -2.79453570  * -10.08505084  *
    49       O(HETATM   51  O1  GLC A   3)  -19.12474070  *  -4.58596157  * -11.72319871  *
    50       C(HETATM   52  C1  GLC A   3)  -18.28953625  *  -3.62803415  * -11.14837034  *
    51       C(HETATM   53  C2  GLC A   3)  -17.94176642  *  -2.49090102  * -12.14910059  *
    52       O(HETATM   54  O2  GLC A   3)  -17.11822612  *  -1.54465259  * -11.53374227  *
    53       C(HETATM   55  C3  GLC A   3)  -19.26880161  *  -1.89639039  * -12.64073143  *
    54       O(HETATM   56  O3  GLC A   3)  -18.96187808  *  -0.96218719  * -13.66448432  *
    55       C(HETATM   57  C4  GLC A   3)  -20.12635961  *  -3.02317892  * -13.25041431  *
    56       O(HETATM   58  O4  GLC A   3)  -21.33574717  *  -2.39742967  * -13.60509439  *
    57       O(HETATM   59  O5  GLC A   3)  -18.93433999  *  -2.97098131  * -10.08687308  *
    58       C(HETATM   60  C5  GLC A   3)  -20.38665087  *  -4.11875959  * -12.19637516  *
    59       C(HETATM   61  C6  GLC A   3)  -21.03005894  *  -5.37935864  * -12.78799000  *
    60       O(HETATM   62  O6  GLC A   3)  -22.07622356  *  -5.74758843  * -11.90294705  *
    61       H(HETATM   63  H1  GLC A   3)  -17.42262969  *  -4.22268379  * -10.78388209  *
    62       H(HETATM   64 1H2  GLC A   3)  -17.56077104  *  -1.12979989  * -10.75457177  *
    63       H(HETATM   65 2H2  GLC A   3)  -17.31240181  *  -2.86106424  * -12.98875334  *
    64       H(HETATM   66 1H3  GLC A   3)  -19.81156052  *  -0.57391926  * -13.99084055  *
    65       H(HETATM   67 2H3  GLC A   3)  -19.80776816  *  -1.35010415  * -11.83356844  *
    66       H(HETATM   68 1H4  GLC A   3)  -21.77689414  *  -2.92199043  * -14.32068652  *
    67       H(HETATM   69 2H4  GLC A   3)  -19.64203637  *  -3.44568551  * -14.16157041  *
    68       H(HETATM   70 1H5  GLC A   3)  -19.30281783  *  -3.60727877  *  -9.43926152  *
    69       H(HETATM   71 2H5  GLC A   3)  -20.98701417  *  -3.73055995  * -11.34230073  *
    70       H(HETATM   72  H6  GLC A   3)  -22.86265218  *  -6.03392057  * -12.40540285  *
    71       H(HETATM   73 1H6  GLC A   3)  -21.41819887  *  -5.21010233  * -13.80613616  *
    72       H(HETATM   74 2H6  GLC A   3)  -20.31356320  *  -6.22640925  * -12.79382176  *
    73       C(HETATM   76  C1  MAN A   4)  -23.92315028  *  -6.54065274  * -15.57209922  *
    74       O(HETATM   77  O1  MAN A   4)  -23.27688273  *  -6.66600560  * -16.80727742  *
    75       C(HETATM   78  C2  MAN A   4)  -25.18603553  *  -5.67066672  * -15.65724894  *
    76       O(HETATM   79  O2  MAN A   4)  -24.79899380  *  -4.43365738  * -16.23095567  *
    77       C(HETATM   80  C3  MAN A   4)  -26.21488360  *  -6.34556998  * -16.57936053  *
    78       O(HETATM   81  O3  MAN A   4)  -27.34479483  *  -5.51076078  * -16.56560760  *
    79       C(HETATM   82  C4  MAN A   4)  -26.56319264  *  -7.72148937  * -15.97644263  *
    80       O(HETATM   83  O4  MAN A   4)  -25.36409092  *  -8.48549444  * -15.87667741  *
    81       C(HETATM   84  C5  MAN A   4)  -24.34439158  *  -7.94837774  * -15.08192669  *
    82       O(HETATM   85  O5  MAN A   4)  -24.76719455  *  -7.74032251  * -13.76514823  *
    83       C(HETATM   86  C6  MAN A   4)  -27.45189168  *  -8.56080959  * -16.90200258  *
    84       O(HETATM   87  O6  MAN A   4)  -27.89135807  *  -9.71511450  * -16.22502519  *
    85       H(HETATM   88 1H1  MAN A   4)  -23.86684495  *  -7.06852209  * -17.48361841  *
    86       H(HETATM   89 2H1  MAN A   4)  -23.13991025  *  -6.08719405  * -14.91664307  *
    87       H(HETATM   90 1H2  MAN A   4)  -25.58033040  *  -3.83080811  * -16.27519846  *
    88       H(HETATM   91 2H2  MAN A   4)  -25.60884677  *  -5.46292645  * -14.64489479  *
    89       H(HETATM   92 1H3  MAN A   4)  -27.82935085  *  -5.61242759  * -17.43010412  *
    90       H(HETATM   93 2H3  MAN A   4)  -25.82806575  *  -6.42884923  * -17.62126729  *
    91       H(HETATM   94 1H5  MAN A   4)  -25.20500241  *  -8.52871821  * -13.38290432  *
    92       H(HETATM   95 2H5  MAN A   4)  -23.54584140  *  -8.71898933  * -15.14159768  *
    93       H(HETATM   96  H4  MAN A   4)  -27.02083429  *  -7.62047947  * -14.96672647  *
    94       H(HETATM   97  H6  MAN A   4)  -27.11727192  * -10.25284518  * -15.94775379  *
    95       H(HETATM   98 1H6  MAN A   4)  -28.39613562  *  -8.02945717  * -17.14599299  *
    96       H(HETATM   99 2H6  MAN A   4)  -26.92613333  *  -8.86039999  * -17.82668213  *
    97       C(HETATM  101  C1  GUL A   5)   -3.06911477  *   1.34780104  *  -9.26011181  *
    98       O(HETATM  102  O1  GUL A   5)   -3.93195032  *   2.13646047  *  -8.49677196  *
    99       C(HETATM  103  C2  GUL A   5)   -2.42863776  *   2.29612523  * -10.30609443  *
   100       O(HETATM  104  O2  GUL A   5)   -1.77136148  *   3.34244648  *  -9.65182104  *
   101       C(HETATM  105  C3  GUL A   5)   -3.49911435  *   2.82574325  * -11.27884468  *
   102       O(HETATM  106  O3  GUL A   5)   -4.38779741  *   3.69887285  * -10.63165763  *
   103       C(HETATM  107  C4  GUL A   5)   -4.29469418  *   1.64039287  * -11.87373559  *
   104       O(HETATM  108  O4  GUL A   5)   -3.46052352  *   0.91251852  * -12.74097158  *
   105       C(HETATM  109  C5  GUL A   5)   -4.83702053  *   0.73336803  * -10.75594642  *
   106       O(HETATM  110  O5  GUL A   5)   -3.77754680  *   0.31447604  *  -9.90320513  *
   107       C(HETATM  111  C6  GUL A   5)   -5.39338749  *  -0.57242646  * -11.33945233  *
   108       O(HETATM  112  O6  GUL A   5)   -6.38335584  *  -1.09324310  * -10.47911707  *
   109       H(HETATM  113 1H1  GUL A   5)   -4.32549277  *   1.64438706  *  -7.73228982  *
   110       H(HETATM  114 2H1  GUL A   5)   -2.34794541  *   0.80294417  *  -8.61687529  *
   111       H(HETATM  115 1H2  GUL A   5)   -2.43293046  *   3.92859162  *  -9.20631322  *
   112       H(HETATM  116 2H2  GUL A   5)   -1.60597291  *   1.77615453  * -10.84899802  *
   113       H(HETATM  117 1H3  GUL A   5)   -4.64519524  *   3.32591494  *  -9.75355353  *
   114       H(HETATM  118 2H3  GUL A   5)   -3.04917371  *   3.45654327  * -12.07900753  *
   115       H(HETATM  119 1H4  GUL A   5)   -2.81691953  *   0.37503415  * -12.23110657  *
   116       H(HETATM  120 2H4  GUL A   5)   -5.11191462  *   2.00510385  * -12.54338488  *
   117       H(HETATM  121  H5  GUL A   5)   -5.59795460  *   1.26492826  * -10.14264465  *
   118       H(HETATM  122  H6  GUL A   5)   -5.99228076  *  -1.54478296  *  -9.70473944  *
   119       H(HETATM  123 1H6  GUL A   5)   -5.94626210  *  -0.39080721  * -12.28608074  *
   120       H(HETATM  124 2H6  GUL A   5)   -4.60215763  *  -1.32129044  * -11.51364537  *
   121       C(HETATM  126  C1  IDO A   6)   -8.70748200  *   1.12855778  * -11.21488179  *
   122       O(HETATM  127  O1  IDO A   6)   -9.13610199  *   2.05368912  * -10.25629588  *
   123       C(HETATM  128  C2  IDO A   6)   -8.52586509  *   1.97020050  * -12.50182541  *
   124       O(HETATM  129  O2  IDO A   6)   -7.74179385  *   1.24625729  * -13.41007959  *
   125       C(HETATM  130  C3  IDO A   6)   -9.90606081  *   2.33850547  * -13.07230662  *
   126       O(HETATM  131  O3  IDO A   6)  -10.53585194  *   3.27292659  * -12.23408319  *
   127       C(HETATM  132  C4  IDO A   6)  -10.79994905  *   1.07311694  * -13.15060595  *
   128       O(HETATM  133  O4  IDO A   6)  -10.15253562  *   0.13908318  * -13.99710231  *
   129       C(HETATM  134  C5  IDO A   6)  -10.95394478  *   0.48246808  * -11.73997642  *
   130       O(HETATM  135  O5  IDO A   6)   -9.65153048  *   0.08894753  * -11.32234552  *
   131       C(HETATM  136  C6  IDO A   6)  -11.77068728  *  -0.81709360  * -11.70700761  *
   132       O(HETATM  137  O6  IDO A   6)  -12.86059030  *  -0.66750050  * -10.81934354  *
   133       H(HETATM  138 1H1  IDO A   6)   -9.34222038  *   1.61398082  *  -9.38563928  *
   134       H(HETATM  139 2H1  IDO A   6)   -7.79177851  *   0.58237368  * -10.89516141  *
   135       H(HETATM  140 1H2  IDO A   6)   -8.31315826  *   0.71760387  * -14.01607593  *
   136       H(HETATM  141 2H2  IDO A   6)   -7.91751152  *   2.88298320  * -12.28287202  *
   137       H(HETATM  142 1H3  IDO A   6)  -10.27557327  *   3.10984892  * -11.29106478  *
   138       H(HETATM  143 2H3  IDO A   6)   -9.83301623  *   2.84547263  * -14.05920130  *
   139       H(HETATM  144 1H4  IDO A   6)   -9.65780676  *  -0.52370548  * -13.45451974  *
   140       H(HETATM  145 2H4  IDO A   6)  -11.76682435  *   1.28758718  * -13.64972221  *
   141       H(HETATM  146  H5  IDO A   6)  -11.36808602  *   1.22919362  * -11.02230967  *
   142       H(HETATM  147  H6  IDO A   6)  -13.60057813  *  -0.16834091  * -11.22510560  *
   143       H(HETATM  148 1H6  IDO A   6)  -12.14146905  *  -1.12147405  * -12.70123726  *
   144       H(HETATM  149 2H6  IDO A   6)  -11.19112407  *  -1.65186071  * -11.25671789  *
   145       C(HETATM  151  C1  GAL A   7)  -17.84018349  *  -2.79047220  * -18.11415006  *
   146       O(HETATM  152  O1  GAL A   7)  -16.76498419  *  -1.92977938  * -18.38911707  *
   147       C(HETATM  153  C2  GAL A   7)  -19.11044715  *  -2.26487169  * -18.79955052  *
   148       O(HETATM  154  O2  GAL A   7)  -18.98109507  *  -2.35536226  * -20.20594007  *
   149       C(HETATM  155  C3  GAL A   7)  -20.30633505  *  -3.17007963  * -18.44896008  *
   150       O(HETATM  156  O3  GAL A   7)  -20.10754315  *  -4.47132262  * -18.96197364  *
   151       C(HETATM  157  C4  GAL A   7)  -20.43395044  *  -3.32216876  * -16.92209941  *
   152       O(HETATM  158  O4  GAL A   7)  -19.20048441  *  -3.69215003  * -16.31720870  *
   153       C(HETATM  159  C5  GAL A   7)  -18.09779306  *  -2.87796063  * -16.59209367  *
   154       O(HETATM  160  O5  GAL A   7)  -18.32241562  *  -1.55926447  * -16.19942706  *
   155       C(HETATM  161  C6  GAL A   7)  -21.36622537  *  -4.48517774  * -16.56177806  *
   156       O(HETATM  162  O6  GAL A   7)  -22.23429056  *  -4.03254588  * -15.53493893  *
   157       H(HETATM  163 1H1  GAL A   7)  -16.83474259  *  -1.11682046  * -17.83245391  *
   158       H(HETATM  164 2H1  GAL A   7)  -17.51958507  *  -3.77151067  * -18.53060002  *
   159       H(HETATM  165 1H2  GAL A   7)  -18.07654955  *  -2.07367096  * -20.47144459  *
   160       H(HETATM  166 2H2  GAL A   7)  -19.30576975  *  -1.19990307  * -18.54280919  *
   161       H(HETATM  167 1H3  GAL A   7)  -19.77759980  *  -4.40461246  * -19.88897021  *
   162       H(HETATM  168 2H3  GAL A   7)  -21.24956750  *  -2.77702116  * -18.89482564  *
   163       H(HETATM  169 1H5  GAL A   7)  -18.49157383  *  -1.45571251  * -15.22340950  *
   164       H(HETATM  170 2H5  GAL A   7)  -17.28100483  *  -3.34365846  * -16.00267330  *
   165       H(HETATM  171  H4  GAL A   7)  -20.77070294  *  -2.36602263  * -16.45724560  *
   166       H(HETATM  172  H6  GAL A   7)  -23.16915289  *  -4.03376664  * -15.81906456  *
   167       H(HETATM  173 1H6  GAL A   7)  -21.95085679  *  -4.84830954  * -17.42774257  *
   168       H(HETATM  174 2H6  GAL A   7)  -20.80541679  *  -5.33530237  * -16.12438679  *
   169       C(HETATM  176  C1  TAL A   8)  -24.21498606  *  -4.98932891  * -19.78651373  *
   170       O(HETATM  177  O1  TAL A   8)  -24.04374314  *  -4.04584304  * -18.77796134  *
   171       C(HETATM  178  C2  TAL A   8)  -23.93647560  *  -4.22105685  * -21.10510119  *
   172       O(HETATM  179  O2  TAL A   8)  -24.10316771  *  -5.11924783  * -22.15986529  *
   173       C(HETATM  180  C3  TAL A   8)  -24.92389765  *  -3.03866779  * -21.13527001  *
   174       O(HETATM  181  O3  TAL A   8)  -24.77431826  *  -2.41227604  * -22.39267797  *
   175       C(HETATM  182  C4  TAL A   8)  -26.37549710  *  -3.55914881  * -21.06259781  *
   176       O(HETATM  183  O4  TAL A   8)  -26.67770909  *  -4.28847409  * -22.23996994  *
   177       C(HETATM  184  C5  TAL A   8)  -26.57027266  *  -4.54101948  * -19.88908108  *
   178       O(HETATM  185  O5  TAL A   8)  -25.52967215  *  -5.49736281  * -19.77865561  *
   179       C(HETATM  186  C6  TAL A   8)  -27.83587106  *  -5.37899315  * -20.13763486  *
   180       O(HETATM  187  O6  TAL A   8)  -28.05471673  *  -6.25515083  * -19.04798621  *
   181       H(HETATM  188 1H1  TAL A   8)  -24.21763796  *  -4.39614578  * -17.87218539  *
   182       H(HETATM  189 2H1  TAL A   8)  -23.59632593  *  -5.89621102  * -19.63119133  *
   183       H(HETATM  190 1H2  TAL A   8)  -25.06542840  *  -5.31661918  * -22.28845477  *
   184       H(HETATM  191 2H2  TAL A   8)  -22.87868262  *  -3.88926088  * -21.19281572  *
   185       H(HETATM  192 1H3  TAL A   8)  -24.85643918  *  -1.44113654  * -22.31436228  *
   186       H(HETATM  193 2H3  TAL A   8)  -24.70103098  *  -2.32823916  * -20.30786561  *
   187       H(HETATM  194 1H4  TAL A   8)  -26.33374997  *  -3.79218110  * -23.02741845  *
   188       H(HETATM  195 2H4  TAL A   8)  -27.10492282  *  -2.72088376  * -21.00190255  *
   189       H(HETATM  196  H5  TAL A   8)  -26.61539606  *  -3.99293996  * -18.92079007  *
   190       H(HETATM  197  H6  TAL A   8)  -27.42470360  *  -7.00835837  * -19.09656890  *
   191       H(HETATM  198 1H6  TAL A   8)  -28.74498524  *  -4.75010608  * -20.15950056  *
   192       H(HETATM  199 2H6  TAL A   8)  -27.76474925  *  -5.96985443  * -21.07134840  *

                             CARTESIAN COORDINATES

   1    C       -6.276337180    -1.419884940    -6.409708510
   2    O       -6.686949370    -1.093934700    -5.128417500
   3    C       -5.934205000    -0.153711060    -7.237295400
   4    O       -4.972994610     0.607727550    -6.552010780
   5    C       -7.203034300     0.676059110    -7.497687020
   6    O       -7.602365110     1.170313950    -6.229073740
   7    C       -8.323462990    -0.207259410    -8.092676360
   8    O       -9.456591190     0.634728100    -8.002633090
   9    C       -8.512159560    -1.499234740    -7.278402470
  10    O       -7.254803620    -2.140123940    -7.121390620
  11    C       -9.336626600    -2.543845760    -8.045983170
  12    O       -9.892938890    -3.471272900    -7.141770080
  13    H       -7.302115060    -0.317430060    -5.137873860
  14    H       -5.447526020    -2.148460270    -6.283269120
  15    H       -5.354238660     0.980273630    -5.716065830
  16    H       -5.415714050    -0.420901400    -8.190538640
  17    H       -8.526086990     1.519994360    -6.289346870
  18    H       -6.998972580     1.562707920    -8.141902270
  19    H      -10.318008760     0.155990080    -8.139741660
  20    H       -8.139045540    -0.436651310    -9.169731700
  21    H       -8.952146230    -1.296602540    -6.276211760
  22    H       -9.183111250    -3.879370410    -6.599338100
  23    H      -10.221090780    -2.100379350    -8.544864340
  24    H       -8.721015080    -3.085886470    -8.789182540
  25    C      -12.898334880    -2.193293820    -7.004344960
  26    O      -13.444492140    -2.304217900    -5.706392750
  27    C      -12.669554730    -0.674046250    -7.197544920
  28    O      -11.863531360    -0.501469940    -8.326577630
  29    C      -14.015030970     0.065083650    -7.313984140
  30    O      -14.645646570     0.091731450    -6.054948470
  31    C      -14.961610490    -0.635826290    -8.311626050
  32    O      -16.245529080    -0.070439430    -8.246922630
  33    C      -15.070838600    -2.139023100    -7.988205860
  34    O      -13.774167230    -2.723377430    -7.948188230
  35    C      -15.778338650    -2.888390680    -9.120731030
  36    O      -15.913498620    -4.254977130    -8.795617820
  37    H      -13.775060430    -3.209534900    -5.534356980
  38    H      -11.987067010    -2.825771120    -7.107981260
  39    H      -12.331497490    -0.601932650    -9.190781790
  40    H      -12.056219900    -0.256613930    -6.362433350
  41    H      -14.485882360    -0.762965460    -5.580712880
  42    H      -13.885124200     1.141493680    -7.567959520
  43    H      -16.474569150     0.143935510    -7.309099880
  44    H      -14.653399840    -0.463405230    -9.366054200
  45    H      -15.575415380    -2.314017440    -7.014040220
  46    H      -15.030374490    -4.638594740    -8.609434450
  47    H      -16.825516860    -2.530492410    -9.224430730
  48    H      -15.246239130    -2.794535700   -10.085050840
  49    O      -19.124740700    -4.585961570   -11.723198710
  50    C      -18.289536250    -3.628034150   -11.148370340
  51    C      -17.941766420    -2.490901020   -12.149100590
  52    O      -17.118226120    -1.544652590   -11.533742270
  53    C      -19.268801610    -1.896390390   -12.640731430
  54    O      -18.961878080    -0.962187190   -13.664484320
  55    C      -20.126359610    -3.023178920   -13.250414310
  56    O      -21.335747170    -2.397429670   -13.605094390
  57    O      -18.934339990    -2.970981310   -10.086873080
  58    C      -20.386650870    -4.118759590   -12.196375160
  59    C      -21.030058940    -5.379358640   -12.787990000
  60    O      -22.076223560    -5.747588430   -11.902947050
  61    H      -17.422629690    -4.222683790   -10.783882090
  62    H      -17.560771040    -1.129799890   -10.754571770
  63    H      -17.312401810    -2.861064240   -12.988753340
  64    H      -19.811560520    -0.573919260   -13.990840550
  65    H      -19.807768160    -1.350104150   -11.833568440
  66    H      -21.776894140    -2.921990430   -14.320686520
  67    H      -19.642036370    -3.445685510   -14.161570410
  68    H      -19.302817830    -3.607278770    -9.439261520
  69    H      -20.987014170    -3.730559950   -11.342300730
  70    H      -22.862652180    -6.033920570   -12.405402850
  71    H      -21.418198870    -5.210102330   -13.806136160
  72    H      -20.313563200    -6.226409250   -12.793821760
  73    C      -23.923150280    -6.540652740   -15.572099220
  74    O      -23.276882730    -6.666005600   -16.807277420
  75    C      -25.186035530    -5.670666720   -15.657248940
  76    O      -24.798993800    -4.433657380   -16.230955670
  77    C      -26.214883600    -6.345569980   -16.579360530
  78    O      -27.344794830    -5.510760780   -16.565607600
  79    C      -26.563192640    -7.721489370   -15.976442630
  80    O      -25.364090920    -8.485494440   -15.876677410
  81    C      -24.344391580    -7.948377740   -15.081926690
  82    O      -24.767194550    -7.740322510   -13.765148230
  83    C      -27.451891680    -8.560809590   -16.902002580
  84    O      -27.891358070    -9.715114500   -16.225025190
  85    H      -23.866844950    -7.068522090   -17.483618410
  86    H      -23.139910250    -6.087194050   -14.916643070
  87    H      -25.580330400    -3.830808110   -16.275198460
  88    H      -25.608846770    -5.462926450   -14.644894790
  89    H      -27.829350850    -5.612427590   -17.430104120
  90    H      -25.828065750    -6.428849230   -17.621267290
  91    H      -25.205002410    -8.528718210   -13.382904320
  92    H      -23.545841400    -8.718989330   -15.141597680
  93    H      -27.020834290    -7.620479470   -14.966726470
  94    H      -27.117271920   -10.252845180   -15.947753790
  95    H      -28.396135620    -8.029457170   -17.145992990
  96    H      -26.926133330    -8.860399990   -17.826682130
  97    C       -3.069114770     1.347801040    -9.260111810
  98    O       -3.931950320     2.136460470    -8.496771960
  99    C       -2.428637760     2.296125230   -10.306094430
 100    O       -1.771361480     3.342446480    -9.651821040
 101    C       -3.499114350     2.825743250   -11.278844680
 102    O       -4.387797410     3.698872850   -10.631657630
 103    C       -4.294694180     1.640392870   -11.873735590
 104    O       -3.460523520     0.912518520   -12.740971580
 105    C       -4.837020530     0.733368030   -10.755946420
 106    O       -3.777546800     0.314476040    -9.903205130
 107    C       -5.393387490    -0.572426460   -11.339452330
 108    O       -6.383355840    -1.093243100   -10.479117070
 109    H       -4.325492770     1.644387060    -7.732289820
 110    H       -2.347945410     0.802944170    -8.616875290
 111    H       -2.432930460     3.928591620    -9.206313220
 112    H       -1.605972910     1.776154530   -10.848998020
 113    H       -4.645195240     3.325914940    -9.753553530
 114    H       -3.049173710     3.456543270   -12.079007530
 115    H       -2.816919530     0.375034150   -12.231106570
 116    H       -5.111914620     2.005103850   -12.543384880
 117    H       -5.597954600     1.264928260   -10.142644650
 118    H       -5.992280760    -1.544782960    -9.704739440
 119    H       -5.946262100    -0.390807210   -12.286080740
 120    H       -4.602157630    -1.321290440   -11.513645370
 121    C       -8.707482000     1.128557780   -11.214881790
 122    O       -9.136101990     2.053689120   -10.256295880
 123    C       -8.525865090     1.970200500   -12.501825410
 124    O       -7.741793850     1.246257290   -13.410079590
 125    C       -9.906060810     2.338505470   -13.072306620
 126    O      -10.535851940     3.272926590   -12.234083190
 127    C      -10.799949050     1.073116940   -13.150605950
 128    O      -10.152535620     0.139083180   -13.997102310
 129    C      -10.953944780     0.482468080   -11.739976420
 130    O       -9.651530480     0.088947530   -11.322345520
 131    C      -11.770687280    -0.817093600   -11.707007610
 132    O      -12.860590300    -0.667500500   -10.819343540
 133    H       -9.342220380     1.613980820    -9.385639280
 134    H       -7.791778510     0.582373680   -10.895161410
 135    H       -8.313158260     0.717603870   -14.016075930
 136    H       -7.917511520     2.882983200   -12.282872020
 137    H      -10.275573270     3.109848920   -11.291064780
 138    H       -9.833016230     2.845472630   -14.059201300
 139    H       -9.657806760    -0.523705480   -13.454519740
 140    H      -11.766824350     1.287587180   -13.649722210
 141    H      -11.368086020     1.229193620   -11.022309670
 142    H      -13.600578130    -0.168340910   -11.225105600
 143    H      -12.141469050    -1.121474050   -12.701237260
 144    H      -11.191124070    -1.651860710   -11.256717890
 145    C      -17.840183490    -2.790472200   -18.114150060
 146    O      -16.764984190    -1.929779380   -18.389117070
 147    C      -19.110447150    -2.264871690   -18.799550520
 148    O      -18.981095070    -2.355362260   -20.205940070
 149    C      -20.306335050    -3.170079630   -18.448960080
 150    O      -20.107543150    -4.471322620   -18.961973640
 151    C      -20.433950440    -3.322168760   -16.922099410
 152    O      -19.200484410    -3.692150030   -16.317208700
 153    C      -18.097793060    -2.877960630   -16.592093670
 154    O      -18.322415620    -1.559264470   -16.199427060
 155    C      -21.366225370    -4.485177740   -16.561778060
 156    O      -22.234290560    -4.032545880   -15.534938930
 157    H      -16.834742590    -1.116820460   -17.832453910
 158    H      -17.519585070    -3.771510670   -18.530600020
 159    H      -18.076549550    -2.073670960   -20.471444590
 160    H      -19.305769750    -1.199903070   -18.542809190
 161    H      -19.777599800    -4.404612460   -19.888970210
 162    H      -21.249567500    -2.777021160   -18.894825640
 163    H      -18.491573830    -1.455712510   -15.223409500
 164    H      -17.281004830    -3.343658460   -16.002673300
 165    H      -20.770702940    -2.366022630   -16.457245600
 166    H      -23.169152890    -4.033766640   -15.819064560
 167    H      -21.950856790    -4.848309540   -17.427742570
 168    H      -20.805416790    -5.335302370   -16.124386790
 169    C      -24.214986060    -4.989328910   -19.786513730
 170    O      -24.043743140    -4.045843040   -18.777961340
 171    C      -23.936475600    -4.221056850   -21.105101190
 172    O      -24.103167710    -5.119247830   -22.159865290
 173    C      -24.923897650    -3.038667790   -21.135270010
 174    O      -24.774318260    -2.412276040   -22.392677970
 175    C      -26.375497100    -3.559148810   -21.062597810
 176    O      -26.677709090    -4.288474090   -22.239969940
 177    C      -26.570272660    -4.541019480   -19.889081080
 178    O      -25.529672150    -5.497362810   -19.778655610
 179    C      -27.835871060    -5.378993150   -20.137634860
 180    O      -28.054716730    -6.255150830   -19.047986210
 181    H      -24.217637960    -4.396145780   -17.872185390
 182    H      -23.596325930    -5.896211020   -19.631191330
 183    H      -25.065428400    -5.316619180   -22.288454770
 184    H      -22.878682620    -3.889260880   -21.192815720
 185    H      -24.856439180    -1.441136540   -22.314362280
 186    H      -24.701030980    -2.328239160   -20.307865610
 187    H      -26.333749970    -3.792181100   -23.027418450
 188    H      -27.104922820    -2.720883760   -21.001902550
 189    H      -26.615396060    -3.992939960   -18.920790070
 190    H      -27.424703600    -7.008358370   -19.096568900
 191    H      -28.744985240    -4.750106080   -20.159500560
 192    H      -27.764749250    -5.969854430   -21.071348400


           Empirical Formula: C48 H96 O48  =   192 atoms



      MOLECULAR POINT GROUP   :   C1  


                  EIGENVALUES  
 -32.55523 -32.45168 -32.29605 -32.15290 -32.11234 -32.01420 -31.69175 -31.48485
 -30.99909 -30.83999 -30.83312 -30.69284 -30.48803 -30.46468 -30.43619 -30.35352
 -30.26270 -30.21389 -30.15671 -30.11479 -30.07686 -30.06015 -29.96510 -29.90649
 -29.83790 -29.80063 -29.78448 -29.71114 -29.69141 -29.65994 -29.59526 -29.49888
 -29.41558 -29.36153 -29.32726 -29.26270 -29.24182 -29.16627 -29.06328 -29.05911
 -29.03073 -28.94157 -28.85399 -28.80903 -28.78837 -28.77075 -28.71847 -28.48648
 -27.47876 -27.42264 -27.16940 -26.92110 -26.88991 -26.84054 -26.82993 -26.74064
 -26.69778 -26.58160 -26.55970 -26.31311 -26.30587 -26.26133 -26.23654 -26.23446
 -24.62388 -24.61008 -24.35031 -24.32177 -24.23264 -24.13712 -23.85679 -23.62643
 -23.07387 -22.92182 -22.86406 -22.78300 -22.65210 -22.59663 -22.34850 -22.18712
 -22.12713 -21.93365 -21.89406 -21.83732 -21.74623 -21.68361 -21.28914 -20.87255
 -20.64909 -20.64138 -20.41366 -20.36890 -20.28440 -20.27380 -20.15659 -20.09718
 -19.65878 -19.49594 -19.23107 -19.20929 -19.17548 -19.03757 -19.03334 -18.88332
 -18.79559 -18.75462 -18.69751 -18.64565 -18.63028 -18.59025 -18.55384 -18.50668
 -18.30764 -18.30108 -18.23126 -18.18544 -18.14440 -18.00991 -17.95105 -17.93917
 -17.78475 -17.76892 -17.68442 -17.60896 -17.54070 -17.53437 -17.44645 -17.35503
 -17.31145 -17.18333 -17.16213 -17.09123 -17.05900 -17.05211 -16.85619 -16.83219
 -16.82436 -16.77787 -16.70606 -16.66725 -16.63871 -16.61710 -16.48273 -16.45422
 -16.38968 -16.34995 -16.33085 -16.20661 -16.15127 -16.08567 -16.07947 -16.02932
 -15.99194 -15.95399 -15.94890 -15.90343 -15.81430 -15.80494 -15.76528 -15.75305
 -15.70089 -15.65036 -15.59818 -15.55054 -15.46593 -15.41045 -15.28323 -15.24729
 -15.20086 -15.18431 -15.13081 -15.03493 -14.98053 -14.94105 -14.92470 -14.86737
 -14.81771 -14.78504 -14.77448 -14.68838 -14.58377 -14.56491 -14.53180 -14.52595
 -14.47766 -14.46250 -14.45599 -14.42255 -14.38254 -14.33959 -14.32417 -14.23687
 -14.20866 -14.17139 -14.15953 -14.13792 -14.06530 -14.05587 -13.99311 -13.89960
 -13.89514 -13.85707 -13.78766 -13.78158 -13.75068 -13.65686 -13.63881 -13.60243
 -13.56516 -13.51693 -13.43211 -13.42641 -13.27760 -13.16068 -13.13544 -13.12244
 -13.03011 -13.02177 -12.96238 -12.90558 -12.89722 -12.86376 -12.84627 -12.73228
 -12.73168 -12.67419 -12.61449 -12.58355 -12.55649 -12.54354 -12.50602 -12.48329
 -12.44025 -12.43143 -12.36541 -12.35095 -12.29498 -12.24936 -12.24557 -12.21564
 -12.15935 -12.14551 -12.12444 -12.02943 -12.00589 -11.95020 -11.92505 -11.92416
 -11.84430 -11.83324 -11.81433 -11.77801 -11.73032 -11.72802 -11.66934 -11.65665
 -11.58793 -11.56351 -11.53376 -11.50728 -11.49545 -11.47027 -11.46858 -11.46046
 -11.44832 -11.39483 -11.35040 -11.19126 -11.12492 -11.09175 -10.97293 -10.96801
 -10.91557 -10.90192 -10.85485 -10.76246 -10.73105 -10.70746 -10.68788 -10.57406
 -10.51642 -10.49633 -10.44496 -10.38966 -10.33998 -10.31048 -10.22818 -10.08532
   0.74854   0.79242   0.96845   1.00216   1.11969   1.15845   1.31476   1.41673
   1.44305   1.44718   1.47712   1.50725   1.56882   1.62244   1.65577   1.78290
   1.79639   1.92361   2.04221   2.05394   2.08351   2.11249   2.12734   2.13602
   2.18789   2.22291   2.23721   2.25544   2.31525   2.32549   2.36523   2.36625
   2.42540   2.46026   2.48880   2.53375   2.55130   2.55986   2.58054   2.58462
   2.69013   2.71014   2.72402   2.72823   2.73884   2.78515   2.79226   2.81259
   2.82852   2.84639   2.86053   2.86866   2.89283   2.92399   2.93422   3.03842
   3.04316   3.05378   3.07192   3.09142   3.09719   3.12640   3.13764   3.16077
   3.18241   3.18638   3.19513   3.20903   3.22476   3.26126   3.31307   3.33261
   3.33592   3.37549   3.43955   3.44373   3.47325   3.50108   3.58915   3.59023
   3.62592   3.64320   3.66671   3.73872   3.75314   3.77161   3.82564   3.88996
   3.90749   3.94589   3.95110   4.09441   4.14619   4.22887   4.28113   4.32687
   4.43399   4.44923   4.49115   4.50594   4.55195   4.56299   4.57824   4.63090
   4.63397   4.66113   4.70592   4.72473   4.75323   4.75598   4.78317   4.82967
   4.84319   4.86066   4.88698   4.89328   4.91060   4.91756   4.93799   4.96377
   4.96591   5.00161   5.01775   5.03078   5.04440   5.05128   5.05976   5.08428
   5.09483   5.10801   5.12039   5.12288   5.12956   5.14311   5.15260   5.19322
   5.21467   5.22602   5.23848   5.25138   5.28926   5.30832   5.31651   5.33455
   5.33942   5.34339   5.35357   5.36442   5.39069   5.39518   5.40911   5.41733
   5.47616   5.47749   5.48185   5.50528   5.51418   5.51907   5.52238   5.62201
   5.67363   5.68131   5.71555   5.74385   5.75439   5.76538   5.77404   5.77533
   5.79220   5.81384   5.82979   5.84398   5.87166   5.88006   5.90307   5.92445
   5.95027   5.98351   5.99454   6.06559   6.06960   6.07354   6.09557   6.12303
   6.20142   6.21370   6.24180   6.25578   6.30006   6.33162   6.34639   6.66114


              NET ATOMIC CHARGES AND DIPOLE CONTRIBUTIONS

  ATOM NO.                 TYPE                        CHARGE      No. of ELECS.   s-Pop       p-Pop       
    1          C(HETATM    1  C1  ALO A   1)           0.324217        3.6758     1.11767     2.55811
    2          O(HETATM    2  O1  ALO A   1)          -0.556091        6.5561     1.84544     4.71066
    3          C(HETATM    3  C2  ALO A   1)           0.012279        3.9877     1.11231     2.87541
    4          O(HETATM    4  O2  ALO A   1)          -0.550135        6.5501     1.84425     4.70589
    5          C(HETATM    5  C3  ALO A   1)           0.074506        3.9255     1.10539     2.82010
    6          O(HETATM    6  O3  ALO A   1)          -0.587798        6.5878     1.84934     4.73845
    7          C(HETATM    7  C4  ALO A   1)           0.044525        3.9555     1.10876     2.84671
    8          O(HETATM    8  O4  ALO A   1)          -0.621922        6.6219     1.84206     4.77987
    9          C(HETATM    9  C5  ALO A   1)           0.025896        3.9741     1.10826     2.86584
   10          O(HETATM   10  O5  ALO A   1)          -0.468622        6.4686     1.87443     4.59420
   11          C(HETATM   11  C6  ALO A   1)          -0.022400        4.0224     1.09219     2.93021
   12          O(HETATM   12  O6  ALO A   1)          -0.555977        6.5560     1.84885     4.70712
   13          H(HETATM   13 1H1  ALO A   1)           0.349783        0.6502     0.65022
   14          H(HETATM   14 2H1  ALO A   1)           0.166429        0.8336     0.83357
   15          H(HETATM   15 1H2  ALO A   1)           0.360486        0.6395     0.63951
   16          H(HETATM   16 2H2  ALO A   1)           0.171727        0.8283     0.82827
   17          H(HETATM   17 1H3  ALO A   1)           0.363794        0.6362     0.63621
   18          H(HETATM   18 2H3  ALO A   1)           0.155227        0.8448     0.84477
   19          H(HETATM   19 1H4  ALO A   1)           0.387614        0.6124     0.61239
   20          H(HETATM   20 2H4  ALO A   1)           0.164477        0.8355     0.83552
   21          H(HETATM   21  H5  ALO A   1)           0.160992        0.8390     0.83901
   22          H(HETATM   22  H6  ALO A   1)           0.333447        0.6666     0.66655
   23          H(HETATM   23 1H6  ALO A   1)           0.162112        0.8379     0.83789
   24          H(HETATM   24 2H6  ALO A   1)           0.140896        0.8591     0.85910
   25          C(HETATM   26  C1  ALT A   2)           0.311408        3.6886     1.13012     2.55847
   26          O(HETATM   27  O1  ALT A   2)          -0.623214        6.6232     1.84129     4.78192
   27          C(HETATM   28  C2  ALT A   2)           0.070341        3.9297     1.10730     2.82236
   28          O(HETATM   29  O2  ALT A   2)          -0.639050        6.6391     1.82493     4.81412
   29          C(HETATM   30  C3  ALT A   2)           0.048381        3.9516     1.10469     2.84693
   30          O(HETATM   31  O3  ALT A   2)          -0.555193        6.5552     1.85343     4.70177
   31          C(HETATM   32  C4  ALT A   2)           0.051123        3.9489     1.10150     2.84738
   32          O(HETATM   33  O4  ALT A   2)          -0.539712        6.5397     1.85227     4.68745
   33          C(HETATM   34  C5  ALT A   2)           0.021703        3.9783     1.10940     2.86890
   34          O(HETATM   35  O5  ALT A   2)          -0.458163        6.4582     1.87014     4.58802
   35          C(HETATM   36  C6  ALT A   2)          -0.026277        4.0263     1.09335     2.93292
   36          O(HETATM   37  O6  ALT A   2)          -0.551438        6.5514     1.85030     4.70114
   37          H(HETATM   38 1H1  ALT A   2)           0.352603        0.6474     0.64740
   38          H(HETATM   39 2H1  ALT A   2)           0.180309        0.8197     0.81969
   39          H(HETATM   40 1H2  ALT A   2)           0.388772        0.6112     0.61123
   40          H(HETATM   41 2H2  ALT A   2)           0.171410        0.8286     0.82859
   41          H(HETATM   42 1H3  ALT A   2)           0.349496        0.6505     0.65050
   42          H(HETATM   43 2H3  ALT A   2)           0.166956        0.8330     0.83304
   43          H(HETATM   44 1H4  ALT A   2)           0.340662        0.6593     0.65934
   44          H(HETATM   45 2H4  ALT A   2)           0.154332        0.8457     0.84567
   45          H(HETATM   46  H5  ALT A   2)           0.146714        0.8533     0.85329
   46          H(HETATM   47  H6  ALT A   2)           0.325018        0.6750     0.67498
   47          H(HETATM   48 1H6  ALT A   2)           0.176149        0.8239     0.82385
   48          H(HETATM   49 2H6  ALT A   2)           0.139467        0.8605     0.86053
   49          O(HETATM   51  O1  GLC A   3)          -0.458146        6.4581     1.87279     4.58536
   50          C(HETATM   52  C1  GLC A   3)           0.303496        3.6965     1.12640     2.57011
   51          C(HETATM   53  C2  GLC A   3)           0.070794        3.9292     1.10159     2.82761
   52          O(HETATM   54  O2  GLC A   3)          -0.535647        6.5356     1.84818     4.68747
   53          C(HETATM   55  C3  GLC A   3)           0.075031        3.9250     1.10530     2.81967
   54          O(HETATM   56  O3  GLC A   3)          -0.565622        6.5656     1.85079     4.71483
   55          C(HETATM   57  C4  GLC A   3)           0.032897        3.9671     1.10492     2.86218
   56          O(HETATM   58  O4  GLC A   3)          -0.588741        6.5887     1.85170     4.73705
   57          O(HETATM   59  O5  GLC A   3)          -0.609851        6.6099     1.84252     4.76733
   58          C(HETATM   60  C5  GLC A   3)           0.058068        3.9419     1.10807     2.83386
   59          C(HETATM   61  C6  GLC A   3)          -0.031909        4.0319     1.09136     2.94055
   60          O(HETATM   62  O6  GLC A   3)          -0.548164        6.5482     1.85017     4.69800
   61          H(HETATM   63  H1  GLC A   3)           0.162560        0.8374     0.83744
   62          H(HETATM   64 1H2  GLC A   3)           0.340439        0.6596     0.65956
   63          H(HETATM   65 2H2  GLC A   3)           0.159976        0.8400     0.84002
   64          H(HETATM   66 1H3  GLC A   3)           0.341373        0.6586     0.65863
   65          H(HETATM   67 2H3  GLC A   3)           0.159605        0.8404     0.84039
   66          H(HETATM   68 1H4  GLC A   3)           0.362545        0.6375     0.63745
   67          H(HETATM   69 2H4  GLC A   3)           0.156989        0.8430     0.84301
   68          H(HETATM   70 1H5  GLC A   3)           0.351208        0.6488     0.64879
   69          H(HETATM   71 2H5  GLC A   3)           0.168595        0.8314     0.83140
   70          H(HETATM   72  H6  GLC A   3)           0.316322        0.6837     0.68368
   71          H(HETATM   73 1H6  GLC A   3)           0.137950        0.8620     0.86205
   72          H(HETATM   74 2H6  GLC A   3)           0.147980        0.8520     0.85202
   73          C(HETATM   76  C1  MAN A   4)           0.051097        3.9489     1.10523     2.84367
   74          O(HETATM   77  O1  MAN A   4)          -0.522200        6.5222     1.84938     4.67282
   75          C(HETATM   78  C2  MAN A   4)           0.084917        3.9151     1.10621     2.80887
   76          O(HETATM   79  O2  MAN A   4)          -0.601590        6.6016     1.83772     4.76387
   77          C(HETATM   80  C3  MAN A   4)           0.032117        3.9679     1.10010     2.86779
   78          O(HETATM   81  O3  MAN A   4)          -0.573998        6.5740     1.85402     4.71998
   79          C(HETATM   82  C4  MAN A   4)           0.028276        3.9717     1.11284     2.85888
   80          O(HETATM   83  O4  MAN A   4)          -0.478664        6.4787     1.87168     4.60698
   81          C(HETATM   84  C5  MAN A   4)           0.317311        3.6827     1.12321     2.55948
   82          O(HETATM   85  O5  MAN A   4)          -0.598256        6.5983     1.84047     4.75779
   83          C(HETATM   86  C6  MAN A   4)          -0.032245        4.0322     1.09022     2.94203
   84          O(HETATM   87  O6  MAN A   4)          -0.518501        6.5185     1.85276     4.66574
   85          H(HETATM   88 1H1  MAN A   4)           0.321332        0.6787     0.67867
   86          H(HETATM   89 2H1  MAN A   4)           0.190530        0.8095     0.80947
   87          H(HETATM   90 1H2  MAN A   4)           0.364258        0.6357     0.63574
   88          H(HETATM   91 2H2  MAN A   4)           0.168226        0.8318     0.83177
   89          H(HETATM   92 1H3  MAN A   4)           0.361640        0.6384     0.63836
   90          H(HETATM   93 2H3  MAN A   4)           0.142444        0.8576     0.85756
   91          H(HETATM   94 1H5  MAN A   4)           0.351119        0.6489     0.64888
   92          H(HETATM   95 2H5  MAN A   4)           0.152848        0.8472     0.84715
   93          H(HETATM   96  H4  MAN A   4)           0.167048        0.8330     0.83295
   94          H(HETATM   97  H6  MAN A   4)           0.319004        0.6810     0.68100
   95          H(HETATM   98 1H6  MAN A   4)           0.166429        0.8336     0.83357
   96          H(HETATM   99 2H6  MAN A   4)           0.124163        0.8758     0.87584
   97          C(HETATM  101  C1  GUL A   5)           0.332295        3.6677     1.12292     2.54478
   98          O(HETATM  102  O1  GUL A   5)          -0.647943        6.6479     1.83692     4.81103
   99          C(HETATM  103  C2  GUL A   5)           0.017736        3.9823     1.10571     2.87656
  100          O(HETATM  104  O2  GUL A   5)          -0.511928        6.5119     1.85303     4.65890
  101          C(HETATM  105  C3  GUL A   5)           0.058198        3.9418     1.10396     2.83785
  102          O(HETATM  106  O3  GUL A   5)          -0.543982        6.5440     1.85265     4.69133
  103          C(HETATM  107  C4  GUL A   5)           0.047413        3.9526     1.10759     2.84500
  104          O(HETATM  108  O4  GUL A   5)          -0.536895        6.5369     1.85016     4.68674
  105          C(HETATM  109  C5  GUL A   5)           0.026805        3.9732     1.10872     2.86448
  106          O(HETATM  110  O5  GUL A   5)          -0.490535        6.4905     1.87416     4.61638
  107          C(HETATM  111  C6  GUL A   5)          -0.007629        4.0076     1.09170     2.91593
  108          O(HETATM  112  O6  GUL A   5)          -0.578522        6.5785     1.84526     4.73326
  109          H(HETATM  113 1H1  GUL A   5)           0.381827        0.6182     0.61817
  110          H(HETATM  114 2H1  GUL A   5)           0.142201        0.8578     0.85780
  111          H(HETATM  115 1H2  GUL A   5)           0.337237        0.6628     0.66276
  112          H(HETATM  116 2H2  GUL A   5)           0.157851        0.8421     0.84215
  113          H(HETATM  117 1H3  GUL A   5)           0.340846        0.6592     0.65915
  114          H(HETATM  118 2H3  GUL A   5)           0.168753        0.8312     0.83125
  115          H(HETATM  119 1H4  GUL A   5)           0.317906        0.6821     0.68209
  116          H(HETATM  120 2H4  GUL A   5)           0.180695        0.8193     0.81930
  117          H(HETATM  121  H5  GUL A   5)           0.149566        0.8504     0.85043
  118          H(HETATM  122  H6  GUL A   5)           0.326589        0.6734     0.67341
  119          H(HETATM  123 1H6  GUL A   5)           0.169538        0.8305     0.83046
  120          H(HETATM  124 2H6  GUL A   5)           0.135918        0.8641     0.86408
  121          C(HETATM  126  C1  IDO A   6)           0.316676        3.6833     1.12719     2.55613
  122          O(HETATM  127  O1  IDO A   6)          -0.650220        6.6502     1.84293     4.80729
  123          C(HETATM  128  C2  IDO A   6)           0.037236        3.9628     1.10629     2.85648
  124          O(HETATM  129  O2  IDO A   6)          -0.553705        6.5537     1.84927     4.70444
  125          C(HETATM  130  C3  IDO A   6)           0.060864        3.9391     1.10262     2.83651
  126          O(HETATM  131  O3  IDO A   6)          -0.551027        6.5510     1.85287     4.69816
  127          C(HETATM  132  C4  IDO A   6)           0.043039        3.9570     1.10937     2.84759
  128          O(HETATM  133  O4  IDO A   6)          -0.561080        6.5611     1.85391     4.70717
  129          C(HETATM  134  C5  IDO A   6)           0.007690        3.9923     1.10939     2.88292
  130          O(HETATM  135  O5  IDO A   6)          -0.470174        6.4702     1.87598     4.59419
  131          C(HETATM  136  C6  IDO A   6)          -0.008119        4.0081     1.09369     2.91443
  132          O(HETATM  137  O6  IDO A   6)          -0.591483        6.5915     1.83600     4.75548
  133          H(HETATM  138 1H1  IDO A   6)           0.382831        0.6172     0.61717
  134          H(HETATM  139 2H1  IDO A   6)           0.163115        0.8369     0.83688
  135          H(HETATM  140 1H2  IDO A   6)           0.343063        0.6569     0.65694
  136          H(HETATM  141 2H2  IDO A   6)           0.180565        0.8194     0.81943
  137          H(HETATM  142 1H3  IDO A   6)           0.350868        0.6491     0.64913
  138          H(HETATM  143 2H3  IDO A   6)           0.165913        0.8341     0.83409
  139          H(HETATM  144 1H4  IDO A   6)           0.336204        0.6638     0.66380
  140          H(HETATM  145 2H4  IDO A   6)           0.161397        0.8386     0.83860
  141          H(HETATM  146  H5  IDO A   6)           0.168643        0.8314     0.83136
  142          H(HETATM  147  H6  IDO A   6)           0.346820        0.6532     0.65318
  143          H(HETATM  148 1H6  IDO A   6)           0.141876        0.8581     0.85812
  144          H(HETATM  149 2H6  IDO A   6)           0.167921        0.8321     0.83208
  145          C(HETATM  151  C1  GAL A   7)           0.034980        3.9650     1.10631     2.85871
  146          O(HETATM  152  O1  GAL A   7)          -0.549785        6.5498     1.85152     4.69826
  147          C(HETATM  153  C2  GAL A   7)           0.051633        3.9484     1.10381     2.84455
  148          O(HETATM  154  O2  GAL A   7)          -0.572587        6.5726     1.85042     4.72217
  149          C(HETATM  155  C3  GAL A   7)           0.073335        3.9267     1.10042     2.82625
  150          O(HETATM  156  O3  GAL A   7)          -0.550209        6.5502     1.85353     4.69668
  151          C(HETATM  157  C4  GAL A   7)           0.059975        3.9400     1.10458     2.83545
  152          O(HETATM  158  O4  GAL A   7)          -0.455004        6.4550     1.87219     4.58282
  153          C(HETATM  159  C5  GAL A   7)           0.328610        3.6714     1.11488     2.55651
  154          O(HETATM  160  O5  GAL A   7)          -0.656137        6.6561     1.84023     4.81590
  155          C(HETATM  161  C6  GAL A   7)           0.021724        3.9783     1.09205     2.88623
  156          O(HETATM  162  O6  GAL A   7)          -0.653558        6.6536     1.83287     4.82069
  157          H(HETATM  163 1H1  GAL A   7)           0.340595        0.6594     0.65941
  158          H(HETATM  164 2H1  GAL A   7)           0.169712        0.8303     0.83029
  159          H(HETATM  165 1H2  GAL A   7)           0.342021        0.6580     0.65798
  160          H(HETATM  166 2H2  GAL A   7)           0.148780        0.8512     0.85122
  161          H(HETATM  167 1H3  GAL A   7)           0.338673        0.6613     0.66133
  162          H(HETATM  168 2H3  GAL A   7)           0.145819        0.8542     0.85418
  163          H(HETATM  169 1H5  GAL A   7)           0.383163        0.6168     0.61684
  164          H(HETATM  170 2H5  GAL A   7)           0.137267        0.8627     0.86273
  165          H(HETATM  171  H4  GAL A   7)           0.154212        0.8458     0.84579
  166          H(HETATM  172  H6  GAL A   7)           0.367424        0.6326     0.63258
  167          H(HETATM  173 1H6  GAL A   7)           0.160099        0.8399     0.83990
  168          H(HETATM  174 2H6  GAL A   7)           0.154870        0.8451     0.84513
  169          C(HETATM  176  C1  TAL A   8)           0.325622        3.6744     1.12528     2.54909
  170          O(HETATM  177  O1  TAL A   8)          -0.637147        6.6371     1.83785     4.79930
  171          C(HETATM  178  C2  TAL A   8)           0.089295        3.9107     1.09902     2.81169
  172          O(HETATM  179  O2  TAL A   8)          -0.527215        6.5272     1.85123     4.67598
  173          C(HETATM  180  C3  TAL A   8)           0.038796        3.9612     1.10392     2.85729
  174          O(HETATM  181  O3  TAL A   8)          -0.538325        6.5383     1.84863     4.68969
  175          C(HETATM  182  C4  TAL A   8)           0.045135        3.9549     1.10473     2.85013
  176          O(HETATM  183  O4  TAL A   8)          -0.564565        6.5646     1.85505     4.70951
  177          C(HETATM  184  C5  TAL A   8)           0.054337        3.9457     1.10371     2.84196
  178          O(HETATM  185  O5  TAL A   8)          -0.486357        6.4864     1.87104     4.61532
  179          C(HETATM  186  C6  TAL A   8)          -0.001133        4.0011     1.09349     2.90764
  180          O(HETATM  187  O6  TAL A   8)          -0.574349        6.5743     1.84587     4.72848
  181          H(HETATM  188 1H1  TAL A   8)           0.371160        0.6288     0.62884
  182          H(HETATM  189 2H1  TAL A   8)           0.144056        0.8559     0.85594
  183          H(HETATM  190 1H2  TAL A   8)           0.343139        0.6569     0.65686
  184          H(HETATM  191 2H2  TAL A   8)           0.175426        0.8246     0.82457
  185          H(HETATM  192 1H3  TAL A   8)           0.318547        0.6815     0.68145
  186          H(HETATM  193 2H3  TAL A   8)           0.151721        0.8483     0.84828
  187          H(HETATM  194 1H4  TAL A   8)           0.352591        0.6474     0.64741
  188          H(HETATM  195 2H4  TAL A   8)           0.132774        0.8672     0.86723
  189          H(HETATM  196  H5  TAL A   8)           0.142884        0.8571     0.85712
  190          H(HETATM  197  H6  TAL A   8)           0.331920        0.6681     0.66808
  191          H(HETATM  198 1H6  TAL A   8)           0.152356        0.8476     0.84764
  192          H(HETATM  199 2H6  TAL A   8)           0.158554        0.8414     0.84145

          NET CHARGE ON RESIDUES

      Residue         Charge  Anion or
                              Cation?
      ALO A   1        0.035
      ALT A   2        0.002
      GLC A   3        0.008
      MAN A   4        0.017
      GUL A   5       -0.026
      IDO A   6       -0.011
      GAL A   7       -0.024
      TAL A   8       -0.001
 


 DIPOLE           X         Y         Z       TOTAL
 POINT-CHG.    -4.513    -3.899    -3.490     6.910
 HYBRID        -3.275    -0.861     3.162     4.633
 SUM           -7.788    -4.760    -0.328     9.133


          ATOMIC ORBITAL ELECTRON POPULATIONS

                   Atom                  s        px        py        pz   
   C(HETATM    1  C1  ALO A   1)   1.11767   0.87635   0.92696   0.75480
   O(HETATM    2  O1  ALO A   1)   1.84544   1.71918   1.62225   1.36922
   C(HETATM    3  C2  ALO A   1)   1.11231   0.91011   0.94369   1.02161
   O(HETATM    4  O2  ALO A   1)   1.84425   1.46425   1.73142   1.51022
   C(HETATM    5  C3  ALO A   1)   1.10539   0.95120   1.02382   0.84508
   O(HETATM    6  O3  ALO A   1)   1.84934   1.49131   1.84787   1.39928
   C(HETATM    7  C4  ALO A   1)   1.10876   0.83489   0.91686   1.09497
   O(HETATM    8  O4  ALO A   1)   1.84206   1.33395   1.50334   1.94258
   C(HETATM    9  C5  ALO A   1)   1.10826   0.83936   0.94738   1.07910
   O(HETATM   10  O5  ALO A   1)   1.87443   1.31197   1.50849   1.77373
   C(HETATM   11  C6  ALO A   1)   1.09219   1.05964   0.92898   0.94158
   O(HETATM   12  O6  ALO A   1)   1.84885   1.45739   1.64310   1.60664
   H(HETATM   13 1H1  ALO A   1)   0.65022
   H(HETATM   14 2H1  ALO A   1)   0.83357
   H(HETATM   15 1H2  ALO A   1)   0.63951
   H(HETATM   16 2H2  ALO A   1)   0.82827
   H(HETATM   17 1H3  ALO A   1)   0.63621
   H(HETATM   18 2H3  ALO A   1)   0.84477
   H(HETATM   19 1H4  ALO A   1)   0.61239
   H(HETATM   20 2H4  ALO A   1)   0.83552
   H(HETATM   21  H5  ALO A   1)   0.83901
   H(HETATM   22  H6  ALO A   1)   0.66655
   H(HETATM   23 1H6  ALO A   1)   0.83789
   H(HETATM   24 2H6  ALO A   1)   0.85910
   C(HETATM   26  C1  ALT A   2)   1.13012   0.90206   0.97081   0.68560
   O(HETATM   27  O1  ALT A   2)   1.84129   1.83694   1.49263   1.45235
   C(HETATM   28  C2  ALT A   2)   1.10730   0.95460   0.99323   0.87453
   O(HETATM   29  O2  ALT A   2)   1.82493   1.53088   1.94874   1.33450
   C(HETATM   30  C3  ALT A   2)   1.10469   0.92681   1.08826   0.83185
   O(HETATM   31  O3  ALT A   2)   1.85343   1.78609   1.53419   1.38148
   C(HETATM   32  C4  ALT A   2)   1.10150   0.83194   0.94217   1.07326
   O(HETATM   33  O4  ALT A   2)   1.85227   1.39182   1.85011   1.44551
   C(HETATM   34  C5  ALT A   2)   1.10940   0.81851   0.96167   1.08872
   O(HETATM   35  O5  ALT A   2)   1.87014   1.32280   1.64389   1.62133
   C(HETATM   36  C6  ALT A   2)   1.09335   1.12348   0.78590   1.02354
   O(HETATM   37  O6  ALT A   2)   1.85030   1.44437   1.32295   1.93381
   H(HETATM   38 1H1  ALT A   2)   0.64740
   H(HETATM   39 2H1  ALT A   2)   0.81969
   H(HETATM   40 1H2  ALT A   2)   0.61123
   H(HETATM   41 2H2  ALT A   2)   0.82859
   H(HETATM   42 1H3  ALT A   2)   0.65050
   H(HETATM   43 2H3  ALT A   2)   0.83304
   H(HETATM   44 1H4  ALT A   2)   0.65934
   H(HETATM   45 2H4  ALT A   2)   0.84567
   H(HETATM   46  H5  ALT A   2)   0.85329
   H(HETATM   47  H6  ALT A   2)   0.67498
   H(HETATM   48 1H6  ALT A   2)   0.82385
   H(HETATM   49 2H6  ALT A   2)   0.86053
   O(HETATM   51  O1  GLC A   3)   1.87279   1.36289   1.42545   1.79702
   C(HETATM   52  C1  GLC A   3)   1.12640   0.88855   0.87148   0.81008
   C(HETATM   53  C2  GLC A   3)   1.10159   0.94723   0.89113   0.98925
   O(HETATM   54  O2  GLC A   3)   1.84818   1.49686   1.62266   1.56795
   C(HETATM   55  C3  GLC A   3)   1.10530   0.99288   0.91316   0.91364
   O(HETATM   56  O3  GLC A   3)   1.85079   1.45803   1.64574   1.61105
   C(HETATM   57  C4  GLC A   3)   1.10492   0.85162   0.95929   1.05127
   O(HETATM   58  O4  GLC A   3)   1.85170   1.44231   1.60257   1.69217
   O(HETATM   59  O5  GLC A   3)   1.84252   1.79264   1.49515   1.47954
   C(HETATM   60  C5  GLC A   3)   1.10807   0.83612   0.97071   1.02704
   C(HETATM   61  C6  GLC A   3)   1.09136   0.92618   1.03534   0.97903
   O(HETATM   62  O6  GLC A   3)   1.85017   1.36704   1.90427   1.42668
   H(HETATM   63  H1  GLC A   3)   0.83744
   H(HETATM   64 1H2  GLC A   3)   0.65956
   H(HETATM   65 2H2  GLC A   3)   0.84002
   H(HETATM   66 1H3  GLC A   3)   0.65863
   H(HETATM   67 2H3  GLC A   3)   0.84039
   H(HETATM   68 1H4  GLC A   3)   0.63745
   H(HETATM   69 2H4  GLC A   3)   0.84301
   H(HETATM   70 1H5  GLC A   3)   0.64879
   H(HETATM   71 2H5  GLC A   3)   0.83140
   H(HETATM   72  H6  GLC A   3)   0.68368
   H(HETATM   73 1H6  GLC A   3)   0.86205
   H(HETATM   74 2H6  GLC A   3)   0.85202
   C(HETATM   76  C1  MAN A   4)   1.10523   0.99974   0.98202   0.86190
   O(HETATM   77  O1  MAN A   4)   1.84938   1.49054   1.86798   1.31429
   C(HETATM   78  C2  MAN A   4)   1.10621   0.97585   0.80077   1.03225
   O(HETATM   79  O2  MAN A   4)   1.83772   1.50951   1.39198   1.86238
   C(HETATM   80  C3  MAN A   4)   1.10010   0.87098   0.92018   1.07663
   O(HETATM   81  O3  MAN A   4)   1.85402   1.47921   1.68309   1.55768
   C(HETATM   82  C4  MAN A   4)   1.11284   0.83925   0.92034   1.09930
   O(HETATM   83  O4  MAN A   4)   1.87168   1.34081   1.54265   1.72352
   C(HETATM   84  C5  MAN A   4)   1.12321   0.86046   0.98354   0.71548
   O(HETATM   85  O5  MAN A   4)   1.84047   1.82261   1.54299   1.39218
   C(HETATM   86  C6  MAN A   4)   1.09022   1.07118   0.88331   0.98754
   O(HETATM   87  O6  MAN A   4)   1.85276   1.43172   1.43174   1.80228
   H(HETATM   88 1H1  MAN A   4)   0.67867
   H(HETATM   89 2H1  MAN A   4)   0.80947
   H(HETATM   90 1H2  MAN A   4)   0.63574
   H(HETATM   91 2H2  MAN A   4)   0.83177
   H(HETATM   92 1H3  MAN A   4)   0.63836
   H(HETATM   93 2H3  MAN A   4)   0.85756
   H(HETATM   94 1H5  MAN A   4)   0.64888
   H(HETATM   95 2H5  MAN A   4)   0.84715
   H(HETATM   96  H4  MAN A   4)   0.83295
   H(HETATM   97  H6  MAN A   4)   0.68100
   H(HETATM   98 1H6  MAN A   4)   0.83357
   H(HETATM   99 2H6  MAN A   4)   0.87584
   C(HETATM  101  C1  GUL A   5)   1.12292   0.83998   0.82732   0.87749
   O(HETATM  102  O1  GUL A   5)   1.83692   1.69580   1.54981   1.56541
   C(HETATM  103  C2  GUL A   5)   1.10571   1.01240   0.89911   0.96504
   O(HETATM  104  O2  GUL A   5)   1.85303   1.42684   1.48159   1.75048
   C(HETATM  105  C3  GUL A   5)   1.10396   0.90754   0.94465   0.98566
   O(HETATM  106  O3  GUL A   5)   1.85265   1.68673   1.52893   1.47566
   C(HETATM  107  C4  GUL A   5)   1.10759   0.97303   0.92368   0.94828
   O(HETATM  108  O4  GUL A   5)   1.85016   1.57952   1.68302   1.42420
   C(HETATM  109  C5  GUL A   5)   1.10872   0.90833   1.01111   0.94504
   O(HETATM  110  O5  GUL A   5)   1.87416   1.53775   1.42360   1.65502
   C(HETATM  111  C6  GUL A   5)   1.09170   0.96480   0.98774   0.96339
   O(HETATM  112  O6  GUL A   5)   1.84526   1.44067   1.80418   1.48841
   H(HETATM  113 1H1  GUL A   5)   0.61817
   H(HETATM  114 2H1  GUL A   5)   0.85780
   H(HETATM  115 1H2  GUL A   5)   0.66276
   H(HETATM  116 2H2  GUL A   5)   0.84215
   H(HETATM  117 1H3  GUL A   5)   0.65915
   H(HETATM  118 2H3  GUL A   5)   0.83125
   H(HETATM  119 1H4  GUL A   5)   0.68209
   H(HETATM  120 2H4  GUL A   5)   0.81930
   H(HETATM  121  H5  GUL A   5)   0.85043
   H(HETATM  122  H6  GUL A   5)   0.67341
   H(HETATM  123 1H6  GUL A   5)   0.83046
   H(HETATM  124 2H6  GUL A   5)   0.86408
   C(HETATM  126  C1  IDO A   6)   1.12719   0.88833   0.80815   0.85966
   O(HETATM  127  O1  IDO A   6)   1.84293   1.88633   1.50413   1.41683
   C(HETATM  128  C2  IDO A   6)   1.10629   0.96473   1.00024   0.89151
   O(HETATM  129  O2  IDO A   6)   1.84927   1.44105   1.69803   1.56536
   C(HETATM  130  C3  IDO A   6)   1.10262   0.92830   0.90807   1.00015
   O(HETATM  131  O3  IDO A   6)   1.85287   1.74771   1.59033   1.36012
   C(HETATM  132  C4  IDO A   6)   1.10937   1.02920   0.89398   0.92442
   O(HETATM  133  O4  IDO A   6)   1.85391   1.74212   1.52622   1.43882
   C(HETATM  134  C5  IDO A   6)   1.10939   0.83428   1.03440   1.01424
   O(HETATM  135  O5  IDO A   6)   1.87598   1.28713   1.42956   1.87750
   C(HETATM  136  C6  IDO A   6)   1.09369   0.87501   1.03141   1.00802
   O(HETATM  137  O6  IDO A   6)   1.83600   1.40346   1.82840   1.52363
   H(HETATM  138 1H1  IDO A   6)   0.61717
   H(HETATM  139 2H1  IDO A   6)   0.83688
   H(HETATM  140 1H2  IDO A   6)   0.65694
   H(HETATM  141 2H2  IDO A   6)   0.81943
   H(HETATM  142 1H3  IDO A   6)   0.64913
   H(HETATM  143 2H3  IDO A   6)   0.83409
   H(HETATM  144 1H4  IDO A   6)   0.66380
   H(HETATM  145 2H4  IDO A   6)   0.83860
   H(HETATM  146  H5  IDO A   6)   0.83136
   H(HETATM  147  H6  IDO A   6)   0.65318
   H(HETATM  148 1H6  IDO A   6)   0.85812
   H(HETATM  149 2H6  IDO A   6)   0.83208
   C(HETATM  151  C1  GAL A   7)   1.10631   0.87943   0.98610   0.99318
   O(HETATM  152  O1  GAL A   7)   1.85152   1.52641   1.45302   1.71883
   C(HETATM  153  C2  GAL A   7)   1.10381   0.98955   1.07713   0.77787
   O(HETATM  154  O2  GAL A   7)   1.85042   1.48684   1.92584   1.30948
   C(HETATM  155  C3  GAL A   7)   1.10042   1.03488   0.82142   0.96995
   O(HETATM  156  O3  GAL A   7)   1.85353   1.91171   1.33504   1.44993
   C(HETATM  157  C4  GAL A   7)   1.10458   0.82723   1.06325   0.94496
   O(HETATM  158  O4  GAL A   7)   1.87219   1.27223   1.57680   1.73379
   C(HETATM  159  C5  GAL A   7)   1.11488   0.86155   0.74163   0.95333
   O(HETATM  160  O5  GAL A   7)   1.84023   1.92956   1.39697   1.48937
   C(HETATM  161  C6  GAL A   7)   1.09205   0.93599   1.00250   0.94774
   O(HETATM  162  O6  GAL A   7)   1.83287   1.38341   1.90903   1.52826
   H(HETATM  163 1H1  GAL A   7)   0.65941
   H(HETATM  164 2H1  GAL A   7)   0.83029
   H(HETATM  165 1H2  GAL A   7)   0.65798
   H(HETATM  166 2H2  GAL A   7)   0.85122
   H(HETATM  167 1H3  GAL A   7)   0.66133
   H(HETATM  168 2H3  GAL A   7)   0.85418
   H(HETATM  169 1H5  GAL A   7)   0.61684
   H(HETATM  170 2H5  GAL A   7)   0.86273
   H(HETATM  171  H4  GAL A   7)   0.84579
   H(HETATM  172  H6  GAL A   7)   0.63258
   H(HETATM  173 1H6  GAL A   7)   0.83990
   H(HETATM  174 2H6  GAL A   7)   0.84513
   C(HETATM  176  C1  TAL A   8)   1.12528   0.78202   0.92048   0.84659
   O(HETATM  177  O1  TAL A   8)   1.83785   1.91314   1.53108   1.35508
   C(HETATM  178  C2  TAL A   8)   1.09902   1.06889   0.88753   0.85526
   O(HETATM  179  O2  TAL A   8)   1.85123   1.44289   1.66914   1.56395
   C(HETATM  180  C3  TAL A   8)   1.10392   0.98345   1.00428   0.86956
   O(HETATM  181  O3  TAL A   8)   1.84863   1.95420   1.35761   1.37788
   C(HETATM  182  C4  TAL A   8)   1.10473   1.02322   0.98169   0.84522
   O(HETATM  183  O4  TAL A   8)   1.85505   1.83860   1.56895   1.30197
   C(HETATM  184  C5  TAL A   8)   1.10371   0.87461   0.92884   1.03850
   O(HETATM  185  O5  TAL A   8)   1.87104   1.26320   1.42049   1.93164
   C(HETATM  186  C6  TAL A   8)   1.09349   1.02432   0.96618   0.91714
   O(HETATM  187  O6  TAL A   8)   1.84587   1.67370   1.49220   1.56258
   H(HETATM  188 1H1  TAL A   8)   0.62884
   H(HETATM  189 2H1  TAL A   8)   0.85594
   H(HETATM  190 1H2  TAL A   8)   0.65686
   H(HETATM  191 2H2  TAL A   8)   0.82457
   H(HETATM  192 1H3  TAL A   8)   0.68145
   H(HETATM  193 2H3  TAL A   8)   0.84828
   H(HETATM  194 1H4  TAL A   8)   0.64741
   H(HETATM  195 2H4  TAL A   8)   0.86723
   H(HETATM  196  H5  TAL A   8)   0.85712
   H(HETATM  197  H6  TAL A   8)   0.66808
   H(HETATM  198 1H6  TAL A   8)   0.84764
   H(HETATM  199 2H6  TAL A   8)   0.84145

 **********************
 *                    *
 * JOB ENDED NORMALLY *
 *                    *
 **********************



 TOTAL JOB TIME:             2.28 SECONDS

 == MOPAC DONE ==
