 *******************************************************************************
 ** Site#: 37037        For non-commercial use only           Version 21.153W **
 *******************************************************************************
 ** Cite this program as: MOPAC2016, Version: 21.153W, James J. P. Stewart,   **
 ** Stewart Computational Chemistry, web: HTTP://OpenMOPAC.net. Days left: 364**
 *******************************************************************************
 **                                                                           **
 **                                MOPAC2016                                  **
 **                                                                           **
 *******************************************************************************

                              PM7 CALCULATION RESULTS

 *******************************************************************************
 *  CALCULATION DONE:                                Thu Jun  3 11:12:40 2021  *
 *  SYMMETRY   - SYMMETRY CONDITIONS TO BE IMPOSED
 *  T=         - A TIME OF 172800.0 SECONDS REQUESTED
 *  DUMP=N     - RESTART FILE WRITTEN EVERY 7200.0 SECONDS REQUESTED
 *******************************************************************************



                    PARAMETER DEPENDENCE DATA

        REFERENCE ATOM      FUNCTION NO.    DEPENDENT ATOM(S)
            2                  1               4

             DESCRIPTIONS OF THE FUNCTIONS USED
   1      BOND LENGTH    IS SET EQUAL TO THE REFERENCE BOND LENGTH   
 
  symmetry
 Using SYMMETRY to optimize the transition state in a narcissistic reaction

  ATOM    CHEMICAL      BOND LENGTH      BOND ANGLE     TWIST ANGLE 
 NUMBER    SYMBOL       (ANGSTROMS)      (DEGREES)       (DEGREES) 
   (I)                     NA:I           NB:NA:I       NC:NB:NA:I       NA    NB    NC 
     1       C          0.00000000  *    0.0000000  *    0.0000000  *     0     0     0
     2       C          1.80000000  *    0.0000000  *    0.0000000  *     1     0     0
     3       C          2.40000000  *   90.0000000  *    0.0000000  *     2     1     0
     4       C          1.80000000      89.0000000  *    0.0000000  *     3     2     1
     5       C          1.40000000  *  100.0000000  *  -28.0000000  *     1     2     3
     6       C          1.40000000  *  101.0000000  *  -27.0000000  *     2     1     3
     7       H          1.10000000  *  119.0000000  *  -96.0000000  *     5     1     2
     8       H          1.10000000  *  101.0000000  * -152.0000000  *     1     2     3
     9       H          1.10000000  *   98.0000000  *   93.0000000  *     1     2     3
    10       H          1.10000000  *   98.0000000  *   94.0000000  *     2     1     3
    11       H          1.10000000  *  101.0000000  * -151.0000000  *     2     1     3
    12       H          1.10000000  *  119.0000000  *  -96.0000000  *     6     2     1
    13       H          1.10000000  *  149.0000000  * -112.0000000  *     3     2     1
    14       H          1.10000000  *   94.0000000  *   99.0000000  *     3     2     1
    15       H          1.10000000  *  101.0000000  *  151.0000000  *     4     3     2
    16       H          1.10000000  *   98.0000000  *  -94.0000000  *     4     3     2
 


          CARTESIAN COORDINATES 

    NO.       ATOM           X           Y           Z

     1         C          0.0000      0.0000      0.0000
     2         C          1.8000      0.0000      0.0000
     3         C          1.8000      2.4000      0.0000
     4         C          0.0003      2.3686      0.0000
     5         C         -0.2431      1.2173      0.6473
     6         C          2.0671      1.2245     -0.6239
     7         H         -0.4347      1.2164      1.7305
     8         H         -0.2099     -0.9534      0.5069
     9         H         -0.1531     -0.0570     -1.0878
    10         H          1.9531     -0.0760      1.0866
    11         H          2.0099     -0.9444     -0.5235
    12         H          2.2676      1.2394     -1.7054
    13         H          2.0122      3.3429     -0.5253
    14         H          1.9717      2.4767      1.0838
    15         H         -0.2261      3.3092      0.5235
    16         H         -0.1541      2.4419     -1.0866

 General Reference for PM7:
 "Optimization of Parameters for Semiempirical Methods VI: More Modifications to the 
 NDDO Approximations and Re-optimization of Parameters", J. J. P. Stewart, J. Mol. Mod., 1:32, 19 (2013)
 https://link.springer.com/article/10.1007/s00894-012-1667-x

           Empirical Formula: C6 H10  =    16 atoms



      MOLECULAR POINT GROUP   :   Ci  


      RHF CALCULATION, NO. OF DOUBLY OCCUPIED LEVELS = 17


          Geometry optimization using EF

          DIAGONAL MATRIX USED AS START HESSIAN

 CYCLE:     1 TIME:   0.000 TIME LEFT:  2.00D  GRAD.:   322.943 HEAT:  59.90450
 CYCLE:     2 TIME:   0.016 TIME LEFT:  2.00D  GRAD.:   254.356 HEAT:  57.78775
 CYCLE:     3 TIME:   0.000 TIME LEFT:  2.00D  GRAD.:    84.842 HEAT:  53.90275
 CYCLE:     4 TIME:   0.016 TIME LEFT:  2.00D  GRAD.:    91.360 HEAT:  52.57402
 CYCLE:     5 TIME:   0.000 TIME LEFT:  2.00D  GRAD.:    52.575 HEAT:  52.03407
 CYCLE:     6 TIME:   0.016 TIME LEFT:  2.00D  GRAD.:    23.297 HEAT:  51.71123
 CYCLE:     7 TIME:   0.000 TIME LEFT:  2.00D  GRAD.:    40.613 HEAT:  51.65629
 CYCLE:     8 TIME:   0.000 TIME LEFT:  2.00D  GRAD.:     5.402 HEAT:  51.51252
 CYCLE:     9 TIME:   0.000 TIME LEFT:  2.00D  GRAD.:     5.112 HEAT:  51.49305
 CYCLE:    10 TIME:   0.016 TIME LEFT:  2.00D  GRAD.:     2.195 HEAT:  51.47808
 CYCLE:    11 TIME:   0.000 TIME LEFT:  2.00D  GRAD.:     1.835 HEAT:  51.33502
 CYCLE:    12 TIME:   0.000 TIME LEFT:  2.00D  GRAD.:     2.781 HEAT:  51.32857
 CYCLE:    13 TIME:   0.000 TIME LEFT:  2.00D  GRAD.:     1.188 HEAT:  51.32328
 CYCLE:    14 TIME:   0.016 TIME LEFT:  2.00D  GRAD.:     0.547 HEAT:  51.32212

     GRADIENT =  0.54725 IS LESS THAN CUTOFF =  1.00000



 -------------------------------------------------------------------------------
 symmetry
 Using SYMMETRY to optimize the transition state in a narcissistic reaction



     GEOMETRY OPTIMISED USING EIGENVECTOR FOLLOWING (EF).     
     SCF FIELD WAS ACHIEVED                                   


                              PM7 CALCULATION
                                                       MOPAC2016 (Version: 21.153W)
                                                       Thu Jun  3 11:12:40 2021
                                                       No. of days remaining = 364




          FINAL HEAT OF FORMATION =         51.32211 KCAL/MOL =     214.73172 KJ/MOL


          TOTAL ENERGY            =       -869.63519 EV
          ELECTRONIC ENERGY       =      -3926.38012 EV  POINT GROUP:     C2h 
          CORE-CORE REPULSION     =       3056.74492 EV
          COSMO AREA              =        132.16 SQUARE ANGSTROMS
          COSMO VOLUME            =        126.36 CUBIC ANGSTROMS

          GRADIENT NORM           =          0.54725 = 0.13681 PER ATOM
          IONIZATION POTENTIAL    =          8.274238 EV
          HOMO LUMO ENERGIES (EV) =         -8.274  0.255
          NO. OF FILLED LEVELS    =         17
          MOLECULAR WEIGHT        =         82.1450

          MOLECULAR DIMENSIONS (Angstroms)

            Atom       Atom       Distance
            H    15    H    11     5.00009
            H    13    H     8     4.38762
            H    10    H     9     2.85918


          SCF CALCULATIONS        =         19
 
          WALL-CLOCK TIME         =          0.109 SECONDS
          COMPUTATION TIME        =          0.391 SECONDS




  ATOM    CHEMICAL      BOND LENGTH      BOND ANGLE     TWIST ANGLE 
 NUMBER    SYMBOL       (ANGSTROMS)      (DEGREES)       (DEGREES) 
   (I)                     NA:I           NB:NA:I       NC:NB:NA:I       NA    NB    NC 
     1       C          0.00000009  *    0.0000001  *    0.0000004  *     0     0     0
     2       C          1.90311644  *   -0.0000000  *   -0.0000000  *     1     0     0
     3       C          2.43393127  *   89.9169372  *    0.0000000  *     2     1     0
     4       C          1.90311644      90.0741571  *    0.3316072  *     3     2     1
     5       C          1.40296631  *  101.3990089  *  -28.0749744  *     1     2     3
     6       C          1.40302416  *  101.1811517  *  -27.8182255  *     2     1     3
     7       H          1.08637417  *  119.2135732  *  -97.5119013  *     5     1     2
     8       H          1.08616769  *  101.4384745  * -151.4792563  *     1     2     3
     9       H          1.08824334  *   98.0676512  *   94.4080561  *     1     2     3
    10       H          1.08798647  *   98.1399310  *   94.7062792  *     2     1     3
    11       H          1.08618223  *  101.4941277  * -151.1128800  *     2     1     3
    12       H          1.08633803  *  119.2130125  *  -97.5881232  *     6     2     1
    13       H          1.08624607  *  149.0972164  * -112.6632361  *     3     2     1
    14       H          1.08820847  *   94.6460723  *   98.3476946  *     3     2     1
    15       H          1.08641040  *  101.5287602  *  150.7789309  *     4     3     2
    16       H          1.08792721  *   97.9241631  *  -95.0871924  *     4     3     2

                             CARTESIAN COORDINATES

   1    C        0.000000090     0.000000071     0.000000423
   2    C        1.903116534     0.000000071     0.000000423
   3    C        1.899588016     2.433928788     0.000000423
   4    C       -0.003496530     2.433633026     0.011014900
   5    C       -0.277282710     1.213465115     0.647249448
   6    C        2.175179250     1.217327189    -0.642318307
   7    H       -0.503590466     1.208037438     1.709776705
   8    H       -0.215403858    -0.935399799     0.508319695
   9    H       -0.152726428    -0.082813665    -1.074285416
  10    H        2.057165815    -0.088367408     1.073394375
  11    H        2.119557351    -0.931959098    -0.514195367
  12    H        2.400820317     1.217271057    -1.704964255
  13    H        2.113194589     3.366281964    -0.514800805
  14    H        2.056926888     2.522302323     1.073141734
  15    H       -0.217759463     3.362630759     0.531920034
  16    H       -0.159704769     2.529147870    -1.061394314


           Empirical Formula: C6 H10  =    16 atoms



      MOLECULAR POINT GROUP   :   C2h 


                  EIGENVALUES  
 -29.63899 -25.76322 -25.13168 -21.53507 -19.40305 -19.04525 -16.51009 -15.34623
 -15.08099 -14.03535 -13.36180 -12.77470 -12.48670 -12.16614 -11.62928 -10.08772
  -8.27424   0.25500   1.49694   2.97754   5.07991   5.22255   5.36446   5.37556
   6.04053   6.11262   6.14009   6.16519   6.32897   6.43968   6.49663   6.64210
   6.65688   6.68190


              NET ATOMIC CHARGES AND DIPOLE CONTRIBUTIONS

  ATOM NO.   TYPE          CHARGE      No. of ELECS.   s-Pop       p-Pop       
    1          C          -0.246941        4.2469     1.09317     3.15378
    2          C          -0.246829        4.2468     1.09318     3.15365
    3          C          -0.247549        4.2475     1.09313     3.15442
    4          C          -0.246806        4.2468     1.09314     3.15367
    5          C          -0.199896        4.1999     1.07813     3.12177
    6          C          -0.199381        4.1994     1.07819     3.12120
    7          H           0.139874        0.8601     0.86013
    8          H           0.134914        0.8651     0.86509
    9          H           0.141975        0.8580     0.85802
   10          H           0.142049        0.8580     0.85795
   11          H           0.134911        0.8651     0.86509
   12          H           0.139865        0.8601     0.86013
   13          H           0.134897        0.8651     0.86510
   14          H           0.142062        0.8579     0.85794
   15          H           0.134815        0.8652     0.86519
   16          H           0.142041        0.8580     0.85796
 DIPOLE           X         Y         Z       TOTAL
 POINT-CHG.     0.003    -0.002    -0.001     0.004
 HYBRID         0.001    -0.001     0.000     0.001
 SUM            0.004    -0.003    -0.001     0.005


          ATOMIC ORBITAL ELECTRON POPULATIONS

     Atom    s        px        py        pz   
    1  C   1.09317   0.97150   1.05853   1.12374
    2  C   1.09318   0.97157   1.05808   1.12400
    3  C   1.09313   0.97228   1.05814   1.12399
    4  C   1.09314   0.97166   1.05774   1.12427
    5  C   1.07813   1.05409   0.98479   1.08289
    6  C   1.07819   1.05359   0.98480   1.08281
    7  H   0.86013
    8  H   0.86509
    9  H   0.85802
   10  H   0.85795
   11  H   0.86509
   12  H   0.86013
   13  H   0.86510
   14  H   0.85794
   15  H   0.86519
   16  H   0.85796
 *******************************************************************************
 ** Site#: 37037        For non-commercial use only           Version 21.153W **
 *******************************************************************************
 ** Cite this program as: MOPAC2016, Version: 21.153W, James J. P. Stewart,   **
 ** Stewart Computational Chemistry, web: HTTP://OpenMOPAC.net. Days left: 364**
 *******************************************************************************
 **                                                                           **
 **                                MOPAC2016                                  **
 **                                                                           **
 *******************************************************************************

                              PM7 CALCULATION RESULTS

 *******************************************************************************
 *  CALCULATION DONE:                                Thu Jun  3 11:12:40 2021  *
 *  OPT        - OPTIMIZE COORDINATES OF ALL ATOMS
 *  OLDGEO     - PREVIOUS GEOMETRY TO BE USED
 *  TS         - USE EF ROUTINE FOR TS SEARCH
 *  T=         - A TIME OF 172800.0 SECONDS REQUESTED
 *  DUMP=N     - RESTART FILE WRITTEN EVERY 7200.0 SECONDS REQUESTED
 *******************************************************************************
 oldgeo opt ts
 Optimize transition state (redundant operation - run here to verify that the previous optimization had run correctly)

  ATOM    CHEMICAL      BOND LENGTH      BOND ANGLE     TWIST ANGLE 
 NUMBER    SYMBOL       (ANGSTROMS)      (DEGREES)       (DEGREES) 
   (I)                     NA:I           NB:NA:I       NC:NB:NA:I       NA    NB    NC 
     1       C          0.00000009  *    0.0000001  *    0.0000004  *     0     0     0
     2       C          1.90311644  *   -0.0000000  *   -0.0000000  *     1     0     0
     3       C          2.43393127  *   89.9169372  *    0.0000000  *     2     1     0
     4       C          1.90311644  *   90.0741571  *    0.3316072  *     3     2     1
     5       C          1.40296631  *  101.3990089  *  -28.0749744  *     1     2     3
     6       C          1.40302416  *  101.1811517  *  -27.8182255  *     2     1     3
     7       H          1.08637417  *  119.2135732  *  -97.5119013  *     5     1     2
     8       H          1.08616769  *  101.4384745  * -151.4792563  *     1     2     3
     9       H          1.08824334  *   98.0676512  *   94.4080561  *     1     2     3
    10       H          1.08798647  *   98.1399310  *   94.7062792  *     2     1     3
    11       H          1.08618223  *  101.4941277  * -151.1128800  *     2     1     3
    12       H          1.08633803  *  119.2130125  *  -97.5881232  *     6     2     1
    13       H          1.08624607  *  149.0972164  * -112.6632361  *     3     2     1
    14       H          1.08820847  *   94.6460723  *   98.3476946  *     3     2     1
    15       H          1.08641040  *  101.5287602  *  150.7789309  *     4     3     2
    16       H          1.08792721  *   97.9241631  *  -95.0871924  *     4     3     2
 


          CARTESIAN COORDINATES 

    NO.       ATOM           X           Y           Z

     1         C          0.0000      0.0000      0.0000
     2         C          1.9031      0.0000      0.0000
     3         C          1.8996      2.4339      0.0000
     4         C         -0.0035      2.4336      0.0110
     5         C         -0.2773      1.2135      0.6472
     6         C          2.1752      1.2173     -0.6423
     7         H         -0.5036      1.2080      1.7098
     8         H         -0.2154     -0.9354      0.5083
     9         H         -0.1527     -0.0828     -1.0743
    10         H          2.0572     -0.0884      1.0734
    11         H          2.1196     -0.9320     -0.5142
    12         H          2.4008      1.2173     -1.7050
    13         H          2.1132      3.3663     -0.5148
    14         H          2.0569      2.5223      1.0731
    15         H         -0.2178      3.3626      0.5319
    16         H         -0.1597      2.5291     -1.0614

 General Reference for PM7:
 "Optimization of Parameters for Semiempirical Methods VI: More Modifications to the 
 NDDO Approximations and Re-optimization of Parameters", J. J. P. Stewart, J. Mol. Mod., 1:32, 19 (2013)
 https://link.springer.com/article/10.1007/s00894-012-1667-x

           Empirical Formula: C6 H10  =    16 atoms



      MOLECULAR POINT GROUP   :   C2h 


      RHF CALCULATION, NO. OF DOUBLY OCCUPIED LEVELS = 17


          Transition state refinement using EF

     GRADIENT =  0.53568 IS LESS THAN CUTOFF =  1.00000



 -------------------------------------------------------------------------------
 opt ts
 Optimize transition state (redundant operation - run here to verify that the previous optimization had run correctly)



     GRADIENTS WERE INITIALLY ACCEPTABLY SMALL                
     SCF FIELD WAS ACHIEVED                                   


                              PM7 CALCULATION
                                                       MOPAC2016 (Version: 21.153W)
                                                       Thu Jun  3 11:12:40 2021
                                                       No. of days remaining = 364




          FINAL HEAT OF FORMATION =         51.32211 KCAL/MOL =     214.73172 KJ/MOL


          TOTAL ENERGY            =       -869.63519 EV
          ELECTRONIC ENERGY       =      -3926.38012 EV  POINT GROUP:     C2h 
          CORE-CORE REPULSION     =       3056.74492 EV
          COSMO AREA              =        132.16 SQUARE ANGSTROMS
          COSMO VOLUME            =        126.36 CUBIC ANGSTROMS

          GRADIENT NORM           =          0.53568 = 0.13392 PER ATOM
          IONIZATION POTENTIAL    =          8.274239 EV
          HOMO LUMO ENERGIES (EV) =         -8.274  0.255
          NO. OF FILLED LEVELS    =         17
          MOLECULAR WEIGHT        =         82.1450

          MOLECULAR DIMENSIONS (Angstroms)

            Atom       Atom       Distance
            H    15    H    11     5.00009
            H    13    H     8     4.38762
            H    10    H     9     2.85918


          SCF CALCULATIONS        =          1
 
          WALL-CLOCK TIME         =          0.141 SECONDS
          COMPUTATION TIME        =          0.516 SECONDS




  ATOM    CHEMICAL      BOND LENGTH      BOND ANGLE     TWIST ANGLE 
 NUMBER    SYMBOL       (ANGSTROMS)      (DEGREES)       (DEGREES) 
   (I)                     NA:I           NB:NA:I       NC:NB:NA:I       NA    NB    NC 
     1       C          0.00000009  *    0.0000001  *    0.0000004  *     0     0     0
     2       C          1.90311644  *   -0.0000000  *   -0.0000000  *     1     0     0
     3       C          2.43393127  *   89.9169372  *    0.0000000  *     2     1     0
     4       C          1.90311644  *   90.0741571  *    0.3316072  *     3     2     1
     5       C          1.40296631  *  101.3990089  *  -28.0749744  *     1     2     3
     6       C          1.40302416  *  101.1811517  *  -27.8182255  *     2     1     3
     7       H          1.08637417  *  119.2135732  *  -97.5119013  *     5     1     2
     8       H          1.08616769  *  101.4384745  * -151.4792563  *     1     2     3
     9       H          1.08824334  *   98.0676512  *   94.4080561  *     1     2     3
    10       H          1.08798647  *   98.1399310  *   94.7062792  *     2     1     3
    11       H          1.08618223  *  101.4941277  * -151.1128800  *     2     1     3
    12       H          1.08633803  *  119.2130125  *  -97.5881232  *     6     2     1
    13       H          1.08624607  *  149.0972164  * -112.6632361  *     3     2     1
    14       H          1.08820847  *   94.6460723  *   98.3476946  *     3     2     1
    15       H          1.08641040  *  101.5287602  *  150.7789309  *     4     3     2
    16       H          1.08792721  *   97.9241631  *  -95.0871924  *     4     3     2

                             CARTESIAN COORDINATES

   1    C        0.000000090     0.000000071     0.000000423
   2    C        1.903116534     0.000000071     0.000000423
   3    C        1.899588016     2.433928788     0.000000423
   4    C       -0.003496530     2.433633026     0.011014900
   5    C       -0.277282710     1.213465115     0.647249448
   6    C        2.175179250     1.217327189    -0.642318307
   7    H       -0.503590466     1.208037438     1.709776705
   8    H       -0.215403858    -0.935399799     0.508319695
   9    H       -0.152726428    -0.082813665    -1.074285416
  10    H        2.057165815    -0.088367408     1.073394375
  11    H        2.119557351    -0.931959098    -0.514195367
  12    H        2.400820317     1.217271057    -1.704964255
  13    H        2.113194589     3.366281964    -0.514800805
  14    H        2.056926888     2.522302323     1.073141734
  15    H       -0.217759463     3.362630759     0.531920034
  16    H       -0.159704769     2.529147870    -1.061394314


           Empirical Formula: C6 H10  =    16 atoms



      MOLECULAR POINT GROUP   :   C2h 


                  EIGENVALUES  
 -29.63899 -25.76322 -25.13169 -21.53507 -19.40305 -19.04525 -16.51009 -15.34624
 -15.08099 -14.03535 -13.36180 -12.77470 -12.48670 -12.16614 -11.62928 -10.08772
  -8.27424   0.25500   1.49694   2.97754   5.07991   5.22255   5.36446   5.37556
   6.04053   6.11262   6.14009   6.16520   6.32897   6.43968   6.49663   6.64210
   6.65688   6.68190


              NET ATOMIC CHARGES AND DIPOLE CONTRIBUTIONS

  ATOM NO.   TYPE          CHARGE      No. of ELECS.   s-Pop       p-Pop       
    1          C          -0.246931        4.2469     1.09317     3.15376
    2          C          -0.246834        4.2468     1.09318     3.15365
    3          C          -0.247556        4.2476     1.09313     3.15442
    4          C          -0.246797        4.2468     1.09314     3.15366
    5          C          -0.199908        4.1999     1.07812     3.12179
    6          C          -0.199375        4.1994     1.07819     3.12119
    7          H           0.139875        0.8601     0.86012
    8          H           0.134913        0.8651     0.86509
    9          H           0.141974        0.8580     0.85803
   10          H           0.142050        0.8579     0.85795
   11          H           0.134911        0.8651     0.86509
   12          H           0.139864        0.8601     0.86014
   13          H           0.134897        0.8651     0.86510
   14          H           0.142063        0.8579     0.85794
   15          H           0.134814        0.8652     0.86519
   16          H           0.142040        0.8580     0.85796
 DIPOLE           X         Y         Z       TOTAL
 POINT-CHG.     0.003    -0.002    -0.001     0.004
 HYBRID         0.001    -0.001     0.000     0.001
 SUM            0.004    -0.003    -0.001     0.005


          ATOMIC ORBITAL ELECTRON POPULATIONS

     Atom    s        px        py        pz   
    1  C   1.09317   0.97150   1.05853   1.12374
    2  C   1.09318   0.97157   1.05808   1.12400
    3  C   1.09313   0.97229   1.05814   1.12399
    4  C   1.09314   0.97165   1.05774   1.12427
    5  C   1.07812   1.05410   0.98479   1.08289
    6  C   1.07819   1.05358   0.98480   1.08281
    7  H   0.86012
    8  H   0.86509
    9  H   0.85803
   10  H   0.85795
   11  H   0.86509
   12  H   0.86014
   13  H   0.86510
   14  H   0.85794
   15  H   0.86519
   16  H   0.85796
 *******************************************************************************
 ** Site#: 37037        For non-commercial use only           Version 21.153W **
 *******************************************************************************
 ** Cite this program as: MOPAC2016, Version: 21.153W, James J. P. Stewart,   **
 ** Stewart Computational Chemistry, web: HTTP://OpenMOPAC.net. Days left: 364**
 *******************************************************************************
 **                                                                           **
 **                                MOPAC2016                                  **
 **                                                                           **
 *******************************************************************************

                              PM7 CALCULATION RESULTS

 *******************************************************************************
 *  CALCULATION DONE:                                Thu Jun  3 11:12:40 2021  *
 *  OLDGEO     - PREVIOUS GEOMETRY TO BE USED
 *  FORCE      - FORCE CALCULATION SPECIFIED
 *  T=         - A TIME OF 172800.0 SECONDS REQUESTED
 *  DUMP=N     - RESTART FILE WRITTEN EVERY 7200.0 SECONDS REQUESTED
 *  ISOTOPE    - SAVE THE FORCE MATRIX FOR USE LATER
 *******************************************************************************
oldgeo FORCE isotope
 Verify that there is one and only one imaginary vibration

  ATOM    CHEMICAL      BOND LENGTH      BOND ANGLE     TWIST ANGLE 
 NUMBER    SYMBOL       (ANGSTROMS)      (DEGREES)       (DEGREES) 
   (I)                     NA:I           NB:NA:I       NC:NB:NA:I       NA    NB    NC 
     1       C          0.00000009  *    0.0000001  *    0.0000004  *     0     0     0
     2       C          1.90311644  *   -0.0000000  *   -0.0000000  *     1     0     0
     3       C          2.43393127  *   89.9169372  *    0.0000000  *     2     1     0
     4       C          1.90311644  *   90.0741571  *    0.3316072  *     3     2     1
     5       C          1.40296631  *  101.3990089  *  -28.0749744  *     1     2     3
     6       C          1.40302416  *  101.1811517  *  -27.8182255  *     2     1     3
     7       H          1.08637417  *  119.2135732  *  -97.5119013  *     5     1     2
     8       H          1.08616769  *  101.4384745  * -151.4792563  *     1     2     3
     9       H          1.08824334  *   98.0676512  *   94.4080561  *     1     2     3
    10       H          1.08798647  *   98.1399310  *   94.7062792  *     2     1     3
    11       H          1.08618223  *  101.4941277  * -151.1128800  *     2     1     3
    12       H          1.08633803  *  119.2130125  *  -97.5881232  *     6     2     1
    13       H          1.08624607  *  149.0972164  * -112.6632361  *     3     2     1
    14       H          1.08820847  *   94.6460723  *   98.3476946  *     3     2     1
    15       H          1.08641040  *  101.5287602  *  150.7789309  *     4     3     2
    16       H          1.08792721  *   97.9241631  *  -95.0871924  *     4     3     2
 


          CARTESIAN COORDINATES 

    NO.       ATOM           X           Y           Z

     1         C          0.0000      0.0000      0.0000
     2         C          1.9031      0.0000      0.0000
     3         C          1.8996      2.4339      0.0000
     4         C         -0.0035      2.4336      0.0110
     5         C         -0.2773      1.2135      0.6472
     6         C          2.1752      1.2173     -0.6423
     7         H         -0.5036      1.2080      1.7098
     8         H         -0.2154     -0.9354      0.5083
     9         H         -0.1527     -0.0828     -1.0743
    10         H          2.0572     -0.0884      1.0734
    11         H          2.1196     -0.9320     -0.5142
    12         H          2.4008      1.2173     -1.7050
    13         H          2.1132      3.3663     -0.5148
    14         H          2.0569      2.5223      1.0731
    15         H         -0.2178      3.3626      0.5319
    16         H         -0.1597      2.5291     -1.0614

 General Reference for PM7:
 "Optimization of Parameters for Semiempirical Methods VI: More Modifications to the 
 NDDO Approximations and Re-optimization of Parameters", J. J. P. Stewart, J. Mol. Mod., 1:32, 19 (2013)
 https://link.springer.com/article/10.1007/s00894-012-1667-x

           Empirical Formula: C6 H10  =    16 atoms



      MOLECULAR POINT GROUP   :   C2h 


      RHF CALCULATION, NO. OF DOUBLY OCCUPIED LEVELS = 17



          HEAT OF FORMATION =      51.322112 KCALS/MOLE


          CARTESIAN COORDINATE DERIVATIVES

   NUMBER  ATOM         X            Y            Z

     1       C      0.273602     0.296366     0.173866
     2       C      0.084534    -0.098437     0.126395
     3       C     -0.156750    -0.090894    -0.257122
     4       C     -0.070880    -0.172796    -0.021374
     5       C     -0.247961     0.088517    -0.136014
     6       C     -0.136181    -0.008885     0.048170
     7       H      0.048291    -0.041531     0.032101
     8       H      0.035200    -0.035180    -0.074560
     9       H      0.004165     0.004923    -0.049463
    10       H      0.030099    -0.052421    -0.006417
    11       H     -0.024481     0.018782    -0.009156
    12       H      0.012935    -0.048138     0.003468
    13       H      0.043700     0.007002    -0.033703
    14       H     -0.006766     0.000527     0.046874
    15       H     -0.017072     0.001755     0.118976
    16       H      0.127563     0.130408     0.037953
 


          GRADIENT NORM =   0.73900


          TIME FOR SCF CALCULATION =    0.02

          TIME FOR DERIVATIVES     =    0.00

          MOLECULAR WEIGHT =   82.14



          ROTATIONAL CONSTANTS IN CM(-1)

          A =    0.15027466   B =    0.14549619   C =    0.08559163



           PRINCIPAL MOMENTS OF INERTIA IN UNITS OF 10**(-40)*GRAM-CM**2

          A =      186.2774   B =      192.3952   C =      327.0504


          ORIENTATION OF MOLECULE IN FORCE CALCULATION

    NO.       ATOM         X         Y         Z

     1          C      -0.9496   -1.2164   -0.0027
     2          C       0.9536   -1.2164   -0.0027
     3          C       0.9500    1.2175   -0.0027
     4          C      -0.9531    1.2172    0.0084
     5          C      -1.2268   -0.0030    0.6446
     6          C       1.2256    0.0009   -0.6450
     7          H      -1.4531   -0.0084    1.7071
     8          H      -1.1650   -2.1518    0.5057
     9          H      -1.1023   -1.2992   -1.0769
    10          H       1.1076   -1.3048    1.0707
    11          H       1.1700   -2.1484   -0.5169
    12          H       1.4513    0.0008   -1.7076
    13          H       1.1636    2.1499   -0.5175
    14          H       1.1074    1.3059    1.0705
    15          H      -1.1673    2.1462    0.5293
    16          H      -1.1093    1.3127   -1.0641


    FIRST DERIVATIVES WILL BE USED IN THE CALCULATION OF SECOND DERIVATIVES

          ESTIMATED TIME TO COMPLETE CALCULATION =        1.50 SECONDS

    FOR POINT-GROUP C2h  THERE ARE   4 UNIQUE SYMMETRY FUNCTIONS.

 STEP:   1 TIME =     0.02 SECS, INTEGRAL =      0.02 TIME LEFT: 172799.97
 STEP:   2 TIME =     0.00 SECS, INTEGRAL =      0.02 TIME LEFT: 172799.97
 STEP:   3 TIME =     0.02 SECS, INTEGRAL =      0.03 TIME LEFT: 172799.95
 STEP:   4                       INTEGRAL =      0.03 TIME LEFT: 172799.95
 STEP:   5                       INTEGRAL =      0.03 TIME LEFT: 172799.95
 STEP:   6                       INTEGRAL =      0.03 TIME LEFT: 172799.95
 STEP:   7                       INTEGRAL =      0.03 TIME LEFT: 172799.95
 STEP:   8                       INTEGRAL =      0.03 TIME LEFT: 172799.95
 STEP:   9                       INTEGRAL =      0.03 TIME LEFT: 172799.95
 STEP:  10                       INTEGRAL =      0.03 TIME LEFT: 172799.95
 STEP:  11                       INTEGRAL =      0.03 TIME LEFT: 172799.95
 STEP:  12                       INTEGRAL =      0.03 TIME LEFT: 172799.95
 STEP:  13 TIME =     0.02 SECS, INTEGRAL =      0.05 TIME LEFT: 172799.94
 STEP:  14 TIME =     0.00 SECS, INTEGRAL =      0.05 TIME LEFT: 172799.94
 STEP:  15 TIME =     0.02 SECS, INTEGRAL =      0.06 TIME LEFT: 172799.92
 STEP:  16                       INTEGRAL =      0.06 TIME LEFT: 172799.92
 STEP:  17                       INTEGRAL =      0.06 TIME LEFT: 172799.92
 STEP:  18                       INTEGRAL =      0.06 TIME LEFT: 172799.92
 STEP:  19 TIME =     0.02 SECS, INTEGRAL =      0.08 TIME LEFT: 172799.91
 STEP:  20 TIME =     0.00 SECS, INTEGRAL =      0.08 TIME LEFT: 172799.91
 STEP:  21 TIME =     0.02 SECS, INTEGRAL =      0.09 TIME LEFT: 172799.89
 STEP:  22 TIME =     0.00 SECS, INTEGRAL =      0.09 TIME LEFT: 172799.89
 STEP:  23 TIME =     0.02 SECS, INTEGRAL =      0.11 TIME LEFT: 172799.88
 STEP:  24 TIME =     0.00 SECS, INTEGRAL =      0.11 TIME LEFT: 172799.88
 STEP:  25 TIME =     0.02 SECS, INTEGRAL =      0.12 TIME LEFT: 172799.86
 STEP:  26 TIME =     0.00 SECS, INTEGRAL =      0.12 TIME LEFT: 172799.86
 STEP:  27 TIME =     0.02 SECS, INTEGRAL =      0.14 TIME LEFT: 172799.84
 STEP:  28                       INTEGRAL =      0.14 TIME LEFT: 172799.84
 STEP:  29                       INTEGRAL =      0.14 TIME LEFT: 172799.84
 STEP:  30                       INTEGRAL =      0.14 TIME LEFT: 172799.84
 STEP:  31                       INTEGRAL =      0.14 TIME LEFT: 172799.84
 STEP:  32                       INTEGRAL =      0.14 TIME LEFT: 172799.84
 STEP:  33                       INTEGRAL =      0.14 TIME LEFT: 172799.84
 STEP:  34                       INTEGRAL =      0.14 TIME LEFT: 172799.84
 STEP:  35                       INTEGRAL =      0.14 TIME LEFT: 172799.84
 STEP:  36                       INTEGRAL =      0.14 TIME LEFT: 172799.84
 STEP:  37                       INTEGRAL =      0.14 TIME LEFT: 172799.84
 STEP:  38                       INTEGRAL =      0.14 TIME LEFT: 172799.84
 STEP:  39                       INTEGRAL =      0.14 TIME LEFT: 172799.84
 STEP:  40                       INTEGRAL =      0.14 TIME LEFT: 172799.84
 STEP:  41                       INTEGRAL =      0.14 TIME LEFT: 172799.84
 STEP:  42                       INTEGRAL =      0.14 TIME LEFT: 172799.84
 STEP:  43                       INTEGRAL =      0.14 TIME LEFT: 172799.84
 STEP:  44                       INTEGRAL =      0.14 TIME LEFT: 172799.84
 STEP:  45                       INTEGRAL =      0.14 TIME LEFT: 172799.84
 STEP:  46                       INTEGRAL =      0.14 TIME LEFT: 172799.84
 STEP:  47                       INTEGRAL =      0.14 TIME LEFT: 172799.84
 STEP:  48                       INTEGRAL =      0.14 TIME LEFT: 172799.84

(To convert to Hartree/Bohr^2, multiply by (10^(-21) x N x a0^2)/(4.184 x 627.51) =  0.0642)


           FORCE MATRIX IN MILLIDYNES/ANGSTROM


                  C  1       C  2       C  3       C  4       C  5       C  6
 ------------------------------------------------------------------------------
     C    1  12.364184
     C    2   2.844571  12.364184
     C    3   1.823956   2.331296  12.364184
     C    4   2.331296   1.823956   2.844571  12.364184
     C    5   6.063117   2.213864   2.215525   6.059485  14.706152
     C    6   2.216925   6.060706   6.060706   2.216925   1.704309  14.706152
     H    7   0.766852   0.025064   0.025685   0.766744   3.465275   0.031321
     H    8   3.481766   0.439520   0.079510   0.068057   0.756844   0.092583
     H    9   3.458289   0.538434   0.145909   0.181979   0.781654   0.148272
     H   10   0.542745   3.458688   0.188742   0.152299   0.152973   0.782141
     H   11   0.443986   3.481632   0.069637   0.083808   0.096339   0.755520
     H   12   0.025128   0.766790   0.766790   0.025128   0.031347   3.465160
     H   13   0.083808   0.069637   3.481632   0.443986   0.096108   0.756882
     H   14   0.152299   0.188742   3.458688   0.542745   0.154453   0.781800
     H   15   0.069637   0.083808   0.443986   3.481632   0.756882   0.096108
     H   16   0.188742   0.152299   0.542745   3.458688   0.781800   0.154453


                  H  7       H  8       H  9       H 10       H 11       H 12
 ------------------------------------------------------------------------------
     H    7   4.391411
     H    8   0.035413   4.289287
     H    9   0.072017   0.452226   4.274917
     H   10   0.004536   0.018113   0.006658   4.274917
     H   11   0.003440   0.016739   0.017554   0.452226   4.289287
     H   12   0.007675   0.003452   0.004806   0.072017   0.035413   4.391411
     H   13   0.003504   0.003750   0.008362   0.008182   0.007838   0.035676
     H   14   0.004392   0.008182   0.012392   0.022042   0.008282   0.071955
     H   15   0.035676   0.007838   0.008182   0.008362   0.003750   0.003504
     H   16   0.071955   0.008282   0.022042   0.012392   0.008182   0.004392


                  H 13       H 14       H 15       H 16
 ------------------------------------------------------
     H   13   4.289287
     H   14   0.452226   4.274917
     H   15   0.016739   0.017554   4.289287
     H   16   0.018113   0.006658   0.452226   4.274917


          HEAT OF FORMATION =      51.322112 KCALS/MOLE

          ZERO POINT ENERGY      83.492 KCAL/MOL

         NOTE: SYSTEM IS NOT A GROUND STATE, THEREFORE ZERO POINT
         ENERGY IS NOT MEANINGFULL. ZERO POINT ENERGY PRINTED
         DOES NOT INCLUDE THE  1 IMAGINARY FREQUENCIES


           NORMAL COORDINATE ANALYSIS (Total motion = 1 Angstrom)


   Root No.       1         2         3         4         5         6         7         8

                 1 Au      2 Au      1 Bu      1 Ag      1 Bg      2 Ag      3 Ag      2 Bu  

                -903.6     179.5     359.9     364.9     365.9     432.9     489.7     509.0
  
           1    0.1281    0.0015   -0.0184   -0.1225    0.0516    0.0108   -0.0222   -0.0137
           2   -0.0206    0.0070    0.0125    0.0152    0.0469   -0.0158   -0.0259   -0.0231
           3   -0.0121   -0.0424   -0.0131    0.0154   -0.0039    0.0235   -0.0050    0.0055
           4   -0.1280   -0.0015   -0.0184    0.1224    0.0517   -0.0107    0.0223   -0.0138
           5   -0.0211    0.0068   -0.0125    0.0155   -0.0467   -0.0157   -0.0259    0.0230
           6    0.0120    0.0424   -0.0131   -0.0154   -0.0041   -0.0235    0.0048    0.0055
           7    0.1281    0.0015   -0.0184    0.1225   -0.0516   -0.0108    0.0222   -0.0137
           8   -0.0206    0.0070    0.0125   -0.0152   -0.0469    0.0158    0.0259   -0.0231
           9   -0.0123   -0.0424   -0.0131   -0.0154    0.0039   -0.0235    0.0050    0.0055
          10   -0.1281   -0.0015   -0.0183   -0.1224   -0.0517    0.0107   -0.0223   -0.0137
          11   -0.0211    0.0068   -0.0125   -0.0155    0.0467    0.0157    0.0259    0.0230
          12    0.0122    0.0424   -0.0132    0.0154    0.0041    0.0235   -0.0048    0.0056
          13    0.0000    0.0000    0.0372   -0.0837   -0.0000   -0.0309    0.0368    0.0250
          14    0.0419   -0.0158    0.0000   -0.0001    0.0355    0.0000    0.0001    0.0001
          15    0.0003   -0.0000    0.0321    0.0203    0.0001   -0.0200   -0.0361   -0.0243
          16   -0.0002    0.0000    0.0372    0.0837    0.0000    0.0309   -0.0368    0.0250
          17    0.0419   -0.0158   -0.0000    0.0001   -0.0355   -0.0000   -0.0001    0.0001
          18   -0.0001   -0.0000    0.0321   -0.0203   -0.0001    0.0200    0.0361   -0.0243
          19    0.0003    0.0001    0.1326   -0.0514   -0.0000   -0.1090    0.1233    0.1001
          20   -0.0170   -0.0549    0.0001   -0.0000    0.0230   -0.0001    0.0002    0.0001
          21    0.0002   -0.0001    0.0505    0.0327    0.0000   -0.0341   -0.0116   -0.0025
          22   -0.0088   -0.0210   -0.0242   -0.0229    0.0432    0.0129   -0.0076    0.0068
          23    0.0112   -0.0128   -0.0032   -0.0004    0.0405    0.0054   -0.0006    0.0014
          24    0.0029   -0.0887   -0.0467    0.0084   -0.0196    0.0693    0.0471    0.0630
          25   -0.0754    0.0328   -0.0451   -0.0135    0.0620    0.0031   -0.0249   -0.0424
          26   -0.0043    0.0523    0.0598    0.0225    0.0627   -0.0677   -0.0760   -0.0795
          27    0.0073   -0.0504   -0.0132    0.0094   -0.0078    0.0285    0.0035    0.0170
          28    0.0754   -0.0329   -0.0449    0.0134    0.0622   -0.0029    0.0251   -0.0426
          29   -0.0040    0.0519   -0.0599    0.0223   -0.0625   -0.0676   -0.0760    0.0793
          30   -0.0073    0.0506   -0.0134   -0.0093   -0.0081   -0.0288   -0.0039    0.0173
          31    0.0088    0.0210   -0.0242    0.0228    0.0433   -0.0129    0.0075    0.0068
          32    0.0112   -0.0131    0.0033   -0.0005   -0.0402    0.0057   -0.0003   -0.0017
          33   -0.0028    0.0886   -0.0466   -0.0084   -0.0198   -0.0692   -0.0472    0.0629
          34   -0.0002    0.0001    0.1326    0.0514    0.0000    0.1090   -0.1233    0.1001
          35   -0.0170   -0.0549    0.0001    0.0000   -0.0230    0.0001   -0.0002    0.0002
          36   -0.0002   -0.0001    0.0505   -0.0327   -0.0001    0.0341    0.0116   -0.0026
          37   -0.0090   -0.0210   -0.0241    0.0229   -0.0432   -0.0129    0.0076    0.0068
          38    0.0112   -0.0128   -0.0032    0.0004   -0.0405   -0.0054    0.0006    0.0014
          39    0.0026   -0.0887   -0.0467   -0.0084    0.0197   -0.0693   -0.0471    0.0631
          40   -0.0751    0.0328   -0.0451    0.0135   -0.0620   -0.0031    0.0249   -0.0424
          41   -0.0043    0.0523    0.0597   -0.0225   -0.0627    0.0677    0.0760   -0.0796
          42    0.0070   -0.0504   -0.0132   -0.0094    0.0078   -0.0285   -0.0035    0.0170
          43    0.0089    0.0210   -0.0242   -0.0227   -0.0433    0.0129   -0.0075    0.0069
          44    0.0112   -0.0131    0.0034    0.0005    0.0402   -0.0057    0.0003   -0.0017
          45   -0.0025    0.0886   -0.0467    0.0084    0.0198    0.0692    0.0472    0.0631
          46    0.0751   -0.0329   -0.0449   -0.0134   -0.0622    0.0029   -0.0251   -0.0426
          47   -0.0040    0.0520   -0.0598   -0.0223    0.0625    0.0676    0.0760    0.0794
          48   -0.0070    0.0506   -0.0135    0.0093    0.0081    0.0288    0.0039    0.0174


   Root No.       9        10        11        12        13        14        15        16

                 4 Ag      2 Bg      3 Bu      3 Au      4 Bu      4 Au      3 Bg      5 Ag  

                 848.7     859.2     859.6     927.9     981.8     984.9    1004.0    1009.7
  
           1   -0.0068    0.0002    0.0073    0.0030    0.0041    0.0033   -0.0017    0.0083
           2   -0.0132    0.0074    0.0105   -0.0076   -0.0037   -0.0005   -0.0035   -0.0073
           3    0.0090   -0.0158   -0.0066    0.0181    0.0080    0.0151    0.0123    0.0120
           4    0.0068    0.0002    0.0073   -0.0029    0.0041   -0.0033   -0.0017   -0.0083
           5   -0.0131   -0.0073   -0.0104   -0.0076    0.0037   -0.0005    0.0035   -0.0072
           6   -0.0090   -0.0158   -0.0066   -0.0182    0.0081   -0.0151    0.0123   -0.0120
           7    0.0068   -0.0002    0.0073    0.0030    0.0041    0.0033    0.0017   -0.0083
           8    0.0132   -0.0074    0.0105   -0.0076   -0.0037   -0.0005    0.0035    0.0073
           9   -0.0090    0.0158   -0.0066    0.0181    0.0080    0.0150   -0.0123   -0.0120
          10   -0.0068   -0.0003    0.0074   -0.0029    0.0041   -0.0033    0.0017    0.0083
          11    0.0131    0.0073   -0.0104   -0.0076    0.0037   -0.0005   -0.0035    0.0072
          12    0.0090    0.0158   -0.0067   -0.0182    0.0081   -0.0150   -0.0123    0.0120
          13    0.0282   -0.0000   -0.0302   -0.0000   -0.0279    0.0000    0.0000   -0.0288
          14    0.0000    0.0053   -0.0001    0.0058   -0.0000   -0.0083   -0.0000   -0.0000
          15    0.0070    0.0000    0.0056    0.0000   -0.0126    0.0000    0.0000   -0.0051
          16   -0.0282    0.0000   -0.0302   -0.0000   -0.0279   -0.0000   -0.0000    0.0288
          17   -0.0000   -0.0053   -0.0001    0.0058   -0.0000   -0.0083    0.0000    0.0000
          18   -0.0070   -0.0000    0.0056    0.0000   -0.0126   -0.0000   -0.0000    0.0051
          19   -0.1100    0.0000    0.0842   -0.0001    0.1646   -0.0000   -0.0001    0.1463
          20   -0.0001   -0.0182    0.0001    0.0420    0.0002    0.0373    0.0502    0.0002
          21   -0.0239   -0.0000    0.0287    0.0001    0.0325    0.0001    0.0001    0.0358
          22   -0.0983    0.0881    0.1114   -0.1114   -0.0478    0.0906    0.0699   -0.0719
          23   -0.0091    0.0241    0.0001   -0.0108   -0.0085   -0.0535   -0.0493   -0.0077
          24   -0.0300    0.0636    0.0240   -0.0469   -0.0287   -0.0572   -0.0537   -0.0258
          25    0.0559   -0.0921   -0.0609    0.0714    0.0834   -0.0172   -0.0699    0.0665
          26    0.0174   -0.0584   -0.0085    0.0459    0.0117    0.0903    0.0857    0.0078
          27   -0.0040    0.0095    0.0072   -0.0014   -0.0084    0.0035    0.0096   -0.0011
          28   -0.0559   -0.0923   -0.0609   -0.0716    0.0834    0.0169   -0.0697   -0.0665
          29    0.0172    0.0581    0.0083    0.0456   -0.0114    0.0904   -0.0860    0.0076
          30    0.0041    0.0098    0.0072    0.0016   -0.0084   -0.0031    0.0092    0.0012
          31    0.0983    0.0882    0.1114    0.1114   -0.0478   -0.0905    0.0697    0.0719
          32   -0.0089   -0.0241    0.0001   -0.0107    0.0085   -0.0541    0.0498   -0.0076
          33    0.0299    0.0635    0.0240    0.0469   -0.0287    0.0570   -0.0535    0.0258
          34    0.1100   -0.0000    0.0842   -0.0000    0.1646   -0.0001    0.0001   -0.1463
          35    0.0001    0.0182    0.0001    0.0420    0.0002    0.0373   -0.0502   -0.0002
          36    0.0239    0.0000    0.0287    0.0001    0.0325    0.0001   -0.0001   -0.0358
          37    0.0983   -0.0881    0.1113   -0.1113   -0.0478    0.0906   -0.0699    0.0719
          38    0.0091   -0.0241    0.0001   -0.0108   -0.0085   -0.0535    0.0493    0.0077
          39    0.0300   -0.0636    0.0239   -0.0469   -0.0287   -0.0573    0.0537    0.0258
          40   -0.0559    0.0921   -0.0609    0.0714    0.0834   -0.0172    0.0699   -0.0665
          41   -0.0174    0.0584   -0.0085    0.0459    0.0117    0.0903   -0.0857   -0.0078
          42    0.0040   -0.0095    0.0072   -0.0014   -0.0084    0.0034   -0.0096    0.0011
          43   -0.0983   -0.0882    0.1113    0.1114   -0.0479   -0.0904   -0.0697   -0.0719
          44    0.0089    0.0241    0.0002   -0.0107    0.0085   -0.0541   -0.0498    0.0076
          45   -0.0299   -0.0635    0.0239    0.0469   -0.0287    0.0570    0.0535   -0.0258
          46    0.0559    0.0923   -0.0609   -0.0715    0.0834    0.0169    0.0697    0.0665
          47   -0.0172   -0.0581    0.0082    0.0456   -0.0114    0.0904    0.0860   -0.0076
          48   -0.0041   -0.0098    0.0072    0.0016   -0.0084   -0.0030   -0.0092   -0.0012


   Root No.      17        18        19        20        21        22        23        24

                 5 Au      5 Bu      6 Ag      7 Ag      4 Bg      6 Bu      6 Au      5 Bg  

                1032.4    1061.8    1072.0    1141.8    1205.2    1208.7    1309.4    1313.5
  
           1    0.0112    0.0038   -0.0001   -0.0059    0.0211   -0.0209   -0.0004    0.0067
           2    0.0094    0.0294   -0.0267   -0.0006   -0.0034    0.0014   -0.0064   -0.0050
           3    0.0049   -0.0102    0.0082    0.0057    0.0019   -0.0072   -0.0180   -0.0158
           4   -0.0112    0.0039    0.0002    0.0060    0.0211   -0.0209    0.0004    0.0067
           5    0.0094   -0.0294   -0.0267   -0.0006    0.0035   -0.0014   -0.0065    0.0051
           6   -0.0048   -0.0103   -0.0083   -0.0057    0.0019   -0.0072    0.0179   -0.0157
           7    0.0112    0.0038    0.0001    0.0059   -0.0211   -0.0209   -0.0004   -0.0067
           8    0.0094    0.0294    0.0267    0.0006    0.0034    0.0014   -0.0064    0.0050
           9    0.0048   -0.0103   -0.0082   -0.0057   -0.0019   -0.0072   -0.0180    0.0158
          10   -0.0112    0.0039   -0.0002   -0.0060   -0.0211   -0.0209    0.0004   -0.0067
          11    0.0094   -0.0294    0.0267    0.0006   -0.0035   -0.0014   -0.0065   -0.0051
          12   -0.0047   -0.0104    0.0083    0.0057   -0.0019   -0.0072    0.0179    0.0157
          13    0.0000   -0.0008   -0.0071    0.0104    0.0000    0.0088    0.0000    0.0000
          14   -0.0118    0.0000    0.0000    0.0000   -0.0034   -0.0000   -0.0001   -0.0055
          15    0.0000    0.0046   -0.0075   -0.0010   -0.0000    0.0140    0.0000   -0.0000
          16   -0.0000   -0.0008    0.0071   -0.0104   -0.0000    0.0088   -0.0000   -0.0000
          17   -0.0118   -0.0000   -0.0000   -0.0000    0.0034   -0.0000   -0.0001    0.0055
          18   -0.0001    0.0046    0.0075    0.0010    0.0000    0.0140   -0.0000    0.0000
          19    0.0001    0.0176   -0.0053    0.0031    0.0000   -0.0134   -0.0005   -0.0005
          20   -0.0202    0.0001    0.0000   -0.0000   -0.0258   -0.0001    0.2899    0.2878
          21    0.0000    0.0091   -0.0080   -0.0009   -0.0001    0.0081    0.0007    0.0007
          22    0.0651   -0.0678    0.0490    0.1039   -0.1030    0.0839    0.0180   -0.0212
          23    0.0040    0.0900   -0.0783   -0.0270    0.0173   -0.0081   -0.0110   -0.0024
          24    0.0244    0.0896   -0.0809   -0.0022   -0.0088    0.0198   -0.0161   -0.0194
          25    0.1443    0.0181   -0.0611    0.1269   -0.1073    0.1193    0.0128   -0.0028
          26   -0.0357   -0.0598    0.0652    0.0007    0.0064   -0.0309   -0.0562   -0.0557
          27   -0.0099    0.0012    0.0025   -0.0132    0.0189   -0.0217   -0.0147   -0.0101
          28   -0.1442    0.0179    0.0609   -0.1269   -0.1073    0.1192   -0.0126   -0.0029
          29   -0.0362    0.0599    0.0654    0.0002   -0.0069    0.0314   -0.0563    0.0557
          30    0.0098    0.0015   -0.0022    0.0132    0.0189   -0.0215    0.0145   -0.0098
          31   -0.0651   -0.0675   -0.0487   -0.1037   -0.1029    0.0839   -0.0179   -0.0212
          32    0.0039   -0.0906   -0.0788   -0.0273   -0.0176    0.0083   -0.0111    0.0024
          33   -0.0244    0.0892    0.0805    0.0021   -0.0089    0.0198    0.0160   -0.0194
          34   -0.0000    0.0176    0.0053   -0.0031   -0.0000   -0.0134   -0.0005    0.0005
          35   -0.0202   -0.0000   -0.0000    0.0000    0.0258   -0.0000    0.2899   -0.2878
          36   -0.0001    0.0091    0.0080    0.0009    0.0001    0.0081    0.0007   -0.0007
          37    0.0650   -0.0679   -0.0490   -0.1039    0.1030    0.0839    0.0179    0.0212
          38    0.0040    0.0900    0.0783    0.0270   -0.0173   -0.0081   -0.0110    0.0024
          39    0.0243    0.0894    0.0809    0.0022    0.0088    0.0198   -0.0161    0.0194
          40    0.1444    0.0181    0.0611   -0.1269    0.1073    0.1193    0.0128    0.0028
          41   -0.0357   -0.0597   -0.0652   -0.0007   -0.0064   -0.0309   -0.0562    0.0557
          42   -0.0100    0.0011   -0.0025    0.0132   -0.0189   -0.0217   -0.0147    0.0101
          43   -0.0650   -0.0676    0.0487    0.1037    0.1029    0.0838   -0.0179    0.0212
          44    0.0039   -0.0906    0.0788    0.0273    0.0176    0.0083   -0.0111   -0.0024
          45   -0.0243    0.0890   -0.0805   -0.0021    0.0089    0.0199    0.0160    0.0194
          46   -0.1443    0.0179   -0.0609    0.1269    0.1073    0.1192   -0.0126    0.0029
          47   -0.0362    0.0597   -0.0654   -0.0002    0.0069    0.0314   -0.0563   -0.0557
          48    0.0099    0.0014    0.0022   -0.0132   -0.0189   -0.0215    0.0145    0.0098


   Root No.      25        26        27        28        29        30        31        32

                 8 Ag      7 Bu      7 Au      6 Bg      9 Ag      8 Bu      8 Au      7 Bg  

                1327.0    1337.6    1372.1    1375.4    1436.7    1462.1    1519.6    1667.4
  
           1   -0.0011   -0.0075   -0.0005   -0.0003   -0.0017    0.0099   -0.0171   -0.0121
           2    0.0095    0.0064   -0.0104    0.0096    0.0331   -0.0402   -0.0361    0.0729
           3    0.0140    0.0101   -0.0081    0.0068    0.0238   -0.0252   -0.0123    0.0296
           4    0.0011   -0.0074    0.0005   -0.0003    0.0016    0.0098    0.0173   -0.0119
           5    0.0096   -0.0065   -0.0104   -0.0097    0.0332    0.0403   -0.0361   -0.0731
           6   -0.0139    0.0101    0.0080    0.0068   -0.0236   -0.0250    0.0122    0.0292
           7    0.0011   -0.0075   -0.0005    0.0003    0.0017    0.0099   -0.0172    0.0121
           8   -0.0095    0.0064   -0.0104   -0.0096   -0.0331   -0.0402   -0.0361   -0.0729
           9   -0.0140    0.0100   -0.0081   -0.0068   -0.0238   -0.0250   -0.0124   -0.0296
          10   -0.0011   -0.0074    0.0005    0.0003   -0.0016    0.0098    0.0173    0.0119
          11   -0.0096   -0.0065   -0.0104    0.0097   -0.0332    0.0403   -0.0361    0.0731
          12    0.0139    0.0100    0.0080   -0.0068    0.0236   -0.0248    0.0122   -0.0292
          13    0.0089    0.0078    0.0000   -0.0000    0.0135   -0.0157   -0.0001    0.0002
          14    0.0001    0.0001   -0.0072    0.0111    0.0001   -0.0001    0.0830   -0.1471
          15   -0.0345   -0.0287   -0.0000    0.0000   -0.0326    0.0369    0.0002   -0.0003
          16   -0.0089    0.0078    0.0000    0.0000   -0.0135   -0.0157   -0.0001   -0.0002
          17   -0.0001    0.0001   -0.0072   -0.0111   -0.0001   -0.0001    0.0830    0.1471
          18    0.0345   -0.0287   -0.0000   -0.0000    0.0326    0.0370    0.0002    0.0003
          19    0.0114    0.0062   -0.0001    0.0001    0.0018   -0.0021    0.0001   -0.0001
          20    0.0001    0.0001    0.0333   -0.0360    0.0001   -0.0002   -0.0554    0.0389
          21   -0.0285   -0.0249    0.0001   -0.0001   -0.0256    0.0288   -0.0001    0.0001
          22   -0.0025    0.0284    0.0008    0.0052   -0.0054   -0.0295    0.0637   -0.0012
          23    0.0394    0.0344    0.0488   -0.0494   -0.0304    0.0309   -0.0399    0.0350
          24    0.0603    0.0703    0.1017   -0.1003   -0.0997    0.0908   -0.0107    0.0108
          25   -0.0031    0.0106    0.0154   -0.0087   -0.0205    0.0065    0.0591   -0.0158
          26    0.1277    0.1244    0.1010   -0.1010   -0.0656    0.0606    0.0039   -0.0175
          27   -0.0007   -0.0058   -0.0180    0.0163    0.0283   -0.0274   -0.0215    0.0332
          28    0.0027    0.0110   -0.0158   -0.0090    0.0207    0.0067   -0.0591   -0.0159
          29    0.1277   -0.1244    0.1008    0.1009   -0.0654   -0.0604    0.0037    0.0173
          30    0.0012   -0.0063    0.0185    0.0168   -0.0286   -0.0277    0.0216    0.0333
          31    0.0024    0.0285   -0.0010    0.0051    0.0055   -0.0293   -0.0635   -0.0011
          32    0.0397   -0.0347    0.0493    0.0499   -0.0308   -0.0314   -0.0401   -0.0350
          33   -0.0602    0.0701   -0.1015   -0.1000    0.0996    0.0906    0.0105    0.0107
          34   -0.0114    0.0062   -0.0000   -0.0001   -0.0018   -0.0021    0.0001    0.0001
          35   -0.0001    0.0000    0.0333    0.0360   -0.0001    0.0000   -0.0554   -0.0389
          36    0.0285   -0.0249    0.0001    0.0001    0.0256    0.0288   -0.0001   -0.0001
          37    0.0025    0.0284    0.0008   -0.0052    0.0054   -0.0294    0.0637    0.0012
          38   -0.0394    0.0344    0.0488    0.0494    0.0304    0.0310   -0.0399   -0.0350
          39   -0.0603    0.0701    0.1018    0.1003    0.0997    0.0910   -0.0107   -0.0108
          40    0.0031    0.0106    0.0154    0.0087    0.0205    0.0065    0.0591    0.0158
          41   -0.1277    0.1245    0.1010    0.1010    0.0656    0.0604    0.0040    0.0175
          42    0.0007   -0.0059   -0.0180   -0.0163   -0.0283   -0.0273   -0.0215   -0.0332
          43   -0.0024    0.0285   -0.0010   -0.0051   -0.0055   -0.0293   -0.0636    0.0011
          44   -0.0397   -0.0346    0.0493   -0.0499    0.0308   -0.0315   -0.0402    0.0350
          45    0.0602    0.0700   -0.1015    0.1001   -0.0996    0.0908    0.0105   -0.0107
          46   -0.0027    0.0110   -0.0157    0.0090   -0.0207    0.0067   -0.0591    0.0159
          47   -0.1277   -0.1244    0.1008   -0.1009    0.0654   -0.0603    0.0037   -0.0173
          48   -0.0012   -0.0064    0.0185   -0.0168    0.0286   -0.0275    0.0216   -0.0333


   Root No.      33        34        35        36        37        38        39        40

                10 Ag      9 Au      9 Bu      8 Bg     10 Bu      9 Bg     10 Au     11 Ag  

                2695.8    2696.9    2700.6    2703.2    2755.0    2760.1    2764.0    2765.5
  
           1   -0.0002    0.0004    0.0001    0.0004    0.0026   -0.0033   -0.0018   -0.0015
           2   -0.0058    0.0059    0.0058    0.0061    0.0077   -0.0086   -0.0091   -0.0072
           3    0.0114   -0.0131   -0.0110   -0.0132    0.0008   -0.0041   -0.0034    0.0004
           4    0.0003   -0.0005    0.0001    0.0004    0.0027   -0.0033    0.0018    0.0016
           5   -0.0058    0.0059   -0.0058   -0.0061   -0.0077    0.0086   -0.0091   -0.0072
           6   -0.0114    0.0131   -0.0111   -0.0132    0.0007   -0.0041    0.0033   -0.0004
           7    0.0002    0.0004    0.0001   -0.0004    0.0026    0.0033   -0.0018    0.0015
           8    0.0058    0.0059    0.0058   -0.0061    0.0077    0.0086   -0.0091    0.0072
           9   -0.0114   -0.0131   -0.0111    0.0132    0.0009    0.0041   -0.0034   -0.0004
          10   -0.0003   -0.0005    0.0001   -0.0004    0.0027    0.0033    0.0018   -0.0016
          11    0.0058    0.0059   -0.0058    0.0061   -0.0077   -0.0086   -0.0091    0.0072
          12    0.0114    0.0132   -0.0111    0.0132    0.0008    0.0041    0.0033    0.0004
          13    0.0006    0.0000   -0.0010   -0.0000    0.0019    0.0000    0.0000   -0.0029
          14    0.0000    0.0008   -0.0000    0.0012    0.0000   -0.0023   -0.0022   -0.0000
          15   -0.0021    0.0000    0.0032   -0.0000   -0.0078    0.0000    0.0000    0.0111
          16   -0.0006   -0.0000   -0.0010    0.0000    0.0019   -0.0000   -0.0000    0.0029
          17   -0.0000    0.0008   -0.0000   -0.0012    0.0000    0.0023   -0.0022    0.0000
          18    0.0021   -0.0000    0.0032    0.0000   -0.0078    0.0000   -0.0000   -0.0111
          19   -0.0119    0.0000    0.0148   -0.0000   -0.0246    0.0000    0.0000    0.0345
          20   -0.0001    0.0019    0.0002    0.0018   -0.0003    0.0011    0.0012    0.0004
          21    0.0513    0.0000   -0.0635    0.0000    0.1078   -0.0000    0.0000   -0.1511
          22    0.0187   -0.0208   -0.0192   -0.0222   -0.0212    0.0230    0.0253    0.0204
          23    0.0835   -0.0934   -0.0854   -0.0992   -0.0978    0.1079    0.1136    0.0919
          24   -0.0378    0.0423    0.0392    0.0455    0.0517   -0.0583   -0.0609   -0.0482
          25   -0.0166    0.0186    0.0167    0.0191   -0.0091    0.0154    0.0140    0.0070
          26   -0.0157    0.0173    0.0146    0.0168   -0.0034    0.0084    0.0074    0.0017
          27   -0.1140    0.1271    0.1050    0.1199   -0.0692    0.1121    0.1059    0.0532
          28    0.0167   -0.0187    0.0167    0.0191   -0.0092    0.0154   -0.0141   -0.0070
          29   -0.0161    0.0178   -0.0150   -0.0172    0.0036   -0.0089    0.0078    0.0020
          30    0.1139   -0.1270    0.1049    0.1198   -0.0691    0.1121   -0.1059   -0.0531
          31   -0.0189    0.0211   -0.0195   -0.0225   -0.0215    0.0233   -0.0256   -0.0207
          32    0.0833   -0.0932    0.0852    0.0989    0.0975   -0.1076    0.1132    0.0916
          33    0.0381   -0.0427    0.0395    0.0459    0.0522   -0.0588    0.0614    0.0486
          34    0.0119   -0.0000    0.0148    0.0000   -0.0245    0.0000   -0.0000   -0.0345
          35    0.0001    0.0019    0.0002   -0.0018   -0.0002   -0.0011    0.0012   -0.0004
          36   -0.0513   -0.0000   -0.0635   -0.0000    0.1078   -0.0000   -0.0000    0.1511
          37   -0.0187   -0.0208   -0.0192    0.0222   -0.0212   -0.0230    0.0253   -0.0204
          38   -0.0835   -0.0934   -0.0854    0.0992   -0.0979   -0.1078    0.1136   -0.0919
          39    0.0378    0.0423    0.0391   -0.0455    0.0519    0.0582   -0.0609    0.0481
          40    0.0166    0.0186    0.0167   -0.0191   -0.0091   -0.0154    0.0141   -0.0070
          41    0.0157    0.0173    0.0146   -0.0168   -0.0034   -0.0084    0.0074   -0.0017
          42    0.1140    0.1271    0.1050   -0.1199   -0.0691   -0.1121    0.1059   -0.0531
          43    0.0189    0.0211   -0.0195    0.0225   -0.0215   -0.0233   -0.0256    0.0207
          44   -0.0833   -0.0932    0.0852   -0.0989    0.0976    0.1075    0.1133   -0.0916
          45   -0.0381   -0.0427    0.0395   -0.0460    0.0523    0.0588    0.0614   -0.0486
          46   -0.0167   -0.0187    0.0167   -0.0191   -0.0091   -0.0154   -0.0141    0.0070
          47    0.0161    0.0178   -0.0151    0.0172    0.0037    0.0089    0.0078   -0.0020
          48   -0.1139   -0.1270    0.1049   -0.1198   -0.0691   -0.1121   -0.1058    0.0531


   Root No.      41        42

                11 Bu     12 Ag  

                2768.9    2773.1
  
           1   -0.0013    0.0007
           2   -0.0038    0.0058
           3   -0.0066    0.0050
           4   -0.0014   -0.0007
           5    0.0038    0.0058
           6   -0.0066   -0.0050
           7   -0.0013   -0.0007
           8   -0.0037   -0.0058
           9   -0.0067   -0.0050
          10   -0.0014    0.0007
          11    0.0038   -0.0058
          12   -0.0066    0.0050
          13    0.0029   -0.0024
          14    0.0000   -0.0000
          15   -0.0150    0.0116
          16    0.0029    0.0024
          17    0.0000    0.0000
          18   -0.0150   -0.0116
          19   -0.0438    0.0340
          20   -0.0005    0.0004
          21    0.1933   -0.1494
          22    0.0077   -0.0134
          23    0.0349   -0.0599
          24   -0.0208    0.0335
          25    0.0130   -0.0115
          26    0.0100   -0.0084
          27    0.0927   -0.0887
          28    0.0130    0.0116
          29   -0.0104   -0.0088
          30    0.0927    0.0886
          31    0.0078    0.0136
          32   -0.0348   -0.0597
          33   -0.0210   -0.0338
          34   -0.0438   -0.0340
          35   -0.0005   -0.0004
          36    0.1932    0.1494
          37    0.0077    0.0134
          38    0.0349    0.0599
          39   -0.0208   -0.0335
          40    0.0130    0.0115
          41    0.0100    0.0084
          42    0.0927    0.0887
          43    0.0078   -0.0136
          44   -0.0348    0.0597
          45   -0.0210    0.0338
          46    0.0130   -0.0116
          47   -0.0104    0.0088
          48    0.0926   -0.0886


           MASS-WEIGHTED COORDINATE ANALYSIS (NORMAL COORDINATES)


   Root No.       1         2         3         4         5         6         7         8

                 1 Au      2 Au      1 Bu      1 Ag      1 Bg      2 Ag      3 Ag      2 Bu  

                -903.6     179.5     359.9     364.9     365.9     432.9     489.7     509.0
  
           1    0.4726    0.0128   -0.1571   -0.4393    0.3198    0.0979   -0.1780   -0.1288
           2   -0.0760    0.0606    0.1066    0.0545    0.2904   -0.1438   -0.2077   -0.2174
           3   -0.0445   -0.3667   -0.1117    0.0553   -0.0244    0.2139   -0.0397    0.0513
           4   -0.4723   -0.0131   -0.1567    0.4389    0.3204   -0.0975    0.1786   -0.1295
           5   -0.0777    0.0588   -0.1066    0.0555   -0.2893   -0.1432   -0.2074    0.2167
           6    0.0442    0.3669   -0.1121   -0.0550   -0.0257   -0.2143    0.0385    0.0522
           7    0.4725    0.0129   -0.1568    0.4393   -0.3198   -0.0979    0.1780   -0.1285
           8   -0.0759    0.0605    0.1063   -0.0545   -0.2904    0.1438    0.2077   -0.2176
           9   -0.0455   -0.3666   -0.1117   -0.0553    0.0244   -0.2139    0.0397    0.0519
          10   -0.4723   -0.0130   -0.1564   -0.4389   -0.3203    0.0975   -0.1786   -0.1292
          11   -0.0777    0.0588   -0.1063   -0.0555    0.2893    0.1432    0.2074    0.2169
          12    0.0451    0.3669   -0.1123    0.0551    0.0257    0.2143   -0.0385    0.0530
          13    0.0001    0.0002    0.3176   -0.3001   -0.0002   -0.2814    0.2948    0.2353
          14    0.1545   -0.1363    0.0001   -0.0003    0.2202    0.0001    0.0011    0.0009
          15    0.0010   -0.0003    0.2735    0.0729    0.0005   -0.1824   -0.2895   -0.2288
          16   -0.0006    0.0002    0.3176    0.3001    0.0002    0.2814   -0.2948    0.2353
          17    0.1546   -0.1364   -0.0003    0.0003   -0.2202   -0.0001   -0.0011    0.0009
          18   -0.0003   -0.0003    0.2736   -0.0729   -0.0005    0.1824    0.2895   -0.2290
          19    0.0003    0.0002    0.3277   -0.0534   -0.0000   -0.2876    0.2863    0.2728
          20   -0.0182   -0.1376    0.0003   -0.0000    0.0412   -0.0002    0.0005    0.0004
          21    0.0002   -0.0003    0.1249    0.0339    0.0001   -0.0899   -0.0270   -0.0070
          22   -0.0094   -0.0526   -0.0598   -0.0238    0.0775    0.0340   -0.0175    0.0185
          23    0.0119   -0.0320   -0.0079   -0.0004    0.0726    0.0142   -0.0014    0.0039
          24    0.0031   -0.2221   -0.1153    0.0087   -0.0353    0.1828    0.1094    0.1716
          25   -0.0805    0.0821   -0.1115   -0.0140    0.1113    0.0081   -0.0577   -0.1156
          26   -0.0046    0.1310    0.1477    0.0233    0.1126   -0.1787   -0.1765   -0.2167
          27    0.0078   -0.1263   -0.0326    0.0097   -0.0141    0.0751    0.0081    0.0463
          28    0.0806   -0.0825   -0.1110    0.0139    0.1116   -0.0076    0.0583   -0.1163
          29   -0.0043    0.1301   -0.1479    0.0232   -0.1122   -0.1783   -0.1764    0.2161
          30   -0.0078    0.1269   -0.0332   -0.0096   -0.0146   -0.0759   -0.0090    0.0472
          31    0.0094    0.0527   -0.0598    0.0236    0.0778   -0.0341    0.0175    0.0185
          32    0.0120   -0.0329    0.0082   -0.0005   -0.0722    0.0149   -0.0008   -0.0046
          33   -0.0030    0.2220   -0.1152   -0.0088   -0.0356   -0.1826   -0.1095    0.1716
          34   -0.0002    0.0002    0.3278    0.0534    0.0000    0.2876   -0.2863    0.2728
          35   -0.0182   -0.1376    0.0002    0.0000   -0.0412    0.0002   -0.0005    0.0005
          36   -0.0003   -0.0003    0.1249   -0.0339   -0.0001    0.0899    0.0270   -0.0070
          37   -0.0096   -0.0526   -0.0596    0.0238   -0.0775   -0.0340    0.0175    0.0187
          38    0.0119   -0.0320   -0.0080    0.0004   -0.0726   -0.0142    0.0014    0.0039
          39    0.0027   -0.2221   -0.1153   -0.0087    0.0353   -0.1828   -0.1094    0.1720
          40   -0.0802    0.0821   -0.1114    0.0140   -0.1113   -0.0081    0.0577   -0.1155
          41   -0.0046    0.1310    0.1476   -0.0233   -0.1126    0.1787    0.1765   -0.2169
          42    0.0075   -0.1263   -0.0326   -0.0097    0.0141   -0.0751   -0.0081    0.0465
          43    0.0095    0.0527   -0.0597   -0.0236   -0.0777    0.0341   -0.0175    0.0187
          44    0.0120   -0.0329    0.0083    0.0005    0.0722   -0.0149    0.0008   -0.0046
          45   -0.0027    0.2220   -0.1153    0.0088    0.0356    0.1826    0.1095    0.1720
          46    0.0802   -0.0825   -0.1109   -0.0139   -0.1116    0.0076   -0.0583   -0.1162
          47   -0.0043    0.1302   -0.1479   -0.0232    0.1122    0.1783    0.1764    0.2164
          48   -0.0075    0.1269   -0.0333    0.0096    0.0146    0.0759    0.0090    0.0475


   Root No.       9        10        11        12        13        14        15        16

                 4 Ag      2 Bg      3 Bu      3 Au      4 Bu      4 Au      3 Bg      5 Ag  

                 848.7     859.2     859.6     927.9     981.8     984.9    1004.0    1009.7
  
           1   -0.0688    0.0023    0.0743    0.0306    0.0399    0.0350   -0.0186    0.0831
           2   -0.1338    0.0756    0.1065   -0.0792   -0.0366   -0.0056   -0.0381   -0.0725
           3    0.0912   -0.1618   -0.0671    0.1879    0.0786    0.1591    0.1318    0.1197
           4    0.0692    0.0026    0.0746   -0.0304    0.0398   -0.0350   -0.0187   -0.0828
           5   -0.1332   -0.0748   -0.1060   -0.0784    0.0364   -0.0050    0.0375   -0.0722
           6   -0.0917   -0.1622   -0.0675   -0.1883    0.0788   -0.1592    0.1319   -0.1199
           7    0.0688   -0.0024    0.0744    0.0306    0.0398    0.0350    0.0186   -0.0831
           8    0.1338   -0.0756    0.1064   -0.0792   -0.0365   -0.0056    0.0381    0.0725
           9   -0.0912    0.1619   -0.0671    0.1881    0.0787    0.1587   -0.1318   -0.1197
          10   -0.0692   -0.0026    0.0748   -0.0304    0.0397   -0.0350    0.0187    0.0828
          11    0.1332    0.0749   -0.1059   -0.0784    0.0363   -0.0050   -0.0375    0.0722
          12    0.0917    0.1622   -0.0677   -0.1885    0.0789   -0.1587   -0.1319    0.1199
          13    0.2856   -0.0000   -0.3069   -0.0002   -0.2731    0.0003    0.0000   -0.2871
          14    0.0003    0.0547   -0.0005    0.0602   -0.0002   -0.0872   -0.0001   -0.0003
          15    0.0705    0.0001    0.0571    0.0000   -0.1233    0.0001    0.0000   -0.0504
          16   -0.2856    0.0002   -0.3069   -0.0000   -0.2731   -0.0000   -0.0000    0.2871
          17   -0.0003   -0.0547   -0.0007    0.0602   -0.0001   -0.0872    0.0001    0.0003
          18   -0.0705   -0.0001    0.0572    0.0003   -0.1233   -0.0005   -0.0000    0.0504
          19   -0.3226    0.0000    0.2478   -0.0003    0.4663   -0.0001   -0.0002    0.4225
          20   -0.0003   -0.0542    0.0002    0.1260    0.0005    0.1139    0.1564    0.0005
          21   -0.0702   -0.0001    0.0845    0.0002    0.0921    0.0004    0.0004    0.1032
          22   -0.2884    0.2617    0.3278   -0.3344   -0.1355    0.2770    0.2176   -0.2074
          23   -0.0268    0.0715    0.0004   -0.0324   -0.0241   -0.1636   -0.1537   -0.0223
          24   -0.0879    0.1888    0.0706   -0.1409   -0.0813   -0.1749   -0.1674   -0.0746
          25    0.1640   -0.2736   -0.1793    0.2145    0.2363   -0.0527   -0.2179    0.1921
          26    0.0510   -0.1736   -0.0250    0.1378    0.0331    0.2761    0.2669    0.0225
          27   -0.0117    0.0283    0.0211   -0.0043   -0.0237    0.0107    0.0300   -0.0033
          28   -0.1641   -0.2741   -0.1794   -0.2149    0.2364    0.0518   -0.2170   -0.1921
          29    0.0504    0.1726    0.0244    0.1371   -0.0322    0.2763   -0.2678    0.0220
          30    0.0120    0.0291    0.0212    0.0049   -0.0239   -0.0094    0.0287    0.0034
          31    0.2885    0.2619    0.3278    0.3345   -0.1355   -0.2765    0.2171    0.2075
          32   -0.0262   -0.0715    0.0004   -0.0320    0.0240   -0.1653    0.1552   -0.0219
          33    0.0878    0.1885    0.0706    0.1408   -0.0812    0.1741   -0.1667    0.0745
          34    0.3226   -0.0001    0.2478   -0.0002    0.4663   -0.0003    0.0002   -0.4225
          35    0.0003    0.0542    0.0002    0.1260    0.0006    0.1139   -0.1564   -0.0005
          36    0.0702    0.0001    0.0845    0.0003    0.0921    0.0002   -0.0004   -0.1032
          37    0.2884   -0.2619    0.3278   -0.3343   -0.1355    0.2770   -0.2176    0.2074
          38    0.0268   -0.0715    0.0003   -0.0324   -0.0240   -0.1636    0.1537    0.0223
          39    0.0879   -0.1889    0.0705   -0.1409   -0.0813   -0.1750    0.1674    0.0746
          40   -0.1640    0.2737   -0.1792    0.2144    0.2363   -0.0525    0.2179   -0.1921
          41   -0.0510    0.1736   -0.0250    0.1378    0.0331    0.2761   -0.2669   -0.0225
          42    0.0117   -0.0283    0.0211   -0.0042   -0.0237    0.0105   -0.0300    0.0033
          43   -0.2885   -0.2621    0.3278    0.3344   -0.1356   -0.2764   -0.2171   -0.2075
          44    0.0262    0.0715    0.0004   -0.0320    0.0240   -0.1653   -0.1552    0.0219
          45   -0.0878   -0.1886    0.0705    0.1407   -0.0812    0.1743    0.1667   -0.0745
          46    0.1641    0.2742   -0.1792   -0.2148    0.2364    0.0517    0.2170    0.1921
          47   -0.0504   -0.1726    0.0243    0.1371   -0.0322    0.2763    0.2678   -0.0220
          48   -0.0120   -0.0291    0.0212    0.0048   -0.0238   -0.0093   -0.0287   -0.0034


   Root No.      17        18        19        20        21        22        23        24

                 5 Au      5 Bu      6 Ag      7 Ag      4 Bg      6 Bu      6 Au      5 Bg  

                1032.4    1061.8    1072.0    1141.8    1205.2    1208.7    1309.4    1313.5
  
           1    0.1095    0.0344   -0.0009   -0.0598    0.2149   -0.2057   -0.0027    0.0519
           2    0.0927    0.2652   -0.2535   -0.0063   -0.0347    0.0135   -0.0493   -0.0386
           3    0.0478   -0.0916    0.0776    0.0577    0.0192   -0.0710   -0.1378   -0.1223
           4   -0.1099    0.0353    0.0016    0.0601    0.2148   -0.2056    0.0029    0.0518
           5    0.0925   -0.2646   -0.2533   -0.0057    0.0353   -0.0138   -0.0499    0.0393
           6   -0.0474   -0.0928   -0.0788   -0.0576    0.0195   -0.0710    0.1376   -0.1221
           7    0.1096    0.0342    0.0009    0.0598   -0.2149   -0.2058   -0.0028   -0.0519
           8    0.0927    0.2653    0.2535    0.0063    0.0347    0.0135   -0.0493    0.0386
           9    0.0471   -0.0925   -0.0776   -0.0577   -0.0192   -0.0707   -0.1379    0.1223
          10   -0.1098    0.0350   -0.0016   -0.0601   -0.2148   -0.2057    0.0029   -0.0518
          11    0.0926   -0.2648    0.2533    0.0057   -0.0353   -0.0139   -0.0499   -0.0393
          12   -0.0466   -0.0937    0.0788    0.0576   -0.0195   -0.0708    0.1377    0.1221
          13    0.0004   -0.0075   -0.0674    0.1052    0.0000    0.0870    0.0000    0.0001
          14   -0.1158    0.0000    0.0001    0.0001   -0.0348   -0.0003   -0.0009   -0.0427
          15    0.0002    0.0414   -0.0711   -0.0102   -0.0001    0.1380    0.0000   -0.0001
          16   -0.0001   -0.0075    0.0674   -0.1052   -0.0000    0.0870   -0.0000   -0.0001
          17   -0.1159   -0.0002   -0.0001   -0.0001    0.0348   -0.0001   -0.0008    0.0427
          18   -0.0008    0.0414    0.0711    0.0102    0.0001    0.1381   -0.0000    0.0001
          19    0.0003    0.0460   -0.0146    0.0092    0.0001   -0.0382   -0.0010   -0.0010
          20   -0.0576    0.0002    0.0000   -0.0000   -0.0759   -0.0002    0.6444    0.6473
          21    0.0000    0.0237   -0.0221   -0.0025   -0.0002    0.0230    0.0015    0.0015
          22    0.1851   -0.1771    0.1347    0.3036   -0.3034    0.2391    0.0399   -0.0477
          23    0.0113    0.2350   -0.2153   -0.0789    0.0511   -0.0231   -0.0244   -0.0053
          24    0.0694    0.2339   -0.2226   -0.0066   -0.0259    0.0564   -0.0357   -0.0436
          25    0.4104    0.0472   -0.1681    0.3709   -0.3162    0.3402    0.0285   -0.0062
          26   -0.1014   -0.1561    0.1793    0.0020    0.0189   -0.0881   -0.1249   -0.1253
          27   -0.0282    0.0032    0.0068   -0.0387    0.0557   -0.0618   -0.0327   -0.0226
          28   -0.4101    0.0467    0.1675   -0.3708   -0.3161    0.3399   -0.0280   -0.0066
          29   -0.1029    0.1563    0.1798    0.0007   -0.0202    0.0894   -0.1251    0.1253
          30    0.0278    0.0039   -0.0061    0.0387    0.0556   -0.0614    0.0322   -0.0221
          31   -0.1851   -0.1764   -0.1341   -0.3032   -0.3032    0.2390   -0.0398   -0.0477
          32    0.0110   -0.2366   -0.2168   -0.0799   -0.0519    0.0236   -0.0247    0.0054
          33   -0.0694    0.2328    0.2216    0.0062   -0.0261    0.0565    0.0356   -0.0436
          34   -0.0001    0.0461    0.0146   -0.0092   -0.0001   -0.0382   -0.0011    0.0010
          35   -0.0576   -0.0001   -0.0000    0.0000    0.0759   -0.0000    0.6444   -0.6473
          36   -0.0003    0.0237    0.0221    0.0025    0.0002    0.0231    0.0014   -0.0015
          37    0.1850   -0.1772   -0.1347   -0.3036    0.3034    0.2390    0.0399    0.0477
          38    0.0113    0.2349    0.2153    0.0789   -0.0511   -0.0230   -0.0244    0.0053
          39    0.0692    0.2334    0.2226    0.0066    0.0259    0.0565   -0.0358    0.0436
          40    0.4107    0.0471    0.1681   -0.3709    0.3162    0.3402    0.0285    0.0062
          41   -0.1015   -0.1558   -0.1793   -0.0020   -0.0189   -0.0881   -0.1248    0.1253
          42   -0.0285    0.0029   -0.0068    0.0387   -0.0557   -0.0617   -0.0328    0.0226
          43   -0.1850   -0.1765    0.1341    0.3032    0.3032    0.2390   -0.0399    0.0477
          44    0.0110   -0.2366    0.2168    0.0799    0.0519    0.0235   -0.0247   -0.0054
          45   -0.0691    0.2324   -0.2216   -0.0062    0.0261    0.0566    0.0356    0.0436
          46   -0.4103    0.0467   -0.1675    0.3708    0.3161    0.3399   -0.0281    0.0066
          47   -0.1029    0.1560   -0.1798   -0.0007    0.0202    0.0895   -0.1251   -0.1254
          48    0.0280    0.0037    0.0061   -0.0387   -0.0556   -0.0613    0.0322    0.0221


   Root No.      25        26        27        28        29        30        31        32

                 8 Ag      7 Bu      7 Au      6 Bg      9 Ag      8 Bu      8 Au      7 Bg  

                1327.0    1337.6    1372.1    1375.4    1436.7    1462.1    1519.6    1667.4
  
           1   -0.0109   -0.0737   -0.0052   -0.0034   -0.0137    0.0746   -0.1094   -0.0458
           2    0.0904    0.0632   -0.1102    0.1029    0.2723   -0.3028   -0.2306    0.2758
           3    0.1327    0.0998   -0.0859    0.0731    0.1958   -0.1896   -0.0787    0.1118
           4    0.0107   -0.0735    0.0055   -0.0031    0.0129    0.0736    0.1103   -0.0450
           5    0.0911   -0.0639   -0.1106   -0.1033    0.2733    0.3039   -0.2305   -0.2764
           6   -0.1323    0.0994    0.0854    0.0726   -0.1945   -0.1881    0.0778    0.1106
           7    0.0109   -0.0737   -0.0051    0.0034    0.0137    0.0746   -0.1095    0.0458
           8   -0.0904    0.0632   -0.1102   -0.1029   -0.2723   -0.3028   -0.2305   -0.2758
[...]
 TRANSITION DIPOLE   0.0000         C  5 -- H  7         +24.0% ( 48.8%)    100.0%
 TRAVEL (Ang.)       0.4142         C  1 -- H  9          +7.9% ( 28.0%)     96.7%
 REDUCED MASS        0.1417         C  3 -- H 14          +7.9% ( 28.0%)     96.9%
 EFFECTIVE MASS      1.3331
 FORCE CONSTANT      0.6423

           FORCE CONSTANT IN INTERNAL COORDINATES (Millidynes/A)

    ATOM   CHEMICAL  BOND LENGTH      BOND ANGLE     TWIST ANGLE
   NUMBER   SYMBOL  FORCE CONSTANT  FORCE CONSTANT  FORCE CONSTANT

      1       C        0.000000        0.000000        0.000000
      2       C        1.630484        0.000000        0.000000
      3       C       13.085742       46.163605        0.000000
      4       C        0.642740       27.925560       11.819543
      5       C        9.910303        4.560468       15.163981
      6       C        9.910481        4.569812       15.176979
      7       H        4.276967        1.094586        0.334459
      8       H        4.177969        0.698876        0.849831
      9       H        4.152479        0.742070        0.883569
     10       H        4.152768        0.741575        0.882641
     11       H        4.177633        0.698618        0.850165
     12       H        4.276888        1.094638        0.334416
     13       H        4.176244        0.903292        0.180013
     14       H        4.153695        0.900347        0.736634
     15       H        4.175773        0.699349        0.852001
     16       H        4.154275        0.741539        0.881690
 *******************************************************************************
 ** Site#: 37037        For non-commercial use only           Version 21.153W **
 *******************************************************************************
 ** Cite this program as: MOPAC2016, Version: 21.153W, James J. P. Stewart,   **
 ** Stewart Computational Chemistry, web: HTTP://OpenMOPAC.net. Days left: 364**
 *******************************************************************************
 **                                                                           **
 **                                MOPAC2016                                  **
 **                                                                           **
 *******************************************************************************

                              PM7 CALCULATION RESULTS

 *******************************************************************************
 *  CALCULATION DONE:                                Thu Jun  3 11:12:40 2021  *
 *  IRC=N      - INTRINSIC REACTION COORDINATE  1 DEFINED
 *  OLDGEO     - PREVIOUS GEOMETRY TO BE USED
 *  RESTART    - CALCULATION RESTARTED
 *  T=         - A TIME OF 172800.0 SECONDS REQUESTED
 *  DUMP=N     - RESTART FILE WRITTEN EVERY 7200.0 SECONDS REQUESTED
 *  HTML       - WRITE HTML SCRIPT TO GENERATE ANIMATION USING JSMOL
 *             - TO DISPLAY IN PDB FORMAT, ADD "PDBOUT"
 *  X-PRIOR    - GEOMETRY CHANGES TAKE PRIORITY IN DRC
 *******************************************************************************
oldgeo IRC=1* HTML x-priority=0.2 restart
 Generate the reaction coordinate for the reaction

  ATOM    CHEMICAL      BOND LENGTH      BOND ANGLE     TWIST ANGLE 
 NUMBER    SYMBOL       (ANGSTROMS)      (DEGREES)       (DEGREES) 
   (I)                     NA:I           NB:NA:I       NC:NB:NA:I       NA    NB    NC 
     1       C          0.00000009  *    0.0000001  *    0.0000004  *     0     0     0
     2       C          1.90311644  *   -0.0000000  *   -0.0000000  *     1     0     0
     3       C          2.43393127  *   89.9169372  *    0.0000000  *     2     1     0
     4       C          1.90311644  *   90.0741571  *    0.3316072  *     3     2     1
     5       C          1.40296631  *  101.3990089  *  -28.0749744  *     1     2     3
     6       C          1.40302416  *  101.1811517  *  -27.8182255  *     2     1     3
     7       H          1.08637417  *  119.2135732  *  -97.5119013  *     5     1     2
     8       H          1.08616769  *  101.4384745  * -151.4792563  *     1     2     3
     9       H          1.08824334  *   98.0676512  *   94.4080561  *     1     2     3
    10       H          1.08798647  *   98.1399310  *   94.7062792  *     2     1     3
    11       H          1.08618223  *  101.4941277  * -151.1128800  *     2     1     3
    12       H          1.08633803  *  119.2130125  *  -97.5881232  *     6     2     1
    13       H          1.08624607  *  149.0972164  * -112.6632361  *     3     2     1
    14       H          1.08820847  *   94.6460723  *   98.3476946  *     3     2     1
    15       H          1.08641040  *  101.5287602  *  150.7789309  *     4     3     2
    16       H          1.08792721  *   97.9241631  *  -95.0871924  *     4     3     2
 


          CARTESIAN COORDINATES 

    NO.       ATOM           X           Y           Z

     1         C          0.0000      0.0000      0.0000
     2         C          1.9031      0.0000      0.0000
     3         C          1.8996      2.4339      0.0000
     4         C         -0.0035      2.4336      0.0110
     5         C         -0.2773      1.2135      0.6472
     6         C          2.1752      1.2173     -0.6423
     7         H         -0.5036      1.2080      1.7098
     8         H         -0.2154     -0.9354      0.5083
     9         H         -0.1527     -0.0828     -1.0743
    10         H          2.0572     -0.0884      1.0734
    11         H          2.1196     -0.9320     -0.5142
    12         H          2.4008      1.2173     -1.7050
    13         H          2.1132      3.3663     -0.5148
    14         H          2.0569      2.5223      1.0731
    15         H         -0.2178      3.3626      0.5319
    16         H         -0.1597      2.5291     -1.0614

 General Reference for PM7:
 "Optimization of Parameters for Semiempirical Methods VI: More Modifications to the 
 NDDO Approximations and Re-optimization of Parameters", J. J. P. Stewart, J. Mol. Mod., 1:32, 19 (2013)
 https://link.springer.com/article/10.1007/s00894-012-1667-x

           Empirical Formula: C6 H10  =    16 atoms



      MOLECULAR POINT GROUP   :   C2h 


      RHF CALCULATION, NO. OF DOUBLY OCCUPIED LEVELS = 17


          MOLECULAR WEIGHT =   82.14


          ESTIMATED TIME TO COMPLETE CALCULATION =        0.00 SECONDS

          TIME USED UP TO RESTART =                  0.14

    FOR POINT-GROUP C2h  THERE ARE   4 UNIQUE SYMMETRY FUNCTIONS.

           INITIAL VELOCITY IN DRC (Angstroms/Femtosecond)
         0.12813        -0.02060        -0.01207
        -0.12804        -0.02106         0.01198
         0.12811        -0.02059        -0.01234
        -0.12806        -0.02107         0.01223
         0.00002         0.04190         0.00026
        -0.00016         0.04191        -0.00007
         0.00026        -0.01700         0.00016
        -0.00878         0.01116         0.00288
        -0.07537        -0.00430         0.00733
         0.07540        -0.00400        -0.00734
         0.00878         0.01122        -0.00282
        -0.00021        -0.01699        -0.00024
        -0.00895         0.01118         0.00255
        -0.07510        -0.00427         0.00702
         0.00888         0.01120        -0.00252
         0.07509        -0.00402        -0.00704

 GEOMETRY PRIORITY, STEP = 0.2000 ANGSTROMS



     POINT   POTENTIAL  +  ENERGY LOST   =   TOTAL      ERROR    REF%   MOVEMENT
       1      51.32210      0.00000         51.32210   0.00000     1   %  0.0000
      72      50.13634      1.03769         51.17403  -0.07380     2   %  0.2000
     141      47.00612      4.15439         51.16052  -0.08732     3   %  0.3976
     158      43.09459      8.06499         51.15958  -0.08825     4   %  0.5841
     195      38.68144     12.48651         51.16796  -0.07987     5   %  0.7871
     239      34.97518     16.20155         51.17673  -0.07111     6   %  0.9777
     284      32.00974     19.17589         51.18563  -0.06221     7   %  1.1654
     325      29.73083     21.46300         51.19383  -0.05400     8   %  1.3496
     362      27.95796     23.24305         51.20101  -0.04682     9   %  1.5260
     394      26.52492     24.68245         51.20737  -0.04046    10   %  1.6926
     423      25.34157     25.87152         51.21310  -0.03474    11   %  1.8509
     449      24.35423     26.86406         51.21829  -0.02955    12   %  2.0038
     473      23.52300     27.70002         51.22302  -0.02481    13   %  2.1544
     496      22.81844     28.40893         51.22736  -0.02047    14   %  2.3054
     516      22.21932     29.01204         51.23136  -0.01647    15   %  2.4586
     535      21.70949     29.52554         51.23503  -0.01280    16   %  2.6147
     552      21.27560     29.96279         51.23839  -0.00944    17   %  2.7727
     567      20.90604     30.33540         51.24144  -0.00639    18   %  2.9312
     582      20.59056     30.65365         51.24422  -0.00362    19   %  3.0896
     595      20.32008     30.92665         51.24673  -0.00110    20   %  3.2485
     606      20.08665     31.16237         51.24902   0.00118    21   %  3.4089
     620      19.88345     31.36838         51.25183   0.00400    22   %  3.5718
     633      19.71253     31.54249         51.25503   0.00720    23   %  3.7297
     650      19.54598     31.71393         51.25991   0.01208    24   %  3.9064
     666      19.40424     31.85970         51.26394   0.01611    25   %  4.0768
     680      19.27606     31.99207         51.26813   0.02030    26   %  4.2498
     700      19.15864     32.11852         51.27716   0.02933    27   %  4.4248
     717      19.05154     32.23199         51.28353   0.03570    28   %  4.6013
     740      18.95303     32.34508         51.29811   0.05027    29   %  4.7798
     764      18.86219     32.45442         51.31662   0.06878    30   %  4.9600
     790      18.77820     32.56002         51.33823   0.09040    31   %  5.1418
     819      18.70047     32.66425         51.36472   0.11689    32   %  5.3251
     849      18.62849     32.76918         51.39767   0.14983    33   %  5.5098
     885      18.56194     32.87939         51.44133   0.19350    34   %  5.6953
     924      18.50018     32.98854         51.48872   0.24088    35   %  5.8819
     961      18.44188     33.08877         51.53065   0.28282    36   %  6.0690
    1007      18.39019     33.24741         51.63760   0.38977    37   %  6.2544
    1057      18.34054     33.37226         51.71280   0.46497    38   %  6.4418
    1106      18.29722     33.51582         51.81304   0.56521    39   %  6.6162
    1176      18.25168     33.67567         51.92735   0.67952    40   %  6.8084
    1248      18.21205     33.82465         52.03670   0.78887    41   %  6.9858
    1325      18.17485     33.98336         52.15822   0.91038    42   %  7.1573
    1404      18.14018     34.16424         52.30442   1.05659    43   %  7.3245
    1496      18.10719     34.33323         52.44042   1.19259    44   %  7.4777
    1602      18.07360     34.56477         52.63837   1.39054    45   %  7.6329
    1706      18.04272     34.77303         52.81575   1.56792    46   %  7.7760
    1813      18.01280     34.96029         52.97309   1.72526    47   %  7.9103
    1926      17.98242     35.17142         53.15384   1.90601    48   %  8.0366
    2040      17.95744     35.41924         53.37668   2.12885    49   %  8.1544
    2157      17.92991     35.62482         53.55472   2.30689    50   %  8.2676
    2278      17.90599     35.86534         53.77133   2.52350    51   %  8.3757
    2386      17.89126     36.04123         53.93249   2.68466    52   %  8.4811
    2514      17.85842     36.33847         54.19690   2.94907    53   %  8.5864
    2633      17.83569     36.56176         54.39745   3.14961    54   %  8.6917
    2757      17.81387     36.80339         54.61726   3.36943    55   %  8.7977
    2877      17.79321     36.99877         54.79198   3.54415    56   %  8.9029
    2999      17.77234     37.28173         55.05407   3.80623    57   %  9.0131
    3124      17.75246     37.55207         55.30453   4.05670    58   %  9.1252
    3250      17.73298     37.78006         55.51304   4.26521    59   %  9.2379
    3388      17.71368     38.01935         55.73303   4.48520    60   %  9.3530
    3523      17.69515     38.25200         55.94715   4.69932    61   %  9.4700
    3658      17.67712     38.50681         56.18393   4.93610    62   %  9.5893


 IRC CALCULATION COMPLETE 
           INITIAL VELOCITY IN DRC (Angstroms/Femtosecond)
        -0.12813         0.02060         0.01207
         0.12804         0.02106        -0.01198
        -0.12811         0.02059         0.01234
         0.12806         0.02107        -0.01223
        -0.00002        -0.04190        -0.00026
         0.00016        -0.04191         0.00007
        -0.00026         0.01700        -0.00016
         0.00878        -0.01116        -0.00288
         0.07537         0.00430        -0.00733
        -0.07540         0.00400         0.00734
        -0.00878        -0.01122         0.00282
         0.00021         0.01699         0.00024
         0.00895        -0.01118        -0.00255
         0.07510         0.00427        -0.00702
        -0.00888        -0.01120         0.00252
        -0.07509         0.00402         0.00704

 GEOMETRY PRIORITY, STEP = 0.2000 ANGSTROMS



     POINT   POTENTIAL  +  ENERGY LOST   =   TOTAL      ERROR    REF%   MOVEMENT
       1      51.32210      0.00000         51.32210   0.00000     1   %  0.0000
      73      50.13476      1.03632         51.17108  -0.07350     2   %  0.2000
     148      46.98791      4.16855         51.15645  -0.08813     3   %  0.3979
     170      42.85595      8.30119         51.15714  -0.08744     4   %  0.5942
     205      38.63359     12.53054         51.16414  -0.08045     5   %  0.7886
     246      34.92202     16.25052         51.17253  -0.07205     6   %  0.9798
     290      31.95885     19.22223         51.18108  -0.06351     7   %  1.1679
     329      29.68868     21.50026         51.18893  -0.05565     8   %  1.3519
     364      27.92484     23.27093         51.19577  -0.04882     9   %  1.5275
     395      26.49847     24.70333         51.20180  -0.04279    10   %  1.6932
     422      25.32092     25.88626         51.20719  -0.03740    11   %  1.8508
     447      24.33944     26.87257         51.21202  -0.03257    12   %  2.0033
     469      23.51444     27.70193         51.21637  -0.02822    13   %  2.1539
     489      22.81639     28.40391         51.22030  -0.02429    14   %  2.3054
     507      22.22364     29.00022         51.22386  -0.02073    15   %  2.4597
     524      21.71950     29.50756         51.22706  -0.01752    16   %  2.6172
     538      21.29028     29.93965         51.22993  -0.01465    17   %  2.7766
     552      20.92430     30.30819         51.23248  -0.01210    18   %  2.9367
     563      20.61129     30.62344         51.23474  -0.00985    19   %  3.0970
     574      20.34237     30.89435         51.23672  -0.00786    20   %  3.2582
     586      20.10944     31.13005         51.23949  -0.00510    21   %  3.4211
     598      19.90701     31.33548         51.24249  -0.00210    22   %  3.5859
     611      19.72825     31.51787         51.24611   0.00153    23   %  3.7534
     625      19.57741     31.67376         51.25118   0.00659    24   %  3.9140
     639      19.43042     31.83092         51.26134   0.01676    25   %  4.0921
     662      19.29582     31.98197         51.27779   0.03320    26   %  4.2701
     678      19.17720     32.11345         51.29066   0.04607    27   %  4.4461
     700      19.07001     32.25401         51.32402   0.07944    28   %  4.6214
     721      18.97293     32.37103         51.34397   0.09938    29   %  4.7949
     748      18.87726     32.50358         51.38084   0.13626    30   %  4.9815
     776      18.79083     32.62055         51.41137   0.16679    31   %  5.1654
     806      18.71204     32.75260         51.46464   0.22006    32   %  5.3478
     837      18.63849     32.89295         51.53144   0.28686    33   %  5.5325
     868      18.56864     32.99475         51.56339   0.31881    34   %  5.7170
     911      18.50675     33.12456         51.63131   0.38673    35   %  5.9044
     956      18.44805     33.23906         51.68710   0.44252    36   %  6.0902
     990      18.38993     33.35702         51.74695   0.50237    37   %  6.2766
    1050      18.34388     33.50785         51.85173   0.60715    38   %  6.4559
    1111      18.29617     33.63925         51.93542   0.69084    39   %  6.6397
    1173      18.25124     33.77882         52.03007   0.78548    40   %  6.8209
    1236      18.20850     33.95771         52.16621   0.92162    41   %  6.9964
    1301      18.17233     34.19425         52.36658   1.12199    42   %  7.1647
    1389      18.13527     34.36956         52.50483   1.26025    43   %  7.3276
    1480      18.10039     34.53853         52.63892   1.39433    44   %  7.4844
    1572      18.06772     34.69593         52.76365   1.51907    45   %  7.6311
    1674      18.03510     34.90330         52.93840   1.69382    46   %  7.7742
    1776      18.00477     35.07445         53.07922   1.83463    47   %  7.9086
    1891      17.97619     35.27070         53.24689   2.00230    48   %  8.0330
    1995      17.94771     35.47065         53.41836   2.17377    49   %  8.1532
    2109      17.92158     35.67233         53.59391   2.34933    50   %  8.2678
    2213      17.89745     35.84358         53.74103   2.49645    51   %  8.3748
    2327      17.87279     36.02821         53.90100   2.65641    52   %  8.4851
    2445      17.85221     36.20355         54.05576   2.81117    53   %  8.5980
    2562      17.82625     36.40538         54.23162   2.98704    54   %  8.7065
    2678      17.80371     36.61461         54.41831   3.17373    55   %  8.8168
    2794      17.78243     36.81481         54.59724   3.35266    56   %  8.9284
    2912      17.76183     37.00742         54.76925   3.52467    57   %  9.0416
    3029      17.74156     37.20568         54.94724   3.70266    58   %  9.1565
    3156      17.72252     37.39251         55.11503   3.87044    59   %  9.2726
    3277      17.70245     37.56447         55.26692   4.02234    60   %  9.3914
    3408      17.68537     37.76822         55.45358   4.20900    61   %  9.5106
    3542      17.66747     37.95130         55.61877   4.37418    62   %  9.6328
    3668      17.65002     38.18703         55.83704   4.59246    63   %  9.7572
    3802      17.63305     38.41912         56.05217   4.80759    64   %  9.8834
    3933      17.61665     38.64834         56.26499   5.02040    65   % 10.0111
    4077      17.60068     38.85893         56.45961   5.21503    66   % 10.1407
    4226      17.58489     39.10165         56.68654   5.44195    67   % 10.2752
    4373      17.56972     39.37414         56.94386   5.69928    68   % 10.4112
    4524      17.55532     39.62724         57.18256   5.93798    69   % 10.5475
    4687      17.54669     39.87941         57.42610   6.18151    70   % 10.6900
    4855      17.52746     40.15021         57.67767   6.43308    71   % 10.8351

           NUMBER OF CYCLES EXCEEDED, RESTART FILE WRITTEN
           Number of cycles allowed in this run =   5000
           To increase the number of cycles, use keyword "CYCLES=n",
           where "n" is the number of cycles you want to run

 **********************
 *                    *
 * JOB ENDED NORMALLY *
 *                    *
 **********************



 TOTAL JOB TIME:            33.91 SECONDS

 == MOPAC DONE ==
