 *******************************************************************************
 ** Site#: 37037        For non-commercial use only           Version 21.153W **
 *******************************************************************************
 ** Cite this program as: MOPAC2016, Version: 21.153W, James J. P. Stewart,   **
 ** Stewart Computational Chemistry, web: HTTP://OpenMOPAC.net. Days left: 364**
 *******************************************************************************
 **                                                                           **
 **                                MOPAC2016                                  **
 **                                                                           **
 *******************************************************************************

                              PM7 CALCULATION RESULTS

 *******************************************************************************
 *  CALCULATION DONE:                                Thu Jun  3 14:06:56 2021  *
 *  T=         - A TIME OF 172800.0 SECONDS REQUESTED
 *  DUMP=N     - RESTART FILE WRITTEN EVERY 7200.0 SECONDS REQUESTED
 *  NOTXT      - DO NOT PRINT TEXT ASSOCIATED WITH AN ATOM
 *  HTML       - WRITE HTML SCRIPT TO READ PDB FILE USING JSMOL
 *******************************************************************************
      html notxt
 1,5-Hexadiene (form B)

  ATOM    CHEMICAL      BOND LENGTH      BOND ANGLE     TWIST ANGLE 
 NUMBER    SYMBOL       (ANGSTROMS)      (DEGREES)       (DEGREES) 
   (I)                     NA:I           NB:NA:I       NC:NB:NA:I       NA    NB    NC 
     1       C          0.00000000       0.0000000       0.0000000        0     0     0
     2       C          1.49588716  *    0.0000000       0.0000000        1     0     0
     3       C          1.53783981  *  111.2944732  *    0.0000000        2     1     0
     4       C          1.49600450  *  111.2343679  *  -64.4497637  *     3     2     1
     5       C          1.33258148  *  123.2054688  *  135.5335196  *     4     3     2
     6       C          1.33260605  *  123.1433660  *  136.8694429  *     1     2     3
     7       H          1.08982539  *  114.9260948  *  179.5234846  *     1     2     6
     8       H          1.11133875  *  109.0468144  *  121.0730097  *     2     1     3
     9       H          1.10829061  *  111.4603095  *  115.8728993  *     2     1     8
    10       H          1.10852174  *  109.9121864  *  123.7813389  *     3     2     4
    11       H          1.11093686  *  109.6885357  *  115.3645915  *     3     2    10
    12       H          1.08992137  *  114.8902462  *  179.6958325  *     4     3     5
    13       H          1.07833658  *  123.3525312  *  179.3942248  *     5     4     3
    14       H          1.07773682  *  124.0622038  *  179.7238964  *     5     4    13
    15       H          1.07831264  *  123.3745597  *  179.1880150  *     6     1     2
    16       H          1.07770548  *  124.0529447  *  179.7894321  *     6     1    15
 


          CARTESIAN COORDINATES 

    NO.       ATOM           X           Y           Z

     1         C          0.0000      0.0000      0.0000
     2         C          1.4959      0.0000      0.0000
     3         C          2.0544      1.4328      0.0000
     4         C          1.6908      2.1561     -1.2581
     5         C          1.2420      3.4107     -1.2749
     6         C         -0.7286     -0.8143     -0.7628
     7         H         -0.4593      0.7156      0.6816
     8         H          1.8586     -0.5422      0.8998
     9         H          1.9014     -0.5626     -0.8645
    10         H          1.6962      1.9777      0.8965
    11         H          3.1607      1.4033      0.0967
    12         H          1.8249      1.5800     -2.1735
    13         H          0.9882      3.9375     -2.1810
    14         H          1.0884      4.0088     -0.3916
    15         H         -1.8068     -0.8262     -0.7565
    16         H         -0.3110     -1.5284     -1.4536

 General Reference for PM7:
 "Optimization of Parameters for Semiempirical Methods VI: More Modifications to the 
 NDDO Approximations and Re-optimization of Parameters", J. J. P. Stewart, J. Mol. Mod., 1:32, 19 (2013)
 https://link.springer.com/article/10.1007/s00894-012-1667-x

           Empirical Formula: C6 H10  =    16 atoms



      MOLECULAR POINT GROUP   :   C2  


      RHF CALCULATION, NO. OF DOUBLY OCCUPIED LEVELS = 17


          Geometry optimization using EF

     GRADIENT =  0.45463 IS LESS THAN CUTOFF =  1.00000



 -------------------------------------------------------------------------------
 html notxt
 1,5-Hexadiene (form B)



     GRADIENTS WERE INITIALLY ACCEPTABLY SMALL                
     SCF FIELD WAS ACHIEVED                                   


                              PM7 CALCULATION
                                                       MOPAC2016 (Version: 21.153W)
                                                       Thu Jun  3 14:06:56 2021
                                                       No. of days remaining = 364




          FINAL HEAT OF FORMATION =         17.49285 KCAL/MOL =      73.19007 KJ/MOL


          TOTAL ENERGY            =       -871.08963 EV
          ELECTRONIC ENERGY       =      -3733.56963 EV  POINT GROUP:     C2  
          CORE-CORE REPULSION     =       2862.47999 EV
          COSMO AREA              =        143.78 SQUARE ANGSTROMS
          COSMO VOLUME            =        134.36 CUBIC ANGSTROMS

          GRADIENT NORM           =          0.45463 = 0.11366 PER ATOM
          IONIZATION POTENTIAL    =         10.031603 EV
          HOMO LUMO ENERGIES (EV) =        -10.032  1.145
          NO. OF FILLED LEVELS    =         17
          MOLECULAR WEIGHT        =         82.1450

          MOLECULAR DIMENSIONS (Angstroms)

            Atom       Atom       Distance
            H    16    H    14     5.80916
            H    11    H    15     4.27549
            H    13    H     8     3.67834


          SCF CALCULATIONS        =          1
 
          WALL-CLOCK TIME         =          0.020 SECONDS
          COMPUTATION TIME        =          0.062 SECONDS




  ATOM    CHEMICAL      BOND LENGTH      BOND ANGLE     TWIST ANGLE 
 NUMBER    SYMBOL       (ANGSTROMS)      (DEGREES)       (DEGREES) 
   (I)                     NA:I           NB:NA:I       NC:NB:NA:I       NA    NB    NC 
     1       C          0.00000000       0.0000000       0.0000000        0     0     0
     2       C          1.49588716  *    0.0000000       0.0000000        1     0     0
     3       C          1.53783981  *  111.2944732  *    0.0000000        2     1     0
     4       C          1.49600450  *  111.2343679  *  -64.4497637  *     3     2     1
     5       C          1.33258148  *  123.2054688  *  135.5335196  *     4     3     2
     6       C          1.33260605  *  123.1433660  *  136.8694429  *     1     2     3
     7       H          1.08982539  *  114.9260948  *  179.5234846  *     1     2     6
     8       H          1.11133875  *  109.0468144  *  121.0730097  *     2     1     3
     9       H          1.10829061  *  111.4603095  *  115.8728993  *     2     1     8
    10       H          1.10852174  *  109.9121864  *  123.7813389  *     3     2     4
    11       H          1.11093686  *  109.6885357  *  115.3645915  *     3     2    10
    12       H          1.08992137  *  114.8902462  *  179.6958325  *     4     3     5
    13       H          1.07833658  *  123.3525312  *  179.3942248  *     5     4     3
    14       H          1.07773682  *  124.0622038  *  179.7238964  *     5     4    13
    15       H          1.07831264  *  123.3745597  *  179.1880150  *     6     1     2
    16       H          1.07770548  *  124.0529447  *  179.7894321  *     6     1    15

                             CARTESIAN COORDINATES

   1    C        0.000000000     0.000000000     0.000000000
   2    C        1.495887160     0.000000000     0.000000000
   3    C        2.054371152     1.432845739     0.000000000
   4    C        1.690780354     2.156095329    -1.258070437
   5    C        1.242034014     3.410733444    -1.274902708
   6    C       -0.728583510    -0.814306817    -0.762829838
   7    H       -0.459305683     0.715622528     0.681646585
   8    H        1.858562110    -0.542192124     0.899760189
   9    H        1.901362606    -0.562586627    -0.864519535
  10    H        1.696155482     1.977673043     0.896473754
  11    H        3.160699024     1.403337858     0.096688322
  12    H        1.824854476     1.579969862    -2.173511407
  13    H        0.988226539     3.937486828    -2.180950399
  14    H        1.088404834     4.008768289    -0.391574314
  15    H       -1.806811658    -0.826242634    -0.756525247
  16    H       -0.311010930    -1.528388369    -1.453604604


           Empirical Formula: C6 H10  =    16 atoms



      MOLECULAR POINT GROUP   :   C2  


                  EIGENVALUES  
 -29.21563 -27.03455 -24.94055 -21.58122 -19.41349 -19.32925 -16.15588 -15.65018
 -15.18872 -14.82060 -13.53605 -12.84714 -12.41163 -11.77526 -11.67975 -10.21790
 -10.03160   1.14502   1.15482   3.95777   4.24043   4.51919   5.36054   5.48569
   5.84262   5.86507   6.03388   6.11804   6.29134   6.30826   6.54246   6.59136
   6.72287   6.74200


              NET ATOMIC CHARGES AND DIPOLE CONTRIBUTIONS

  ATOM NO.   TYPE          CHARGE      No. of ELECS.   s-Pop       p-Pop       
    1          C          -0.096612        4.0966     1.09214     3.00447
    2          C          -0.282179        4.2822     1.05561     3.22657
    3          C          -0.282422        4.2824     1.05565     3.22677
    4          C          -0.096871        4.0969     1.09211     3.00476
    5          C          -0.348855        4.3489     1.09203     3.25682
    6          C          -0.349307        4.3493     1.09198     3.25733
    7          H           0.141508        0.8585     0.85849
    8          H           0.149248        0.8508     0.85075
    9          H           0.147814        0.8522     0.85219
   10          H           0.147687        0.8523     0.85231
   11          H           0.149077        0.8509     0.85092
   12          H           0.141341        0.8587     0.85866
   13          H           0.145343        0.8547     0.85466
   14          H           0.144425        0.8556     0.85557
   15          H           0.145362        0.8546     0.85464
   16          H           0.144441        0.8556     0.85556
 DIPOLE           X         Y         Z       TOTAL
 POINT-CHG.     0.583    -0.225     0.395     0.739
 HYBRID         0.022    -0.009     0.015     0.028
 SUM            0.605    -0.234     0.410     0.767


          ATOMIC ORBITAL ELECTRON POPULATIONS

                  Atom                 s        px        py        pz   
   C(HETATM    1  C   HET A   1)   1.09214   0.98831   1.00867   1.00749
   C(HETATM    2  C   HET A   1)   1.05561   1.02409   1.03461   1.16787
   C(HETATM    3  C   HET A   1)   1.05565   1.13020   1.02208   1.07449
   C(HETATM    4  C   HET A   1)   1.09211   0.96121   1.00238   1.04118
   C(HETATM    5  C   HET A   1)   1.09203   1.05984   1.04541   1.15157
   C(HETATM    6  C   HET A   1)   1.09198   1.11768   1.07064   1.06901
   H(HETATM    7  H   HET A   1)   0.85849
   H(HETATM    8  H   HET A   1)   0.85075
   H(HETATM    9  H   HET A   1)   0.85219
   H(HETATM   10  H   HET A   1)   0.85231
   H(HETATM   11  H   HET A   1)   0.85092
   H(HETATM   12  H   HET A   1)   0.85866
   H(HETATM   13  H   HET A   1)   0.85466
   H(HETATM   14  H   HET A   1)   0.85557
   H(HETATM   15  H   HET A   1)   0.85464
   H(HETATM   16  H   HET A   1)   0.85556

 **********************
 *                    *
 * JOB ENDED NORMALLY *
 *                    *
 **********************



 TOTAL JOB TIME:             0.03 SECONDS

 == MOPAC DONE ==
