 *******************************************************************************
 ** Site#: 37037        For non-commercial use only           Version 21.153W **
 *******************************************************************************
 ** Cite this program as: MOPAC2016, Version: 21.153W, James J. P. Stewart,   **
 ** Stewart Computational Chemistry, web: HTTP://OpenMOPAC.net. Days left: 364**
 *******************************************************************************
 **                                                                           **
 **                                MOPAC2016                                  **
 **                                                                           **
 *******************************************************************************

                              PM7 CALCULATION RESULTS

 *******************************************************************************
 *  CALCULATION DONE:                                Thu Jun  3 14:07:33 2021  *
 *  GEO_DAT    - DATA SET GEOMETRY IS IN FILE "Locate_TS.arc"
 *  TS         - USE EF ROUTINE FOR TS SEARCH
 *  T=         - A TIME OF 172800.0 SECONDS REQUESTED
 *  DUMP=N     - RESTART FILE WRITTEN EVERY 7200.0 SECONDS REQUESTED
 *  GNORM      - EXIT WHEN GRADIENT NORM DROPS BELOW 2.000
 *******************************************************************************
TS  gnorm=2   geo_dat="Locate_TS.arc"
 Transition state for 1,5-hexadiene <=> 1,5-hexadiene

   ATOM                 CHEMICAL                   X               Y               Z
  NUMBER                 SYMBOL               (ANGSTROMS)     (ANGSTROMS)     (ANGSTROMS)
 
     1       C(HETATM    1  C   HET A   1)    0.12219326      0.43147854      0.38384919   
     2       C(HETATM    2  C   HET A   1)    1.41631130  *  -0.10719991  *   0.43470276  *
     3       C(HETATM    3  C   HET A   1)    2.44200794  *   1.37912672  *  -0.20573953  *
     4       C(HETATM    4  C   HET A   1)    1.83116303      1.60970801     -1.44719959   
     5       C(HETATM    5  C   HET A   1)    0.53009207  *   2.13325967  *  -1.50734096  *
     6       C(HETATM    6  C   HET A   1)   -0.49014221  *   0.66946405  *  -0.85671754  *
     7       H(HETATM    7  H   HET A   1)   -0.30835348      0.85816279      1.28469943   
     8       H(HETATM    8  H   HET A   1)    1.88399396     -0.29401430      1.39684630   
     9       H(HETATM    9  H   HET A   1)    1.72280452     -0.84336319     -0.30690394   
    10       H(HETATM   10  H   HET A   1)    2.25654494      2.06227138      0.62161131   
    11       H(HETATM   11  H   HET A   1)    3.44894515      0.97387906     -0.17022767   
    12       H(HETATM   12  H   HET A   1)    2.27780959      1.18610525     -2.34158737   
    13       H(HETATM   13  H   HET A   1)    0.07739848      2.30805463     -2.47834874   
    14       H(HETATM   14  H   HET A   1)    0.22077796      2.88212236     -0.77997477   
    15       H(HETATM   15  H   HET A   1)   -1.49635816      1.07496480     -0.88008171   
    16       H(HETATM   16  H   HET A   1)   -0.31634197     -0.02585561     -1.67668595   
 

 General Reference for PM7:
 "Optimization of Parameters for Semiempirical Methods VI: More Modifications to the 
 NDDO Approximations and Re-optimization of Parameters", J. J. P. Stewart, J. Mol. Mod., 1:32, 19 (2013)
 https://link.springer.com/article/10.1007/s00894-012-1667-x

           Empirical Formula: C6 H10  =    16 atoms



      MOLECULAR POINT GROUP   :   Ci  


      RHF CALCULATION, NO. OF DOUBLY OCCUPIED LEVELS = 17


          Transition state refinement using EF

          HESSIAN CALCULATED NUMERICALLY

 CYCLE:     1 TIME:   0.062 TIME LEFT:  2.00D  GRAD.:     5.735 HEAT:  51.34218
 CYCLE:     2 TIME:   0.000 TIME LEFT:  2.00D  GRAD.:     0.301 HEAT:  51.36154

     GRADIENT =  0.30143 IS LESS THAN CUTOFF =  2.00000



 -------------------------------------------------------------------------------
 TS  gnorm=2
 Transition state for 1,5-hexadiene <=> 1,5-hexadiene



     GEOMETRY OPTIMISED USING EIGENVECTOR FOLLOWING (TS).     
     SCF FIELD WAS ACHIEVED                                   


                              PM7 CALCULATION
                                                       MOPAC2016 (Version: 21.153W)
                                                       Thu Jun  3 14:07:34 2021
                                                       No. of days remaining = 364




          FINAL HEAT OF FORMATION =         51.36154 KCAL/MOL =     214.89670 KJ/MOL


          TOTAL ENERGY            =       -869.63355 EV
          ELECTRONIC ENERGY       =      -3926.10107 EV  POINT GROUP:     Ci  
          CORE-CORE REPULSION     =       3056.46752 EV
          COSMO AREA              =        132.19 SQUARE ANGSTROMS
          COSMO VOLUME            =        126.38 CUBIC ANGSTROMS

          GRADIENT NORM           =          0.30143 = 0.07536 PER ATOM
          IONIZATION POTENTIAL    =          8.289760 EV
          HOMO LUMO ENERGIES (EV) =         -8.290  0.268
          NO. OF FILLED LEVELS    =         17
          MOLECULAR WEIGHT        =         82.1450

          MOLECULAR DIMENSIONS (Angstroms)

            Atom       Atom       Distance
            H    13    H     8     5.00517
            H    15    H    11     4.38996
            H     9    H    10     2.86537


          SCF CALCULATIONS        =         15
 
          WALL-CLOCK TIME         =          0.094 SECONDS
          COMPUTATION TIME        =          0.328 SECONDS




   ATOM                 CHEMICAL                   X               Y               Z
  NUMBER                 SYMBOL               (ANGSTROMS)     (ANGSTROMS)     (ANGSTROMS)
 
     1       C(HETATM    1  C   HET A   1)    0.12219326      0.43147854      0.38384919   
     2       C(HETATM    2  C   HET A   1)    1.41838068  *  -0.10447743  *   0.43362735  *
     3       C(HETATM    3  C   HET A   1)    2.44039507  *   1.37611376  *  -0.20439145  *
     4       C(HETATM    4  C   HET A   1)    1.83116303      1.60970801     -1.44719959   
     5       C(HETATM    5  C   HET A   1)    0.53293991  *   2.13629866  *  -1.50856506  *
     6       C(HETATM    6  C   HET A   1)   -0.49235085  *   0.66585650  *  -0.85483383  *
     7       H(HETATM    7  H   HET A   1)   -0.30835348      0.85816279      1.28469943   
     8       H(HETATM    8  H   HET A   1)    1.88399396     -0.29401430      1.39684630   
     9       H(HETATM    9  H   HET A   1)    1.72280452     -0.84336319     -0.30690394   
    10       H(HETATM   10  H   HET A   1)    2.25654494      2.06227138      0.62161131   
    11       H(HETATM   11  H   HET A   1)    3.44894515      0.97387906     -0.17022767   
    12       H(HETATM   12  H   HET A   1)    2.27780959      1.18610525     -2.34158737   
    13       H(HETATM   13  H   HET A   1)    0.07739848      2.30805463     -2.47834874   
    14       H(HETATM   14  H   HET A   1)    0.22077796      2.88212236     -0.77997477   
    15       H(HETATM   15  H   HET A   1)   -1.49635816      1.07496480     -0.88008171   
    16       H(HETATM   16  H   HET A   1)   -0.31634197     -0.02585561     -1.67668595   

                             CARTESIAN COORDINATES

   1    C        0.122193260     0.431478540     0.383849190
   2    C        1.418380683    -0.104477432     0.433627346
   3    C        2.440395070     1.376113757    -0.204391449
   4    C        1.831163030     1.609708010    -1.447199590
   5    C        0.532939907     2.136298659    -1.508565058
   6    C       -0.492350852     0.665856498    -0.854833833
   7    H       -0.308353480     0.858162790     1.284699430
   8    H        1.883993960    -0.294014300     1.396846300
   9    H        1.722804520    -0.843363190    -0.306903940
  10    H        2.256544940     2.062271380     0.621611310
  11    H        3.448945150     0.973879060    -0.170227670
  12    H        2.277809590     1.186105250    -2.341587370
  13    H        0.077398480     2.308054630    -2.478348740
  14    H        0.220777960     2.882122360    -0.779974770
  15    H       -1.496358160     1.074964800    -0.880081710
  16    H       -0.316341970    -0.025855610    -1.676685950


           Empirical Formula: C6 H10  =    16 atoms



      MOLECULAR POINT GROUP   :   Ci  


                  EIGENVALUES  
 -29.63429 -25.77248 -25.09237 -21.54002 -19.37879 -19.07445 -16.50438 -15.35410
 -15.06487 -14.02288 -13.36806 -12.77291 -12.46665 -12.16317 -11.65055 -10.07046
  -8.28976   0.26806   1.47189   2.96446   5.08196   5.22185   5.35889   5.37392
   6.03928   6.12015   6.13939   6.16988   6.33083   6.43903   6.50001   6.64017
   6.65716   6.68038


              NET ATOMIC CHARGES AND DIPOLE CONTRIBUTIONS

  ATOM NO.                 TYPE                        CHARGE      No. of ELECS.   s-Pop       p-Pop       
    1          C(HETATM    1  C   HET A   1)          -0.199107        4.1991     1.07839     3.12071
    2          C(HETATM    2  C   HET A   1)          -0.246759        4.2468     1.09407     3.15269
    3          C(HETATM    3  C   HET A   1)          -0.246911        4.2469     1.09398     3.15293
    4          C(HETATM    4  C   HET A   1)          -0.199915        4.1999     1.07820     3.12172
    5          C(HETATM    5  C   HET A   1)          -0.246504        4.2465     1.09336     3.15314
    6          C(HETATM    6  C   HET A   1)          -0.247352        4.2474     1.09338     3.15397
    7          H(HETATM    7  H   HET A   1)           0.140035        0.8600     0.85997
    8          H(HETATM    8  H   HET A   1)           0.134942        0.8651     0.86506
    9          H(HETATM    9  H   HET A   1)           0.141634        0.8584     0.85837
   10          H(HETATM   10  H   HET A   1)           0.141654        0.8583     0.85835
   11          H(HETATM   11  H   HET A   1)           0.134909        0.8651     0.86509
   12          H(HETATM   12  H   HET A   1)           0.139864        0.8601     0.86014
   13          H(HETATM   13  H   HET A   1)           0.134754        0.8652     0.86525
   14          H(HETATM   14  H   HET A   1)           0.141892        0.8581     0.85811
   15          H(HETATM   15  H   HET A   1)           0.134948        0.8651     0.86505
   16          H(HETATM   16  H   HET A   1)           0.141917        0.8581     0.85808

          NET CHARGE ON RESIDUES

      Residue         Charge  Anion or
                              Cation?
      HET A   1       +0.000
 


 DIPOLE           X         Y         Z       TOTAL
 POINT-CHG.     0.005    -0.006     0.004     0.008
 HYBRID         0.006    -0.002     0.002     0.006
 SUM            0.010    -0.008     0.006     0.014


          ATOMIC ORBITAL ELECTRON POPULATIONS

                   Atom                  s        px        py        pz   
   C(HETATM    1  C   HET A   1)   1.07839   1.00958   1.06608   1.04505
   C(HETATM    2  C   HET A   1)   1.09407   1.00542   1.02408   1.12319
   C(HETATM    3  C   HET A   1)   1.09398   1.06960   1.03677   1.04656
   C(HETATM    4  C   HET A   1)   1.07820   1.01012   1.06699   1.04462
   C(HETATM    5  C   HET A   1)   1.09336   1.00549   1.02548   1.12217
   C(HETATM    6  C   HET A   1)   1.09338   1.06917   1.03845   1.04635
   H(HETATM    7  H   HET A   1)   0.85997
   H(HETATM    8  H   HET A   1)   0.86506
   H(HETATM    9  H   HET A   1)   0.85837
   H(HETATM   10  H   HET A   1)   0.85835
   H(HETATM   11  H   HET A   1)   0.86509
   H(HETATM   12  H   HET A   1)   0.86014
   H(HETATM   13  H   HET A   1)   0.86525
   H(HETATM   14  H   HET A   1)   0.85811
   H(HETATM   15  H   HET A   1)   0.86505
   H(HETATM   16  H   HET A   1)   0.85808
 *******************************************************************************
 ** Site#: 37037        For non-commercial use only           Version 21.153W **
 *******************************************************************************
 ** Cite this program as: MOPAC2016, Version: 21.153W, James J. P. Stewart,   **
 ** Stewart Computational Chemistry, web: HTTP://OpenMOPAC.net. Days left: 364**
 *******************************************************************************
 **                                                                           **
 **                                MOPAC2016                                  **
 **                                                                           **
 *******************************************************************************

                              PM7 CALCULATION RESULTS

 *******************************************************************************
 *  CALCULATION DONE:                                Thu Jun  3 14:07:34 2021  *
 *  IRC=N      - INTRINSIC REACTION COORDINATE  1 DEFINED
 *  OLDGEO     - PREVIOUS GEOMETRY TO BE USED
 *  T=         - A TIME OF 172800.0 SECONDS REQUESTED
 *  DUMP=N     - RESTART FILE WRITTEN EVERY 7200.0 SECONDS REQUESTED
 *  HTML       - WRITE HTML SCRIPT TO GENERATE ANIMATION USING JSMOL
 *             - TO DISPLAY IN PDB FORMAT, ADD "PDBOUT"
 *  X-PRIOR    - GEOMETRY CHANGES TAKE PRIORITY IN DRC
 *******************************************************************************
oldgeo   IRC=1* HTML X-priority=0.2
 Reaction path for 1,5-hexadiene <=> 1,5-hexadiene

   ATOM                 CHEMICAL                   X               Y               Z
  NUMBER                 SYMBOL               (ANGSTROMS)     (ANGSTROMS)     (ANGSTROMS)
 
     1       C(HETATM    1  C   HET A   1)    0.12219326      0.43147854      0.38384919   
     2       C(HETATM    2  C   HET A   1)    1.41838068  *  -0.10447743  *   0.43362735  *
     3       C(HETATM    3  C   HET A   1)    2.44039507  *   1.37611376  *  -0.20439145  *
     4       C(HETATM    4  C   HET A   1)    1.83116303      1.60970801     -1.44719959   
     5       C(HETATM    5  C   HET A   1)    0.53293991  *   2.13629866  *  -1.50856506  *
     6       C(HETATM    6  C   HET A   1)   -0.49235085  *   0.66585650  *  -0.85483383  *
     7       H(HETATM    7  H   HET A   1)   -0.30835348      0.85816279      1.28469943   
     8       H(HETATM    8  H   HET A   1)    1.88399396     -0.29401430      1.39684630   
     9       H(HETATM    9  H   HET A   1)    1.72280452     -0.84336319     -0.30690394   
    10       H(HETATM   10  H   HET A   1)    2.25654494      2.06227138      0.62161131   
    11       H(HETATM   11  H   HET A   1)    3.44894515      0.97387906     -0.17022767   
    12       H(HETATM   12  H   HET A   1)    2.27780959      1.18610525     -2.34158737   
    13       H(HETATM   13  H   HET A   1)    0.07739848      2.30805463     -2.47834874   
    14       H(HETATM   14  H   HET A   1)    0.22077796      2.88212236     -0.77997477   
    15       H(HETATM   15  H   HET A   1)   -1.49635816      1.07496480     -0.88008171   
    16       H(HETATM   16  H   HET A   1)   -0.31634197     -0.02585561     -1.67668595   
 

 General Reference for PM7:
 "Optimization of Parameters for Semiempirical Methods VI: More Modifications to the 
 NDDO Approximations and Re-optimization of Parameters", J. J. P. Stewart, J. Mol. Mod., 1:32, 19 (2013)
 https://link.springer.com/article/10.1007/s00894-012-1667-x

           Empirical Formula: C6 H10  =    16 atoms



      MOLECULAR POINT GROUP   :   Ci  


      RHF CALCULATION, NO. OF DOUBLY OCCUPIED LEVELS = 17



          HEAT OF FORMATION =      51.361536 KCALS/MOLE


          GRADIENT NORM =   4.02412

          MOLECULAR WEIGHT =   82.14


          ESTIMATED TIME TO COMPLETE CALCULATION =        0.00 SECONDS

    FOR POINT-GROUP Ci   THERE ARE   2 UNIQUE SYMMETRY FUNCTIONS.

 STEP:   1 TIME =     0.00 SECS, INTEGRAL =      0.00 TIME LEFT: 172800.00
 STEP:   2 TIME =     0.02 SECS, INTEGRAL =      0.02 TIME LEFT: 172799.98
 STEP:   3 TIME =     0.00 SECS, INTEGRAL =      0.02 TIME LEFT: 172799.98
 STEP:   4 TIME =     0.02 SECS, INTEGRAL =      0.03 TIME LEFT: 172799.97
 STEP:   5 TIME =     0.00 SECS, INTEGRAL =      0.03 TIME LEFT: 172799.97
 STEP:   6 TIME =     0.00 SECS, INTEGRAL =      0.03 TIME LEFT: 172799.97
 STEP:   7 TIME =     0.02 SECS, INTEGRAL =      0.05 TIME LEFT: 172799.95
 STEP:   8 TIME =     0.00 SECS, INTEGRAL =      0.05 TIME LEFT: 172799.95
 STEP:   9 TIME =     0.02 SECS, INTEGRAL =      0.06 TIME LEFT: 172799.94
 STEP:  10                       INTEGRAL =      0.06 TIME LEFT: 172799.94
 STEP:  11                       INTEGRAL =      0.06 TIME LEFT: 172799.94
 STEP:  12                       INTEGRAL =      0.06 TIME LEFT: 172799.94
 STEP:  13                       INTEGRAL =      0.06 TIME LEFT: 172799.94
 STEP:  14                       INTEGRAL =      0.06 TIME LEFT: 172799.94
 STEP:  15                       INTEGRAL =      0.06 TIME LEFT: 172799.94
 STEP:  16                       INTEGRAL =      0.06 TIME LEFT: 172799.94
 STEP:  17                       INTEGRAL =      0.06 TIME LEFT: 172799.94
 STEP:  18                       INTEGRAL =      0.06 TIME LEFT: 172799.94
 STEP:  19 TIME =     0.00 SECS, INTEGRAL =      0.06 TIME LEFT: 172799.94
 STEP:  20 TIME =     0.02 SECS, INTEGRAL =      0.08 TIME LEFT: 172799.92
 STEP:  21 TIME =     0.00 SECS, INTEGRAL =      0.08 TIME LEFT: 172799.92
 STEP:  22 TIME =     0.02 SECS, INTEGRAL =      0.09 TIME LEFT: 172799.91
 STEP:  23 TIME =     0.00 SECS, INTEGRAL =      0.09 TIME LEFT: 172799.91
 STEP:  24 TIME =     0.00 SECS, INTEGRAL =      0.09 TIME LEFT: 172799.91
 STEP:  25 TIME =     0.02 SECS, INTEGRAL =      0.11 TIME LEFT: 172799.89
 STEP:  26 TIME =     0.00 SECS, INTEGRAL =      0.11 TIME LEFT: 172799.89
 STEP:  27 TIME =     0.02 SECS, INTEGRAL =      0.12 TIME LEFT: 172799.88
 STEP:  28 TIME =     0.00 SECS, INTEGRAL =      0.12 TIME LEFT: 172799.88
 STEP:  29 TIME =     0.00 SECS, INTEGRAL =      0.12 TIME LEFT: 172799.88
 STEP:  30 TIME =     0.02 SECS, INTEGRAL =      0.14 TIME LEFT: 172799.86
 STEP:  31 TIME =     0.00 SECS, INTEGRAL =      0.14 TIME LEFT: 172799.86
 STEP:  32 TIME =     0.02 SECS, INTEGRAL =      0.16 TIME LEFT: 172799.84
 STEP:  33 TIME =     0.00 SECS, INTEGRAL =      0.16 TIME LEFT: 172799.84
 STEP:  34                       INTEGRAL =      0.16 TIME LEFT: 172799.84
 STEP:  35                       INTEGRAL =      0.16 TIME LEFT: 172799.84
 STEP:  36                       INTEGRAL =      0.16 TIME LEFT: 172799.84
 STEP:  37                       INTEGRAL =      0.16 TIME LEFT: 172799.84
 STEP:  38                       INTEGRAL =      0.16 TIME LEFT: 172799.84
 STEP:  39                       INTEGRAL =      0.16 TIME LEFT: 172799.84
 STEP:  40                       INTEGRAL =      0.16 TIME LEFT: 172799.84
 STEP:  41                       INTEGRAL =      0.16 TIME LEFT: 172799.84
 STEP:  42                       INTEGRAL =      0.16 TIME LEFT: 172799.84
 STEP:  43                       INTEGRAL =      0.16 TIME LEFT: 172799.84
 STEP:  44                       INTEGRAL =      0.16 TIME LEFT: 172799.84
 STEP:  45                       INTEGRAL =      0.16 TIME LEFT: 172799.84
 STEP:  46                       INTEGRAL =      0.16 TIME LEFT: 172799.84
 STEP:  47                       INTEGRAL =      0.16 TIME LEFT: 172799.84
 STEP:  48                       INTEGRAL =      0.16 TIME LEFT: 172799.84
           INITIAL VELOCITY IN DRC (Angstroms/Femtosecond)
         0.02842        -0.01145         0.01329
        -0.04755        -0.14102         0.00697
         0.01959         0.15213        -0.02032
         0.02820        -0.01102         0.01392
        -0.04777        -0.14096         0.00743
         0.01984         0.15212        -0.02083
        -0.01944        -0.00231        -0.01380
         0.00842        -0.01120         0.00796
         0.01116         0.05613        -0.00547
        -0.01639        -0.04878         0.00280
         0.01192         0.00675         0.00554
        -0.01957        -0.00124        -0.01306
         0.00823        -0.01083         0.00852
         0.01076         0.05560        -0.00494
         0.01217         0.00644         0.00490
        -0.01596        -0.04819         0.00222

 GEOMETRY PRIORITY, STEP = 0.2000 ANGSTROMS



     POINT   POTENTIAL  +  ENERGY LOST   =   TOTAL      ERROR    REF%   MOVEMENT
       1      51.36154      0.00000         51.36154   0.00000     1   %  0.0000
      79      50.34143      0.93379         51.27523  -0.08632     2   %  0.2000
     155      47.33411      3.92591         51.26002  -0.10152     3   %  0.3911
     178      43.36146      7.89613         51.25759  -0.10396     4   %  0.5691
     211      38.98408     12.28041         51.26450  -0.09705     5   %  0.7663
     253      35.21336     16.05962         51.27299  -0.08856     6   %  0.9595
     297      32.19250     19.08929         51.28179  -0.07975     7   %  1.1504
     339      29.88375     21.40624         51.28999  -0.07155     8   %  1.3372
     375      28.09815     23.19902         51.29717  -0.06438     9   %  1.5161
     407      26.65527     24.64822         51.30349  -0.05805    10   %  1.6852
     436      25.46087     25.84830         51.30917  -0.05237    11   %  1.8463
     462      24.46282     26.85147         51.31429  -0.04726    12   %  2.0019
     486      23.62257     27.69635         51.31892  -0.04262    13   %  2.1550
     507      22.91103     28.41212         51.32315  -0.03839    14   %  2.3076
     527      22.30657     29.02044         51.32701  -0.03453    15   %  2.4611
     545      21.79241     29.53812         51.33052  -0.03102    16   %  2.6158
     561      21.35463     29.97907         51.33371  -0.02784    17   %  2.7710
     576      20.98131     30.35525         51.33657  -0.02498    18   %  2.9261
     589      20.66205     30.67707         51.33912  -0.02242    19   %  3.0811
     601      20.38775     30.95364         51.34139  -0.02015    20   %  3.2371
     612      20.15053     31.19288         51.34341  -0.01813    21   %  3.3955
     624      19.94359     31.40245         51.34605  -0.01550    22   %  3.5575
     637      19.76134     31.58783         51.34917  -0.01237    23   %  3.7231
     650      19.59921     31.75332         51.35253  -0.00901    24   %  3.8915
     663      19.45488     31.90225         51.35713  -0.00442    25   %  4.0611
     683      19.32211     32.04865         51.37076   0.00922    26   %  4.2366
     699      19.20111     32.18071         51.38181   0.02027    27   %  4.4131
     721      19.09160     32.31294         51.40455   0.04300    28   %  4.5888
     739      18.99934     32.41844         51.41779   0.05624    29   %  4.7507
     765      18.89579     32.55439         51.45018   0.08864    30   %  4.9480
     794      18.80950     32.67314         51.48264   0.12109    31   %  5.1288
     823      18.72945     32.78231         51.51176   0.15022    32   %  5.3107
     855      18.65466     32.92690         51.58156   0.22002    33   %  5.4953
     888      18.58488     33.04034         51.62522   0.26368    34   %  5.6804
     928      18.52114     33.15979         51.68093   0.31939    35   %  5.8660
     967      18.46219     33.27723         51.73942   0.37787    36   %  6.0521
    1015      18.40582     33.40378         51.80961   0.44806    37   %  6.2385
    1065      18.35387     33.52410         51.87797   0.51643    38   %  6.4245
    1122      18.30593     33.68119         51.98712   0.62558    39   %  6.6081
    1183      18.26101     33.81814         52.07916   0.71761    40   %  6.7893
    1248      18.21964     33.95704         52.17669   0.81514    41   %  6.9649
    1328      18.18016     34.11614         52.29629   0.93475    42   %  7.1359
    1406      18.14301     34.31402         52.45703   1.09549    43   %  7.3011
    1491      18.10802     34.50346         52.61148   1.24994    44   %  7.4589
    1584      18.07473     34.65938         52.73411   1.37256    45   %  7.6077
    1676      18.04606     34.87552         52.92158   1.56004    46   %  7.7477
    1779      18.01022     35.08160         53.09182   1.73027    47   %  7.8795
    1885      17.98510     35.25731         53.24241   1.88087    48   %  7.9968
    2000      17.95625     35.45134         53.40759   2.04604    49   %  8.1181
    2097      17.93120     35.67723         53.60843   2.24688    50   %  8.2282
    2213      17.90364     35.90075         53.80439   2.44285    51   %  8.3360
    2327      17.87906     36.08278         53.96185   2.60030    52   %  8.4395
    2433      17.85635     36.28009         54.13644   2.77490    53   %  8.5383
    2548      17.83312     36.48605         54.31916   2.95762    54   %  8.6428
    2665      17.80968     36.67437         54.48406   3.12251    55   %  8.7488
    2782      17.79041     36.87343         54.66384   3.30230    56   %  8.8537
    2900      17.76902     37.05893         54.82795   3.46641    57   %  8.9605
    3021      17.74897     37.28296         55.03194   3.67039    58   %  9.0705
    3140      17.72904     37.48510         55.21414   3.85259    59   %  9.1828
    3248      17.70925     37.69887         55.40811   4.04657    60   %  9.2981
    3379      17.69258     37.92379         55.61637   4.25482    61   %  9.4111
    3502      17.67459     38.15131         55.82590   4.46436    62   %  9.5301
    3632      17.65710     38.38136         56.03845   4.67691    63   %  9.6511
    3759      17.63950     38.58844         56.22794   4.86640    64   %  9.7744
    3887      17.62346     38.84535         56.46881   5.10726    65   %  9.8998
    4026      17.60740     39.06690         56.67430   5.31275    66   % 10.0274
    4162      17.59211     39.28187         56.87398   5.51244    67   % 10.1545
    4316      17.57626     39.57979         57.15605   5.79451    68   % 10.2915
    4467      17.56142     39.83377         57.39519   6.03364    69   % 10.4278
    4628      17.54706     40.05840         57.60546   6.24392    70   % 10.5668
    4791      17.53321     40.36872         57.90192   6.54038    71   % 10.7090
    4964      17.51985     40.64956         58.16941   6.80787    72   % 10.8546

           NUMBER OF CYCLES EXCEEDED, RESTART FILE WRITTEN
           Number of cycles allowed in this run =   5000
           To increase the number of cycles, use keyword "CYCLES=n",
           where "n" is the number of cycles you want to run
           INITIAL VELOCITY IN DRC (Angstroms/Femtosecond)
        -0.02842         0.01145        -0.01329
         0.04755         0.14102        -0.00697
        -0.01959        -0.15213         0.02032
        -0.02820         0.01102        -0.01392
         0.04777         0.14096        -0.00743
        -0.01984        -0.15212         0.02083
         0.01944         0.00231         0.01380
        -0.00842         0.01120        -0.00796
        -0.01116        -0.05613         0.00547
         0.01639         0.04878        -0.00280
        -0.01192        -0.00675        -0.00554
         0.01957         0.00124         0.01306
        -0.00823         0.01083        -0.00852
        -0.01076        -0.05560         0.00494
        -0.01217        -0.00644        -0.00490
         0.01596         0.04819        -0.00222

 GEOMETRY PRIORITY, STEP = 0.2000 ANGSTROMS



     POINT   POTENTIAL  +  ENERGY LOST   =   TOTAL      ERROR    REF%   MOVEMENT
       1      51.36154      0.00000         51.36154   0.00000     1   %  0.0000
      81      50.37102      0.90751         51.27853  -0.08300     2   %  0.2000
     157      47.41370      3.84960         51.26330  -0.09824     3   %  0.3924
     179      43.63127      7.62844         51.25971  -0.10183     4   %  0.5682
     207      39.13910     12.12662         51.26572  -0.09581     5   %  0.7720
     247      35.37125     15.90251         51.27376  -0.08777     6   %  0.9641
     289      32.33432     18.94776         51.28209  -0.07945     7   %  1.1543
     328      29.99879     21.29102         51.28981  -0.07172     8   %  1.3417
     362      28.18883     23.10771         51.29653  -0.06500     9   %  1.5221
     392      26.72897     24.57345         51.30242  -0.05912    10   %  1.6932
     419      25.52106     25.78662         51.30767  -0.05386    11   %  1.8559
     443      24.51032     26.80206         51.31239  -0.04915    12   %  2.0127
     464      23.65706     27.65958         51.31664  -0.04490    13   %  2.1662
     484      22.93181     28.38870         51.32051  -0.04103    14   %  2.3184
     502      22.31353     29.01051         51.32404  -0.03750    15   %  2.4707
     519      21.78657     29.54068         51.32726  -0.03428    16   %  2.6237
     534      21.33801     29.99216         51.33017  -0.03137    17   %  2.7771
     547      20.95628     30.37650         51.33279  -0.02875    18   %  2.9297
     559      20.63094     30.70418         51.33512  -0.02641    19   %  3.0810
     570      20.35264     30.98456         51.33720  -0.02433    20   %  3.2316
     582      20.11308     31.22705         51.34013  -0.02141    21   %  3.3830
     596      19.90518     31.43772         51.34290  -0.01864    22   %  3.5372
     609      19.72318     31.62333         51.34650  -0.01503    23   %  3.6953
     622      19.56362     31.78724         51.35086  -0.01068    24   %  3.8565
     642      19.41768     31.94695         51.36463   0.00309    25   %  4.0237
     659      19.28724     32.08805         51.37529   0.01375    26   %  4.1933
     675      19.17542     32.21482         51.39024   0.02870    27   %  4.3586
     700      19.06050     32.35017         51.41067   0.04913    28   %  4.5386
     722      18.96266     32.48618         51.44884   0.08730    29   %  4.7132
     744      18.87943     32.58532         51.46475   0.10321    30   %  4.8736
     774      18.78747     32.72687         51.51434   0.15280    31   %  5.0718
     801      18.71170     32.81816         51.52987   0.16833    32   %  5.2438
     832      18.63338     32.95021         51.58359   0.22206    33   %  5.4381
     864      18.57081     33.07517         51.64598   0.28445    34   %  5.6108
     905      18.50567     33.20949         51.71517   0.35363    35   %  5.8038
     948      18.44769     33.33746         51.78515   0.42361    36   %  5.9897
     996      18.39393     33.46084         51.85477   0.49323    37   %  6.1752
    1045      18.34993     33.58062         51.93055   0.56901    38   %  6.3577
    1104      18.29974     33.71412         52.01386   0.65233    39   %  6.5349
    1176      18.25417     33.88747         52.14164   0.78010    40   %  6.7234
    1243      18.21694     34.03729         52.25423   0.89269    41   %  6.8970
    1318      18.17734     34.23454         52.41188   1.05035    42   %  7.0630
    1409      18.13994     34.43175         52.57170   1.21016    43   %  7.2326
    1501      18.10584     34.61937         52.72521   1.36368    44   %  7.3882
    1602      18.07342     34.82090         52.89432   1.53279    45   %  7.5352
    1707      18.04221     35.01843         53.06065   1.69911    46   %  7.6740
    1815      18.01221     35.23868         53.25089   1.88935    47   %  7.8044
    1930      17.98355     35.47158         53.45513   2.09359    48   %  7.9265
    2043      17.95817     35.65656         53.61473   2.25319    49   %  8.0414
    2160      17.93022     35.83035         53.76058   2.39904    50   %  8.1503
    2283      17.90501     36.09921         54.00422   2.64269    51   %  8.2535
    2408      17.88063     36.31376         54.19439   2.83285    52   %  8.3565
    2529      17.85711     36.51220         54.36931   3.00777    53   %  8.4594
    2642      17.83418     36.83946         54.67364   3.31210    54   %  8.5633
    2768      17.81250     37.06224         54.87474   3.51320    55   %  8.6681
    2893      17.79115     37.28064         55.07179   3.71025    56   %  8.7756
    3023      17.77057     37.50081         55.27138   3.90984    57   %  8.8854
    3157      17.75053     37.70848         55.45901   4.09748    58   %  8.9977
    3290      17.73102     37.92888         55.65990   4.29836    59   %  9.1126
    3422      17.71002     38.15198         55.86200   4.50046    60   %  9.2295
    3557      17.69400     38.38936         56.08336   4.72182    61   %  9.3463
    3693      17.67529     38.65857         56.33385   4.97232    62   %  9.4677
    3837      17.65837     38.92191         56.58028   5.21875    63   %  9.5910
    3988      17.64122     39.15542         56.79664   5.43510    64   %  9.7169
    4128      17.62507     39.39888         57.02394   5.66241    65   %  9.8415
    4288      17.60821     39.70020         57.30840   5.94687    66   %  9.9760
    4443      17.59343     39.96996         57.56339   6.20185    67   % 10.1092
    4616      17.57695     40.25345         57.83040   6.46886    68   % 10.2457
    4786      17.56277     40.53223         58.09501   6.73347    69   % 10.3848
    4964      17.54844     40.82687         58.37531   7.01378    70   % 10.5266

           NUMBER OF CYCLES EXCEEDED, RESTART FILE WRITTEN
           Number of cycles allowed in this run =   5000
           To increase the number of cycles, use keyword "CYCLES=n",
           where "n" is the number of cycles you want to run

 **********************
 *                    *
 * JOB ENDED NORMALLY *
 *                    *
 **********************



 TOTAL JOB TIME:            37.54 SECONDS

 == MOPAC DONE ==
