 *******************************************************************************
 ** Site#: 10005        For non-commercial use only     Version 15.317W 64BITS**
 *******************************************************************************
 ** Cite this work as:                                                        **
 **                                                                           **
 ** (a) MOPAC2012, James J. P. Stewart, Stewart Computational Chemistry,      **
 **  Version 15.317W web: HTTP://OpenMOPAC.net         Days remaining: 365    **
 **                                                                           **
 **                                 AND                                       **
 **                                                                           **
 ** (b) Maia, J.D.C., et al., J. Chem. Theory Comput. 2012, 8, 3072-3081.     **
 **                DOI: 10.1021/ct3004645.                                    **
 *******************************************************************************
 **                                                                           **
 **                                MOPAC2012                                  **
 **                                                                           **
 *******************************************************************************

                              PM7 CALCULATION RESULTS


 *******************************************************************************
 *  CALCULATION DONE:                                Fri Nov 13 10:45:12 2015  *
 *  GEO_DAT    - DATA SET GEOMETRY IS IN FILE "SADDLE_TS.ARC"
 *  TS         - USE EF ROUTINE FOR TS SEARCH
 *  T=         - A TIME OF 172800.0 SECONDS REQUESTED
 *  DUMP=N     - RESTART FILE WRITTEN EVERY  7200.000 SECONDS
 *  GNORM=     - EXIT WHEN GRADIENT NORM DROPS BELOW  0.500    
 *******************************************************************************
TS gnorm=0.5   geo_dat="Saddle_TS.arc"
 Refine transition state for Cyclohexane boat 1 <=> Cyclohexane boat 2

   ATOM                 CHEMICAL                   X               Y               Z
  NUMBER                 SYMBOL               (ANGSTROMS)     (ANGSTROMS)     (ANGSTROMS)
 
     1       C(HETATM    1  C   HET A   1)   -0.27572085  *  -0.74815382  *   0.10152714  *
     2       C(HETATM    2  C   HET A   1)    0.68198588  *   0.01444871  *   1.02525742  *
     3       C(HETATM    3  C   HET A   1)    1.80491657  *   0.68290049  *   0.22266008  *
     4       C(HETATM    4  C   HET A   1)    1.26402130  *   1.56468509  *  -0.91857431  *
     5       C(HETATM    5  C   HET A   1)   -0.26841307  *   1.56566200  *  -0.97664981  *
     6       C(HETATM    6  C   HET A   1)   -0.81417428  *   0.13394316  *  -1.04056890  *
     7       H(HETATM    8  H   HET A   1)    0.24570342  *  -1.62600702  *  -0.32321195  *
     8       H(HETATM    7  H   HET A   1)   -1.11584263  *  -1.15353684  *   0.69387162  *
     9       H(HETATM    9  H   HET A   1)    1.11313949  *  -0.67571550  *   1.77358505  *
    10       H(HETATM   10  H   HET A   1)    0.12455968  *   0.77607386  *   1.60208682  *
    11       H(HETATM   11  H   HET A   1)    2.47081919  *  -0.09519921  *  -0.19453073  *
    12       H(HETATM   12  H   HET A   1)    2.43446574  *   1.28715170  *   0.90055702  *
    13       H(HETATM   14  H   HET A   1)    1.63080838  *   2.60040051  *  -0.80221577  *
    14       H(HETATM   13  H   HET A   1)    1.66721789  *   1.20827817  *  -1.88470268  *
    15       H(HETATM   15  H   HET A   1)   -0.68038502  *   2.08877014  *  -0.09345410  *
    16       H(HETATM   16  H   HET A   1)   -0.61241769  *   2.14034967  *  -1.85614161  *
    17       H(HETATM   17  H   HET A   1)   -1.91844658  *   0.15699535  *  -1.01182909  *
    18       H(HETATM   18  H   HET A   1)   -0.54680411  *  -0.31714979  *  -2.01431188  *
 

     ===================== shared-memory parallel CPU Section ======================
     **                                                                           **
     **  MOPAC calculations will run in shared-memory parallel CPUs               **
     **                                                                           **
     **  Number of Threads =  4                                                   **
     **                                                                           **
     **                                                                           **
     **  For information on this work, see:                                       **
     **                                                                           **
     **  Maia, J.D.C., et al., J. Chem. Theory Comput. 2012, 8, 3072-3081.        **
     **        DOI: 10.1021/ct3004645.                                            **
     **                                                                           **
     ===================== shared-memory parallel CPU Section ======================
      


 General Reference for PM7:
 "Optimization of Parameters for Semiempirical Methods VI: More Modifications to the 
 NDDO Approximations and Re-optimization of Parameters", J. J. P. Stewart, J. Mol. Mod., 1:32, 19 (2013)
 http://www.springerlink.com/openurl.asp?genre=article&id=doi:10.1007/s00894-012-1667-x

           Empirical Formula: C6 H12  =    18 atoms



      MOLECULAR POINT GROUP   :   C2v 


      RHF CALCULATION, NO. OF DOUBLY OCCUPIED LEVELS =   18

      Transition state refinement using EF

     GRADIENT =  0.20107  IS LESS THAN CUTOFF =  0.50000



 -------------------------------------------------------------------------------
TS gnorm=0.5   geo_dat="Saddle_TS.arc"
 Refine transition state for Cyclohexane boat 1 <=> Cyclohexane boat 2



     GRADIENTS WERE INITIALLY ACCEPTABLY SMALL                
     SCF FIELD WAS ACHIEVED                                   


                              PM7 CALCULATION
                                                       MOPAC2012 (Version: 15.317W)
                                                       Fri Nov 13 10:45:12 2015
                                                       No. of days left = 365




          FINAL HEAT OF FORMATION =        -23.46211 KCAL/MOL =     -98.16547 KJ/MOL


          TOTAL ENERGY            =       -899.53496 EV
          ELECTRONIC ENERGY       =      -4338.98984 EV  POINT GROUP:     C2v 
          CORE-CORE REPULSION     =       3439.45488 EV
          COSMO AREA              =        134.37 SQUARE ANGSTROMS
          COSMO VOLUME            =        127.84 CUBIC ANGSTROMS

          GRADIENT NORM           =          0.20107
          IONIZATION POTENTIAL    =         10.596235 EV
          HOMO LUMO ENERGIES (EV) =        -10.596  4.034
          NO. OF FILLED LEVELS    =         18
          MOLECULAR WEIGHT        =         84.161

          MOLECULAR DIMENSIONS (Angstroms)

            Atom       Atom       Distance
            H    16    H     9     4.90741
            H    17    H    13     4.31409
            H    14    H    10     2.77417


          SCF CALCULATIONS        =          1
 
          WALL-CLOCK TIME         =          0.031 SECONDS
          COMPUTATION TIME        =          0.078 SECONDS




   ATOM                 CHEMICAL                   X               Y               Z
  NUMBER                 SYMBOL               (ANGSTROMS)     (ANGSTROMS)     (ANGSTROMS)
 
     1       C(HETATM    1  C   HET A   1)   -0.27572085  *  -0.74815382  *   0.10152714  *
     2       C(HETATM    2  C   HET A   1)    0.68198588  *   0.01444871  *   1.02525742  *
     3       C(HETATM    3  C   HET A   1)    1.80491657  *   0.68290049  *   0.22266008  *
     4       C(HETATM    4  C   HET A   1)    1.26402130  *   1.56468509  *  -0.91857431  *
     5       C(HETATM    5  C   HET A   1)   -0.26841307  *   1.56566200  *  -0.97664981  *
     6       C(HETATM    6  C   HET A   1)   -0.81417428  *   0.13394316  *  -1.04056890  *
     7       H(HETATM    8  H   HET A   1)    0.24570342  *  -1.62600702  *  -0.32321195  *
     8       H(HETATM    7  H   HET A   1)   -1.11584263  *  -1.15353684  *   0.69387162  *
     9       H(HETATM    9  H   HET A   1)    1.11313949  *  -0.67571550  *   1.77358505  *
    10       H(HETATM   10  H   HET A   1)    0.12455968  *   0.77607386  *   1.60208682  *
    11       H(HETATM   11  H   HET A   1)    2.47081919  *  -0.09519921  *  -0.19453073  *
    12       H(HETATM   12  H   HET A   1)    2.43446574  *   1.28715170  *   0.90055702  *
    13       H(HETATM   14  H   HET A   1)    1.63080838  *   2.60040051  *  -0.80221577  *
    14       H(HETATM   13  H   HET A   1)    1.66721789  *   1.20827817  *  -1.88470268  *
    15       H(HETATM   15  H   HET A   1)   -0.68038502  *   2.08877014  *  -0.09345410  *
    16       H(HETATM   16  H   HET A   1)   -0.61241769  *   2.14034967  *  -1.85614161  *
    17       H(HETATM   17  H   HET A   1)   -1.91844658  *   0.15699535  *  -1.01182909  *
    18       H(HETATM   18  H   HET A   1)   -0.54680411  *  -0.31714979  *  -2.01431188  *

                             CARTESIAN COORDINATES

   1    C       -0.275720850    -0.748153820     0.101527140
   2    C        0.681985880     0.014448710     1.025257420
   3    C        1.804916570     0.682900490     0.222660080
   4    C        1.264021300     1.564685090    -0.918574310
   5    C       -0.268413070     1.565662000    -0.976649810
   6    C       -0.814174280     0.133943160    -1.040568900
   7    H        0.245703420    -1.626007020    -0.323211950
   8    H       -1.115842630    -1.153536840     0.693871620
   9    H        1.113139490    -0.675715500     1.773585050
  10    H        0.124559680     0.776073860     1.602086820
  11    H        2.470819190    -0.095199210    -0.194530730
  12    H        2.434465740     1.287151700     0.900557020
  13    H        1.630808380     2.600400510    -0.802215770
  14    H        1.667217890     1.208278170    -1.884702680
  15    H       -0.680385020     2.088770140    -0.093454100
  16    H       -0.612417690     2.140349670    -1.856141610
  17    H       -1.918446580     0.156995350    -1.011829090
  18    H       -0.546804110    -0.317149790    -2.014311880


           Empirical Formula: C6 H12  =    18 atoms



      MOLECULAR POINT GROUP   :   C2v 


                  EIGENVALUES  
 -29.96880 -25.69279 -25.65155 -21.20748 -20.65400 -17.42738 -16.70697 -16.39013
 -14.91106 -13.56843 -13.00928 -12.75110 -12.65962 -12.32824 -11.97868 -10.92762
 -10.73757 -10.59623   4.03444   4.17008   4.46674   4.58459   4.83943   5.34030
   5.50055   5.66980   5.89208   6.04535   6.27613   6.34892   6.48992   6.70336
   6.75880   6.80644   6.84766   6.88233


              NET ATOMIC CHARGES AND DIPOLE CONTRIBUTIONS

  ATOM NO.                 TYPE                        CHARGE      No. of ELECS.   s-Pop       p-Pop       
    1          C(HETATM    1  C   HET A   1)          -0.261694        4.2617     1.05845     3.20324
    2          C(HETATM    2  C   HET A   1)          -0.256682        4.2567     1.05748     3.19920
    3          C(HETATM    3  C   HET A   1)          -0.261680        4.2617     1.05845     3.20323
    4          C(HETATM    4  C   HET A   1)          -0.261694        4.2617     1.05845     3.20324
    5          C(HETATM    5  C   HET A   1)          -0.256687        4.2567     1.05746     3.19923
    6          C(HETATM    6  C   HET A   1)          -0.261673        4.2617     1.05845     3.20322
    7          H(HETATM    8  H   HET A   1)           0.131543        0.8685     0.86846
    8          H(HETATM    7  H   HET A   1)           0.127359        0.8726     0.87264
    9          H(HETATM    9  H   HET A   1)           0.126256        0.8737     0.87374
   10          H(HETATM   10  H   HET A   1)           0.135913        0.8641     0.86409
   11          H(HETATM   11  H   HET A   1)           0.131554        0.8684     0.86845
   12          H(HETATM   12  H   HET A   1)           0.127350        0.8727     0.87265
   13          H(HETATM   14  H   HET A   1)           0.127333        0.8727     0.87267
   14          H(HETATM   13  H   HET A   1)           0.131584        0.8684     0.86842
   15          H(HETATM   15  H   HET A   1)           0.136035        0.8640     0.86397
   16          H(HETATM   16  H   HET A   1)           0.126257        0.8737     0.87374
   17          H(HETATM   17  H   HET A   1)           0.127328        0.8727     0.87267
   18          H(HETATM   18  H   HET A   1)           0.131599        0.8684     0.86840
 DIPOLE           X         Y         Z       TOTAL
 POINT-CHG.    -0.002     0.002     0.004     0.005
 HYBRID         0.010    -0.013    -0.014     0.021
 SUM            0.008    -0.010    -0.010     0.016


          ATOMIC ORBITAL ELECTRON POPULATIONS

                   Atom                  s        px        py        pz   
   C(HETATM    1  C   HET A   1)   1.05845   1.09002   1.06506   1.04816
   C(HETATM    2  C   HET A   1)   1.05748   1.04526   1.10197   1.05197
   C(HETATM    3  C   HET A   1)   1.05845   1.05345   1.09267   1.05710
   C(HETATM    4  C   HET A   1)   1.05845   1.01780   1.10391   1.08153
   C(HETATM    5  C   HET A   1)   1.05746   1.01386   1.03377   1.15160
   C(HETATM    6  C   HET A   1)   1.05845   1.10841   1.01570   1.07911
   H(HETATM    8  H   HET A   1)   0.86846
   H(HETATM    7  H   HET A   1)   0.87264
   H(HETATM    9  H   HET A   1)   0.87374
   H(HETATM   10  H   HET A   1)   0.86409
   H(HETATM   11  H   HET A   1)   0.86845
   H(HETATM   12  H   HET A   1)   0.87265
   H(HETATM   14  H   HET A   1)   0.87267
   H(HETATM   13  H   HET A   1)   0.86842
   H(HETATM   15  H   HET A   1)   0.86397
   H(HETATM   16  H   HET A   1)   0.87374
   H(HETATM   17  H   HET A   1)   0.87267
   H(HETATM   18  H   HET A   1)   0.86840
 *******************************************************************************
 ** Site#: 10005        For non-commercial use only     Version 15.317W 64BITS**
 *******************************************************************************
 ** Cite this work as:                                                        **
 **                                                                           **
 ** (a) MOPAC2012, James J. P. Stewart, Stewart Computational Chemistry,      **
 **  Version 15.317W web: HTTP://OpenMOPAC.net         Days remaining: 365    **
 **                                                                           **
 **                                 AND                                       **
 **                                                                           **
 ** (b) Maia, J.D.C., et al., J. Chem. Theory Comput. 2012, 8, 3072-3081.     **
 **                DOI: 10.1021/ct3004645.                                    **
 *******************************************************************************
 **                                                                           **
 **                                MOPAC2012                                  **
 **                                                                           **
 *******************************************************************************

                              PM7 CALCULATION RESULTS


 *******************************************************************************
 *  CALCULATION DONE:                                Fri Nov 13 10:45:12 2015  *
 *  IRC=N      - INTRINSIC REACTION COORDINATE  1 DEFINED
 *  DRC        - DYNAMIC REACTION COORDINATE CALCULATION
 *  OLDGEO     - PREVIOUS GEOMETRY TO BE USED
 *  PRECISE    - CRITERIA TO BE INCREASED BY 100 TIMES
 *  T=         - A TIME OF 172800.0 SECONDS REQUESTED
 *  DUMP=N     - RESTART FILE WRITTEN EVERY  7200.000 SECONDS
 *  CYCLES=    - DO A MAXIMUM OF   100 STEPS
 *  GNORM=     - EXIT WHEN GRADIENT NORM DROPS BELOW   0.00    
 *  T-PRIOR    - TIME TAKES PRIORITY IN DRC
 *******************************************************************************
oldgeo   IRC=1* HTML  precise t-priority=2 DRC cycles=100 gnorm=0
 Dynamic Reaction Coordinate for interconversion of Cyclohexane boat 1 <=> Cyclohxane boat 2

   ATOM                 CHEMICAL                   X               Y               Z
  NUMBER                 SYMBOL               (ANGSTROMS)     (ANGSTROMS)     (ANGSTROMS)
 
     1       C(HETATM    1  C   HET A   1)   -0.27572085  *  -0.74815382  *   0.10152714  *
     2       C(HETATM    2  C   HET A   1)    0.68198588  *   0.01444871  *   1.02525742  *
     3       C(HETATM    3  C   HET A   1)    1.80491657  *   0.68290049  *   0.22266008  *
     4       C(HETATM    4  C   HET A   1)    1.26402130  *   1.56468509  *  -0.91857431  *
     5       C(HETATM    5  C   HET A   1)   -0.26841307  *   1.56566200  *  -0.97664981  *
     6       C(HETATM    6  C   HET A   1)   -0.81417428  *   0.13394316  *  -1.04056890  *
     7       H(HETATM    7 1HT1 HET A   1)    0.24570342  *  -1.62600702  *  -0.32321195  *
     8       H(HETATM    8 2HT1 HET A   1)   -1.11584263  *  -1.15353684  *   0.69387162  *
     9       H(HETATM    9 1HT2 HET A   1)    1.11313949  *  -0.67571550  *   1.77358505  *
    10       H(HETATM   10 2HT2 HET A   1)    0.12455968  *   0.77607386  *   1.60208682  *
    11       H(HETATM   11 1HT3 HET A   1)    2.47081919  *  -0.09519921  *  -0.19453073  *
    12       H(HETATM   12 2HT3 HET A   1)    2.43446574  *   1.28715170  *   0.90055702  *
    13       H(HETATM   13 1HT4 HET A   1)    1.63080838  *   2.60040051  *  -0.80221577  *
    14       H(HETATM   14 2HT4 HET A   1)    1.66721789  *   1.20827817  *  -1.88470268  *
    15       H(HETATM   15 1HT5 HET A   1)   -0.68038502  *   2.08877014  *  -0.09345410  *
    16       H(HETATM   16 2HT5 HET A   1)   -0.61241769  *   2.14034967  *  -1.85614161  *
    17       H(HETATM   17 1HT6 HET A   1)   -1.91844658  *   0.15699535  *  -1.01182909  *
    18       H(HETATM   18 2HT6 HET A   1)   -0.54680411  *  -0.31714979  *  -2.01431188  *
 

 General Reference for PM7:
 "Optimization of Parameters for Semiempirical Methods VI: More Modifications to the 
 NDDO Approximations and Re-optimization of Parameters", J. J. P. Stewart, J. Mol. Mod., 1:32, 19 (2013)
 http://www.springerlink.com/openurl.asp?genre=article&id=doi:10.1007/s00894-012-1667-x

           Empirical Formula: C6 H12  =    18 atoms



      MOLECULAR POINT GROUP   :   C2v 


      RHF CALCULATION, NO. OF DOUBLY OCCUPIED LEVELS =   18



          HEAT OF FORMATION =     -23.462112 KCALS/MOLE


          GRADIENT NORM =   0.17282


          TIME FOR SCF CALCULATION =    0.02

          TIME FOR DERIVATIVES     =    0.00

          MOLECULAR WEIGHT =   84.16


          ESTIMATED TIME TO COMPLETE CALCULATION =        3.38 SECONDS

    FOR POINT-GROUP C2v  THERE ARE   4 UNIQUE SYMMETRY FUNCTIONS.

 STEP:   1 TIME =     0.02 SECS, INTEGRAL =      0.02 TIME LEFT: 172799.97
 STEP:   2 TIME =     0.02 SECS, INTEGRAL =      0.03 TIME LEFT: 172799.95
 STEP:   3 TIME =     0.02 SECS, INTEGRAL =      0.05 TIME LEFT: 172799.94
 STEP:   4 TIME =     0.03 SECS, INTEGRAL =      0.08 TIME LEFT: 172799.91
 STEP:   5 TIME =     0.02 SECS, INTEGRAL =      0.09 TIME LEFT: 172799.89
 STEP:   6 TIME =     0.02 SECS, INTEGRAL =      0.11 TIME LEFT: 172799.88
 STEP:   7                       INTEGRAL =      0.11 TIME LEFT: 172799.88
 STEP:   8                       INTEGRAL =      0.11 TIME LEFT: 172799.88
 STEP:   9                       INTEGRAL =      0.11 TIME LEFT: 172799.88
 STEP:  10                       INTEGRAL =      0.11 TIME LEFT: 172799.88
 STEP:  11                       INTEGRAL =      0.11 TIME LEFT: 172799.88
 STEP:  12                       INTEGRAL =      0.11 TIME LEFT: 172799.88
 STEP:  13                       INTEGRAL =      0.11 TIME LEFT: 172799.88
 STEP:  14                       INTEGRAL =      0.11 TIME LEFT: 172799.88
 STEP:  15                       INTEGRAL =      0.11 TIME LEFT: 172799.88
 STEP:  16                       INTEGRAL =      0.11 TIME LEFT: 172799.88
 STEP:  17                       INTEGRAL =      0.11 TIME LEFT: 172799.88
 STEP:  18                       INTEGRAL =      0.11 TIME LEFT: 172799.88
 STEP:  19 TIME =     0.02 SECS, INTEGRAL =      0.12 TIME LEFT: 172799.86
 STEP:  20 TIME =     0.03 SECS, INTEGRAL =      0.16 TIME LEFT: 172799.83
 STEP:  21 TIME =     0.02 SECS, INTEGRAL =      0.17 TIME LEFT: 172799.81
 STEP:  22 TIME =     0.03 SECS, INTEGRAL =      0.20 TIME LEFT: 172799.78
 STEP:  23 TIME =     0.02 SECS, INTEGRAL =      0.22 TIME LEFT: 172799.77
 STEP:  24 TIME =     0.02 SECS, INTEGRAL =      0.23 TIME LEFT: 172799.75
 STEP:  25 TIME =     0.03 SECS, INTEGRAL =      0.27 TIME LEFT: 172799.72
 STEP:  26 TIME =     0.02 SECS, INTEGRAL =      0.28 TIME LEFT: 172799.70
 STEP:  27 TIME =     0.02 SECS, INTEGRAL =      0.30 TIME LEFT: 172799.69
 STEP:  28 TIME =     0.02 SECS, INTEGRAL =      0.31 TIME LEFT: 172799.67
 STEP:  29 TIME =     0.02 SECS, INTEGRAL =      0.33 TIME LEFT: 172799.66
 STEP:  30 TIME =     0.03 SECS, INTEGRAL =      0.36 TIME LEFT: 172799.62
 STEP:  31                       INTEGRAL =      0.36 TIME LEFT: 172799.62
 STEP:  32                       INTEGRAL =      0.36 TIME LEFT: 172799.62
 STEP:  33                       INTEGRAL =      0.36 TIME LEFT: 172799.62
 STEP:  34                       INTEGRAL =      0.36 TIME LEFT: 172799.62
 STEP:  35                       INTEGRAL =      0.36 TIME LEFT: 172799.62
 STEP:  36                       INTEGRAL =      0.36 TIME LEFT: 172799.62
 STEP:  37                       INTEGRAL =      0.36 TIME LEFT: 172799.62
 STEP:  38                       INTEGRAL =      0.36 TIME LEFT: 172799.62
 STEP:  39                       INTEGRAL =      0.36 TIME LEFT: 172799.62
 STEP:  40                       INTEGRAL =      0.36 TIME LEFT: 172799.62
 STEP:  41                       INTEGRAL =      0.36 TIME LEFT: 172799.62
 STEP:  42                       INTEGRAL =      0.36 TIME LEFT: 172799.62
 STEP:  43                       INTEGRAL =      0.36 TIME LEFT: 172799.62
 STEP:  44                       INTEGRAL =      0.36 TIME LEFT: 172799.62
 STEP:  45                       INTEGRAL =      0.36 TIME LEFT: 172799.62
 STEP:  46                       INTEGRAL =      0.36 TIME LEFT: 172799.62
 STEP:  47                       INTEGRAL =      0.36 TIME LEFT: 172799.62
 STEP:  48                       INTEGRAL =      0.36 TIME LEFT: 172799.62
 STEP:  49                       INTEGRAL =      0.36 TIME LEFT: 172799.62
 STEP:  50                       INTEGRAL =      0.36 TIME LEFT: 172799.62
 STEP:  51                       INTEGRAL =      0.36 TIME LEFT: 172799.62
 STEP:  52                       INTEGRAL =      0.36 TIME LEFT: 172799.62
 STEP:  53                       INTEGRAL =      0.36 TIME LEFT: 172799.62
 STEP:  54                       INTEGRAL =      0.36 TIME LEFT: 172799.62
           INITIAL VELOCITY IN DRC (Angstroms/Femtosecond)
        -0.00579         0.02958        -0.01742
        -0.00626        -0.00431        -0.00001
         0.02552        -0.01599         0.01746
        -0.02121         0.00975        -0.02584
         0.00627         0.00431         0.00001
         0.00147        -0.02334         0.02580
         0.01449         0.09489         0.00024
        -0.03077         0.03367        -0.08105
        -0.00771        -0.00531        -0.00001
        -0.02912        -0.02005        -0.00005
         0.09382        -0.02033        -0.00004
         0.02027        -0.04090         0.08104
        -0.04294         0.07372        -0.03707
        -0.05786        -0.03172        -0.06973
         0.02913         0.02005         0.00005
         0.00772         0.00531         0.00001
         0.05345        -0.06649         0.03709
        -0.05046        -0.04285         0.06953
 THE VIBRATIONAL FREQUENCY (   -53.12CM(-1)) IS TOO SMALL
 FOR ONE QUANTUM TO BE USED
 INSTEAD 0.3KCAL/MOLE WILL BE USED TO START THE IRC

 TIME PRIORITY, INTERVAL = 2.00 FEMTOSECONDS



 FEMTOSECONDS  POINT  POTENTIAL + KINETIC  =   TOTAL     ERROR    REF%   MOVEMENT
     0.000       1   -23.46211    0.30000   -23.16211   0.00000     1   %  0.0000
     2.000       3   -23.46230    0.30008   -23.16223  -0.00012     2   %  0.0864
     4.000       3   -23.46297    0.30065   -23.16232  -0.00021     3   %  0.1729
     6.000       8   -23.46409    0.30166   -23.16243  -0.00032     4   %  0.2595
     8.000      11   -23.46575    0.30314   -23.16260  -0.00049     5   %  0.3463
    10.000      14   -23.46786    0.30564   -23.16222  -0.00011     6   %  0.4335
    12.000      16   -23.47042    0.30821   -23.16221  -0.00010     7   %  0.5210
    14.000      19   -23.47349    0.31128   -23.16222  -0.00010     8   %  0.6090
    16.000      22   -23.47703    0.31480   -23.16223  -0.00012     9   %  0.6975
    18.000      24   -23.48108    0.31885   -23.16224  -0.00012    10   %  0.7866
    20.000      27   -23.48572    0.32331   -23.16240  -0.00029    11   %  0.8762
    22.000      30   -23.49084    0.32853   -23.16231  -0.00019    12   %  0.9664
    24.000      32   -23.49644    0.33420   -23.16224  -0.00013    13   %  1.0574
    26.000      35   -23.50257    0.34035   -23.16222  -0.00010    14   %  1.1491
    28.000      38   -23.50915    0.34692   -23.16223  -0.00011    15   %  1.2417
    30.000      40   -23.51624    0.35401   -23.16224  -0.00012    16   %  1.3351
    32.000      43   -23.52393    0.36169   -23.16224  -0.00012    17   %  1.4294
    34.000      46   -23.53208    0.36984   -23.16224  -0.00012    18   %  1.5247
    36.000      48   -23.54076    0.37853   -23.16223  -0.00011    19   %  1.6211
    38.000      51   -23.54999    0.38774   -23.16225  -0.00013    20   %  1.7187
    40.000      54   -23.55970    0.39744   -23.16225  -0.00013    21   %  1.8176
    42.000      56   -23.56999    0.40774   -23.16225  -0.00013    22   %  1.9177
    44.000      59   -23.58090    0.41865   -23.16225  -0.00013    23   %  2.0191
    46.000      62   -23.59230    0.43004   -23.16226  -0.00014    24   %  2.1219
    48.000      64   -23.60423    0.44197   -23.16226  -0.00014    25   %  2.2262
    50.000      67   -23.61671    0.45446   -23.16225  -0.00013    26   %  2.3321
    52.000      70   -23.62964    0.46738   -23.16226  -0.00014    27   %  2.4395
    54.000      72   -23.64316    0.48090   -23.16226  -0.00014    28   %  2.5484
    56.000      75   -23.65727    0.49502   -23.16225  -0.00013    29   %  2.6589
    58.000      78   -23.67180    0.50956   -23.16225  -0.00012    30   %  2.7710
    60.000      80   -23.68682    0.52456   -23.16226  -0.00013    31   %  2.8850
    62.000      83   -23.70224    0.53998   -23.16226  -0.00013    32   %  3.0008
    64.000      86   -23.71796    0.55569   -23.16227  -0.00014    33   %  3.1184
    66.000      88   -23.73410    0.57184   -23.16226  -0.00013    34   %  3.2378
    68.000      91   -23.75057    0.58830   -23.16226  -0.00013    35   %  3.3589
    70.000      94   -23.76715    0.60488   -23.16228  -0.00015    36   %  3.4818
    72.000      96   -23.78390    0.62166   -23.16224  -0.00011    37   %  3.6068
    74.000      99   -23.80067    0.63841   -23.16227  -0.00013    38   %  3.7337
    76.000     102   -23.81734    0.65505   -23.16229  -0.00016    39   %  3.8624
    78.000     104   -23.83402    0.67172   -23.16229  -0.00016    40   %  3.9928
    80.000     107   -23.85049    0.68819   -23.16230  -0.00017    41   %  4.1248
    82.000     110   -23.86652    0.70421   -23.16230  -0.00017    42   %  4.2585
    84.000     112   -23.88211    0.71980   -23.16231  -0.00017    43   %  4.3941
    86.000     115   -23.89703    0.73469   -23.16233  -0.00019    44   %  4.5315
    88.000     118   -23.91117    0.74885   -23.16232  -0.00019    45   %  4.6704
    90.000     120   -23.92465    0.76236   -23.16229  -0.00015    46   %  4.8105
    92.000     123   -23.93715    0.77483   -23.16232  -0.00018    47   %  4.9519
    94.000     126   -23.94845    0.78613   -23.16232  -0.00018    48   %  5.0946
    96.000     128   -23.95855    0.79625   -23.16231  -0.00017    49   %  5.2387
    98.000     131   -23.96717    0.80482   -23.16235  -0.00021    50   %  5.3839
   100.000     134   -23.97429    0.81193   -23.16236  -0.00022    51   %  5.5298
   102.000     136   -23.98002    0.81765   -23.16237  -0.00022    52   %  5.6761
   104.000     139   -23.98399    0.82159   -23.16240  -0.00025    53   %  5.8227
   106.000     142   -23.98608    0.82367   -23.16241  -0.00026    54   %  5.9697
   108.000     144   -23.98638    0.82400   -23.16238  -0.00023    55   %  6.1171
   110.000     147   -23.98463    0.82228   -23.16236  -0.00020    56   %  6.2647
   112.000     150   -23.98105    0.81869   -23.16236  -0.00021    57   %  6.4118
   114.000     152   -23.97587    0.81349   -23.16238  -0.00023    58   %  6.5583
   116.000     155   -23.96882    0.80641   -23.16241  -0.00026    59   %  6.7040
   118.000     158   -23.96007    0.79769   -23.16239  -0.00023    60   %  6.8491
   120.000     160   -23.94985    0.78747   -23.16239  -0.00023    61   %  6.9936
   122.000     163   -23.93807    0.77568   -23.16239  -0.00023    62   %  7.1369
   124.000     166   -23.92520    0.76280   -23.16240  -0.00024    63   %  7.2785
   126.000     168   -23.91160    0.74922   -23.16238  -0.00022    64   %  7.4180
   128.000     171   -23.89711    0.73475   -23.16236  -0.00020    65   %  7.5555
   130.000     174   -23.88218    0.71980   -23.16238  -0.00022    66   %  7.6911
   132.000     176   -23.86708    0.70472   -23.16235  -0.00019    67   %  7.8248
   134.000     179   -23.85175    0.68941   -23.16234  -0.00017    68   %  7.9561
   136.000     182   -23.83681    0.67444   -23.16236  -0.00020    69   %  8.0844
   138.000     184   -23.82243    0.66008   -23.16235  -0.00018    70   %  8.2096
   140.000     187   -23.80836    0.64598   -23.16238  -0.00021    71   %  8.3321
   142.000     190   -23.79506    0.63272   -23.16234  -0.00017    72   %  8.4521
   144.000     192   -23.78251    0.62021   -23.16231  -0.00014    73   %  8.5696
   146.000     195   -23.77048    0.60821   -23.16227  -0.00010    74   %  8.6843
   148.000     198   -23.75946    0.59715   -23.16231  -0.00014    75   %  8.7957
   150.000     200   -23.74926    0.58691   -23.16234  -0.00017    76   %  8.9038
   152.000     203   -23.73941    0.57704   -23.16238  -0.00021    77   %  9.0089
   154.000     206   -23.73025    0.56790   -23.16235  -0.00018    78   %  9.1117
   156.000     208   -23.72140    0.55907   -23.16233  -0.00015    79   %  9.2121
   158.000     211   -23.71243    0.55009   -23.16234  -0.00017    80   %  9.3097
   160.000     214   -23.70377    0.54144   -23.16234  -0.00016    81   %  9.4042
   162.000     216   -23.69495    0.53262   -23.16232  -0.00015    82   %  9.4958
   164.000     219   -23.68553    0.52318   -23.16235  -0.00017    83   %  9.5852
   166.000     222   -23.67594    0.51362   -23.16231  -0.00014    84   %  9.6729
   168.000     224   -23.66569    0.50337   -23.16232  -0.00014    85   %  9.7591
   170.000     227   -23.65458    0.49225   -23.16233  -0.00015    86   %  9.8433
   172.000     230   -23.64324    0.48095   -23.16229  -0.00011    87   %  9.9253
   174.000     232   -23.63114    0.46882   -23.16232  -0.00014    88   % 10.0053
   176.000     235   -23.61817    0.45585   -23.16232  -0.00014    89   % 10.0842
   178.000     238   -23.60502    0.44274   -23.16228  -0.00010    90   % 10.1627
   180.000     240   -23.59119    0.42890   -23.16229  -0.00011    91   % 10.2406
   182.000     243   -23.57685    0.41454   -23.16231  -0.00013    92   % 10.3175
   184.000     246   -23.56289    0.40060   -23.16229  -0.00011    93   % 10.3930
   186.000     248   -23.54875    0.38643   -23.16232  -0.00013    94   % 10.4676
   188.000     251   -23.53467    0.37237   -23.16231  -0.00013    95   % 10.5423
   190.000     254   -23.52151    0.35923   -23.16228  -0.00009    96   % 10.6176
   192.000     256   -23.50862    0.34632   -23.16230  -0.00011    97   % 10.6933
   194.000     259   -23.49643    0.33413   -23.16229  -0.00011    98   % 10.7687
   196.000     262   -23.48577    0.32349   -23.16229  -0.00010    99   % 10.8437
   198.000     264   -23.47584    0.31354   -23.16230  -0.00012   100   % 10.9186


           INITIAL VELOCITY IN DRC (Angstroms/Femtosecond)
         0.00579        -0.02958         0.01742
         0.00626         0.00431         0.00001
        -0.02552         0.01599        -0.01746
         0.02121        -0.00975         0.02584
        -0.00627        -0.00431        -0.00001
        -0.00147         0.02334        -0.02580
        -0.01449        -0.09489        -0.00024
         0.03077        -0.03367         0.08105
         0.00771         0.00531         0.00001
         0.02912         0.02005         0.00005
        -0.09382         0.02033         0.00004
        -0.02027         0.04090        -0.08104
         0.04294        -0.07372         0.03707
         0.05786         0.03172         0.06973
        -0.02913        -0.02005        -0.00005
        -0.00772        -0.00531        -0.00001
        -0.05345         0.06649        -0.03709
         0.05046         0.04285        -0.06953
 THE VIBRATIONAL FREQUENCY (   -53.12CM(-1)) IS TOO SMALL
 FOR ONE QUANTUM TO BE USED
 INSTEAD 0.3KCAL/MOLE WILL BE USED TO START THE IRC

 TIME PRIORITY, INTERVAL = 2.00 FEMTOSECONDS



 FEMTOSECONDS  POINT  POTENTIAL + KINETIC  =   TOTAL     ERROR    REF%   MOVEMENT
     0.000       1   -23.46211    0.30000   -23.16211   0.00000     1   %  0.0000
     2.000       3   -23.46243    0.30021   -23.16223  -0.00012     2   %  0.0865
     4.000       3   -23.46322    0.30089   -23.16233  -0.00021     3   %  0.1730
     6.000       8   -23.46447    0.30204   -23.16243  -0.00032     4   %  0.2597
     8.000      11   -23.46625    0.30366   -23.16259  -0.00048     5   %  0.3467
    10.000      14   -23.46849    0.30627   -23.16221  -0.00010     6   %  0.4341
    12.000      16   -23.47118    0.30897   -23.16221  -0.00010     7   %  0.5218
    14.000      19   -23.47439    0.31217   -23.16221  -0.00010     8   %  0.6100
    16.000      22   -23.47806    0.31584   -23.16222  -0.00011     9   %  0.6986
    18.000      24   -23.48225    0.32002   -23.16223  -0.00012    10   %  0.7878
    20.000      27   -23.48702    0.32479   -23.16223  -0.00012    11   %  0.8775
    22.000      30   -23.49226    0.33004   -23.16222  -0.00011    12   %  0.9679
    24.000      32   -23.49800    0.33578   -23.16222  -0.00010    13   %  1.0590
    26.000      35   -23.50426    0.34203   -23.16223  -0.00011    14   %  1.1509
    28.000      38   -23.51097    0.34874   -23.16223  -0.00011    15   %  1.2436
    30.000      40   -23.51821    0.35597   -23.16223  -0.00012    16   %  1.3372
    32.000      43   -23.52603    0.36380   -23.16223  -0.00011    17   %  1.4318
    34.000      46   -23.53432    0.37209   -23.16222  -0.00011    18   %  1.5275
    36.000      48   -23.54313    0.38090   -23.16223  -0.00011    19   %  1.6243
    38.000      51   -23.55250    0.39025   -23.16225  -0.00013    20   %  1.7223
    40.000      54   -23.56235    0.40010   -23.16225  -0.00013    21   %  1.8215
    42.000      56   -23.57280    0.41056   -23.16224  -0.00012    22   %  1.9220
    44.000      59   -23.58386    0.42162   -23.16223  -0.00011    23   %  2.0238
    46.000      62   -23.59540    0.43316   -23.16224  -0.00012    24   %  2.1269
    48.000      64   -23.60748    0.44524   -23.16224  -0.00012    25   %  2.2316
    50.000      67   -23.62009    0.45784   -23.16226  -0.00014    26   %  2.3378
    52.000      70   -23.63316    0.47091   -23.16225  -0.00013    27   %  2.4456
    54.000      72   -23.64684    0.48459   -23.16225  -0.00013    28   %  2.5548
    56.000      75   -23.66108    0.49884   -23.16224  -0.00012    29   %  2.6658
    58.000      78   -23.67573    0.51348   -23.16225  -0.00012    30   %  2.7784
    60.000      80   -23.69086    0.52861   -23.16225  -0.00012    31   %  2.8930
    62.000      83   -23.70638    0.54412   -23.16226  -0.00013    32   %  3.0094
    64.000      86   -23.72219    0.55993   -23.16226  -0.00013    33   %  3.1275
    66.000      88   -23.73843    0.57617   -23.16226  -0.00013    34   %  3.2473
    68.000      91   -23.75495    0.59269   -23.16227  -0.00014    35   %  3.3689
    70.000      94   -23.77158    0.60931   -23.16227  -0.00014    36   %  3.4924
    72.000      96   -23.78835    0.62609   -23.16227  -0.00014    37   %  3.6178
    74.000      99   -23.80511    0.64284   -23.16227  -0.00014    38   %  3.7452
    76.000     102   -23.82176    0.65948   -23.16228  -0.00015    39   %  3.8743
    78.000     104   -23.83841    0.67613   -23.16228  -0.00015    40   %  4.0051
    80.000     107   -23.85480    0.69252   -23.16228  -0.00015    41   %  4.1376
    82.000     110   -23.87072    0.70843   -23.16229  -0.00015    42   %  4.2719
    84.000     112   -23.88617    0.72385   -23.16231  -0.00018    43   %  4.4082
    86.000     115   -23.90089    0.73859   -23.16230  -0.00016    44   %  4.5461
    88.000     118   -23.91483    0.75253   -23.16231  -0.00017    45   %  4.6855
    90.000     120   -23.92809    0.76579   -23.16230  -0.00016    46   %  4.8260
    92.000     123   -23.94029    0.77799   -23.16230  -0.00016    47   %  4.9678
    94.000     126   -23.95127    0.78895   -23.16232  -0.00018    48   %  5.1110
    96.000     128   -23.96102    0.79873   -23.16229  -0.00015    49   %  5.2554
    98.000     131   -23.96924    0.80691   -23.16233  -0.00019    50   %  5.4007
   100.000     134   -23.97597    0.81361   -23.16236  -0.00021    51   %  5.5467
   102.000     136   -23.98128    0.81896   -23.16232  -0.00017    52   %  5.6929
   104.000     139   -23.98477    0.82241   -23.16235  -0.00021    53   %  5.8396
   106.000     142   -23.98638    0.82401   -23.16237  -0.00022    54   %  5.9868
   108.000     144   -23.98617    0.82383   -23.16234  -0.00019    55   %  6.1344
   110.000     147   -23.98390    0.82156   -23.16234  -0.00018    56   %  6.2820
   112.000     150   -23.97985    0.81753   -23.16232  -0.00017    57   %  6.4292
   114.000     152   -23.97421    0.81186   -23.16235  -0.00020    58   %  6.5755
   116.000     155   -23.96669    0.80432   -23.16238  -0.00022    59   %  6.7212
   118.000     158   -23.95752    0.79514   -23.16239  -0.00023    60   %  6.8662
   120.000     160   -23.94690    0.78456   -23.16233  -0.00018    61   %  7.0105
   122.000     163   -23.93475    0.77239   -23.16236  -0.00020    62   %  7.1535
   124.000     166   -23.92163    0.75925   -23.16238  -0.00022    63   %  7.2946
   126.000     168   -23.90781    0.74543   -23.16237  -0.00021    64   %  7.4335
   128.000     171   -23.89314    0.73076   -23.16238  -0.00022    65   %  7.5703
   130.000     174   -23.87812    0.71577   -23.16235  -0.00018    66   %  7.7055
   132.000     176   -23.86296    0.70063   -23.16233  -0.00017    67   %  7.8386
   134.000     179   -23.84765    0.68532   -23.16233  -0.00017    68   %  7.9693
   136.000     182   -23.83282    0.67046   -23.16236  -0.00020    69   %  8.0969
   138.000     184   -23.81857    0.65622   -23.16235  -0.00018    70   %  8.2213
   140.000     187   -23.80466    0.64231   -23.16234  -0.00018    71   %  8.3431
   142.000     190   -23.79156    0.62926   -23.16230  -0.00013    72   %  8.4625
   144.000     192   -23.77919    0.61696   -23.16223  -0.00007    73   %  8.5795
   146.000     195   -23.76736    0.60509   -23.16228  -0.00011    74   %  8.6935
   148.000     198   -23.75659    0.59429   -23.16229  -0.00012    75   %  8.8040
   150.000     200   -23.74656    0.58424   -23.16233  -0.00016    76   %  8.9112
   152.000     203   -23.73687    0.57451   -23.16236  -0.00019    77   %  9.0157
   154.000     206   -23.72784    0.56554   -23.16230  -0.00013    78   %  9.1179
   156.000     208   -23.71902    0.55670   -23.16232  -0.00015    79   %  9.2177
   158.000     211   -23.71007    0.54774   -23.16233  -0.00016    80   %  9.3147
   160.000     214   -23.70143    0.53908   -23.16235  -0.00018    81   %  9.4084
   162.000     216   -23.69251    0.53020   -23.16232  -0.00014    82   %  9.4992
   164.000     219   -23.68299    0.52067   -23.16232  -0.00015    83   %  9.5880
   166.000     222   -23.67328    0.51098   -23.16230  -0.00013    84   %  9.6753
   168.000     224   -23.66284    0.50051   -23.16233  -0.00015    85   %  9.7610
   170.000     227   -23.65157    0.48924   -23.16233  -0.00015    86   %  9.8447
   172.000     230   -23.64008    0.47778   -23.16230  -0.00013    87   %  9.9261
   174.000     232   -23.62779    0.46547   -23.16232  -0.00014    88   % 10.0057
   176.000     235   -23.61468    0.45236   -23.16232  -0.00014    89   % 10.0843
   178.000     238   -23.60142    0.43914   -23.16228  -0.00010    90   % 10.1627
   180.000     240   -23.58745    0.42516   -23.16228  -0.00010    91   % 10.2406
   182.000     243   -23.57309    0.41078   -23.16231  -0.00013    92   % 10.3173
   184.000     246   -23.55915    0.39686   -23.16229  -0.00011    93   % 10.3927
   186.000     248   -23.54501    0.38270   -23.16231  -0.00013    94   % 10.4672
   188.000     251   -23.53107    0.36877   -23.16230  -0.00012    95   % 10.5418
   190.000     254   -23.51806    0.35579   -23.16227  -0.00008    96   % 10.6172
   192.000     256   -23.50531    0.34302   -23.16229  -0.00011    97   % 10.6930
   194.000     259   -23.49341    0.33112   -23.16228  -0.00010    98   % 10.7685
   196.000     262   -23.48305    0.32076   -23.16228  -0.00010    99   % 10.8433
   198.000     264   -23.47339    0.31109   -23.16230  -0.00011   100   % 10.9182



 **********************
 *                    *
 * JOB ENDED NORMALLY *
 *                    *
 **********************



 TOTAL JOB TIME:             2.50 SECONDS

 == MOPAC DONE ==
