 *******************************************************************************
 ** Site#: 10005        For non-commercial use only     Version 15.314W 64BITS**
 *******************************************************************************
 ** Cite this work as:                                                        **
 **                                                                           **
 ** (a) MOPAC2012, James J. P. Stewart, Stewart Computational Chemistry,      **
 **  Version 15.314W web: HTTP://OpenMOPAC.net         Days remaining: 365    **
 **                                                                           **
 **                                 AND                                       **
 **                                                                           **
 ** (b) Maia, J.D.C., et al., J. Chem. Theory Comput. 2012, 8, 3072-3081.     **
 **                DOI: 10.1021/ct3004645.                                    **
 *******************************************************************************
 **                                                                           **
 **                                MOPAC2012                                  **
 **                                                                           **
 *******************************************************************************

                              PM7 CALCULATION RESULTS


 *******************************************************************************
 *  CALCULATION DONE:                                Tue Nov 10 06:34:48 2015  *
 *  GEO_DAT    - DATA SET GEOMETRY IS IN FILE "SADDLE_TS.ARC"
 *  PRECISE    - CRITERIA TO BE INCREASED BY 100 TIMES
 *  TS         - USE EF ROUTINE FOR TS SEARCH
 *  INT        - INTERNAL COORDINATE SYSTEM TO BE USED
 *  T=         - A TIME OF 172800.0 SECONDS REQUESTED
 *  DUMP=N     - RESTART FILE WRITTEN EVERY  7200.000 SECONDS
 *******************************************************************************
 html precise int ts GEO_DAT="Saddle_TS.arc"
 Cyclohexane boat C2v

  ATOM               CHEMICAL                 BOND LENGTH      BOND ANGLE     TWIST ANGLE 
 NUMBER               SYMBOL                  (ANGSTROMS)      (DEGREES)       (DEGREES) 
   (I)                                           NA:I           NB:NA:I       NC:NB:NA:I       NA    NB    NC 
     1       C(HETATM    1  C   HET A   1)    0.00000000       0.0000000       0.0000000   
     2       C(HETATM    2  C   HET A   1)    1.52951992  *    0.0000000       0.0000000        1     0     0
     3       C(HETATM    3  C   HET A   1)    1.52873604  *  108.9430062  *    0.0000000        2     1     0
     4       C(HETATM    4  C   HET A   1)    1.53848404  *  113.9471872  *   49.7383593  *     3     2     1
     5       C(HETATM    5  C   HET A   1)    1.54181611  *  118.6504856  *   -9.6117873  *     4     3     2
     6       C(HETATM    6  C   HET A   1)    1.52844626  *  108.9767092  *  -70.8873825  *     1     2     3
     7       H(HETATM    7  H   HET A   1)    1.10483028  *  110.7726724  *  167.6836581  *     1     2     3
     8       H(HETATM    8  H   HET A   1)    1.10581915  *  110.2744087  *   50.5209779  *     1     2     3
     9       H(HETATM    9  H   HET A   1)    1.10443735  *  110.7824531  * -121.4045154  *     2     1     3
    10       H(HETATM   10  H   HET A   1)    1.10566738  *  110.2782624  *  121.3823720  *     2     1     3
    11       H(HETATM   11  H   HET A   1)    1.10799965  *  108.9432020  *  -72.3146741  *     3     2     1
    12       H(HETATM   12  H   HET A   1)    1.10638275  *  109.5816724  *  172.6875669  *     3     2     1
    13       H(HETATM   13  H   HET A   1)    1.10827979  *  107.9253265  * -132.8897245  *     4     3     2
    14       H(HETATM   14  H   HET A   1)    1.10804148  *  108.4418727  *  113.6847102  *     4     3     2
    15       H(HETATM   15  H   HET A   1)    1.10801323  *  107.7775685  * -134.7458638  *     5     4     3
    16       H(HETATM   16  H   HET A   1)    1.10829961  *  108.1030232  *  112.0607040  *     5     4     3
    17       H(HETATM   17  H   HET A   1)    1.10645210  *  109.5763496  *  172.3929404  *     6     1     2
    18       H(HETATM   18  H   HET A   1)    1.10776991  *  108.9629633  *  -72.5949762  *     6     1     2
 

     ===================== shared-memory parallel CPU Section ======================
     **                                                                           **
     **  MOPAC calculations will run in shared-memory parallel CPUs               **
     **                                                                           **
     **  Number of Threads =  4                                                   **
     **                                                                           **
     **                                                                           **
     **  For information on this work, see:                                       **
     **                                                                           **
     **  Maia, J.D.C., et al., J. Chem. Theory Comput. 2012, 8, 3072-3081.        **
     **        DOI: 10.1021/ct3004645.                                            **
     **                                                                           **
     ===================== shared-memory parallel CPU Section ======================
      


 General Reference for PM7:
 "Optimization of Parameters for Semiempirical Methods VI: More Modifications to the 
 NDDO Approximations and Re-optimization of Parameters", J. J. P. Stewart, J. Mol. Mod., 1:32, 19 (2013)
 http://www.springerlink.com/openurl.asp?genre=article&id=doi:10.1007/s00894-012-1667-x

           Empirical Formula: C6 H12  =    18 atoms



      MOLECULAR POINT GROUP   :   C2  


      RHF CALCULATION, NO. OF DOUBLY OCCUPIED LEVELS =   18

      Transition state refinement using EF

          HESSIAN CALCULATED NUMERICALLY

 CYCLE:     1 TIME:   0.188 TIME LEFT:  2.00D  GRAD.:     1.192 HEAT: -20.05073
 CYCLE:     2 TIME:   0.016 TIME LEFT:  2.00D  GRAD.:     0.054 HEAT: -20.05189
 CYCLE:     3 TIME:   0.000 TIME LEFT:  2.00D  GRAD.:     0.010 HEAT: -20.05189

     GRADIENT =  0.01033  IS LESS THAN CUTOFF =  0.05000



 -------------------------------------------------------------------------------
 html precise int ts GEO_DAT="Saddle_TS.arc"
 Cyclohexane boat C2v



     GEOMETRY OPTIMISED USING EIGENVECTOR FOLLOWING (TS).     
     SCF FIELD WAS ACHIEVED                                   


                              PM7 CALCULATION
                                                       MOPAC2012 (Version: 15.314W)
                                                       Tue Nov 10 06:34:49 2015
                                                       No. of days left = 365




          FINAL HEAT OF FORMATION =        -20.05189 KCAL/MOL =     -83.89709 KJ/MOL


          TOTAL ENERGY            =       -899.38528 EV
          ELECTRONIC ENERGY       =      -4320.08408 EV  POINT GROUP:     C2  
          CORE-CORE REPULSION     =       3420.69880 EV
          COSMO AREA              =        135.14 SQUARE ANGSTROMS
          COSMO VOLUME            =        128.99 CUBIC ANGSTROMS

          GRADIENT NORM           =          0.01033
          IONIZATION POTENTIAL    =         10.516476 EV
          HOMO LUMO ENERGIES (EV) =        -10.516  4.030
          NO. OF FILLED LEVELS    =         18
          MOLECULAR WEIGHT        =         84.161

          MOLECULAR DIMENSIONS (Angstroms)

            Atom       Atom       Distance
            H    17    H    12     4.94425
            H     7    H    13     4.17119
            H     8    H    16     3.39735


          SCF CALCULATIONS        =         52
 
          WALL-CLOCK TIME         =          0.219 SECONDS
          COMPUTATION TIME        =          0.827 SECONDS




  ATOM               CHEMICAL                 BOND LENGTH      BOND ANGLE     TWIST ANGLE 
 NUMBER               SYMBOL                  (ANGSTROMS)      (DEGREES)       (DEGREES) 
   (I)                                           NA:I           NB:NA:I       NC:NB:NA:I       NA    NB    NC 
     1       C(HETATM    1  C   HET A   1)    0.00000000       0.0000000       0.0000000   
     2       C(HETATM    2  C   HET A   1)    1.52955920  *    0.0000000       0.0000000        1     0     0
     3       C(HETATM    3  C   HET A   1)    1.52861677  *  108.8858976  *    0.0000000        2     1     0
     4       C(HETATM    4  C   HET A   1)    1.53871155  *  113.9458492  *   49.7423956  *     3     2     1
     5       C(HETATM    5  C   HET A   1)    1.54238666  *  118.6345745  *   -9.4608906  *     4     3     2
     6       C(HETATM    6  C   HET A   1)    1.52862514  *  108.8913854  *  -71.0863358  *     1     2     3
     7       H(HETATM    7  H   HET A   1)    1.10467459  *  110.8100091  *  167.4708821  *     1     2     3
     8       H(HETATM    8  H   HET A   1)    1.10584727  *  110.2748174  *   50.2671092  *     1     2     3
     9       H(HETATM    9  H   HET A   1)    1.10467117  *  110.8107907  * -121.4427231  *     2     1     3
    10       H(HETATM   10  H   HET A   1)    1.10584607  *  110.2759953  *  121.3509898  *     2     1     3
    11       H(HETATM   11  H   HET A   1)    1.10801982  *  108.9164795  *  -72.2939738  *     3     2     1
    12       H(HETATM   12  H   HET A   1)    1.10642275  *  109.5937415  *  172.7307207  *     3     2     1
    13       H(HETATM   13  H   HET A   1)    1.10856740  *  107.9202567  * -132.7581495  *     4     3     2
    14       H(HETATM   14  H   HET A   1)    1.10831172  *  108.4068445  *  113.8334950  *     4     3     2
    15       H(HETATM   15  H   HET A   1)    1.10831199  *  107.8079717  * -134.8565019  *     5     4     3
    16       H(HETATM   16  H   HET A   1)    1.10856995  *  108.1182146  *  111.9341093  *     5     4     3
    17       H(HETATM   17  H   HET A   1)    1.10642668  *  109.5901441  *  172.6714952  *     6     1     2
    18       H(HETATM   18  H   HET A   1)    1.10802116  *  108.9154307  *  -72.3561218  *     6     1     2

                             CARTESIAN COORDINATES

   1    C        0.000000000     0.000000000     0.000000000
   2    C        1.529559203     0.000000000     0.000000000
   3    C        2.024348828     1.446323776     0.000000000
   4    C        1.366650693     2.331378959     1.073193232
   5    C        0.163634566     1.770165520     1.858526459
   6    C       -0.494930862     0.468802984     1.368196636
   7    H       -0.392458034    -1.008018946    -0.224009937
   8    H       -0.383201954     0.663071360    -0.797741077
   9    H        1.922030106    -0.538652162    -0.880976063
  10    H        1.912782069    -0.539696899     0.885868519
  11    H        1.838995050     1.889380263    -0.998525335
  12    H        3.122760180     1.462704232     0.131891971
  13    H        1.051202272     3.277316513     0.588821348
  14    H        2.142799097     2.626436553     1.807284191
  15    H       -0.612117103     2.560597342     1.900744389
  16    H        0.479395383     1.617419776     2.910140068
  17    H       -1.593218834     0.599855536     1.340470080
  18    H       -0.310636122    -0.332643442     2.110779937


           Empirical Formula: C6 H12  =    18 atoms



      MOLECULAR POINT GROUP   :   C2  


                  EIGENVALUES  
 -29.78948 -25.83880 -25.79875 -20.97898 -20.72680 -17.98193 -16.28709 -15.96201
 -14.80171 -14.09955 -13.34488 -12.73624 -12.64229 -11.96061 -11.80281 -10.87964
 -10.84776 -10.51648   4.03003   4.10622   4.59044   4.68370   4.79718   5.23007
   5.43637   5.66810   5.98032   5.98993   6.22420   6.33442   6.49982   6.70609
   6.77074   6.82751   6.83919   6.84270


              NET ATOMIC CHARGES AND DIPOLE CONTRIBUTIONS

  ATOM NO.                 TYPE                        CHARGE      No. of ELECS.   s-Pop       p-Pop       
    1          C(HETATM    1  C   HET A   1)          -0.258655        4.2587     1.05638     3.20227
    2          C(HETATM    2  C   HET A   1)          -0.258651        4.2587     1.05638     3.20227
    3          C(HETATM    3  C   HET A   1)          -0.260042        4.2600     1.05756     3.20249
    4          C(HETATM    4  C   HET A   1)          -0.259120        4.2591     1.05848     3.20064
    5          C(HETATM    5  C   HET A   1)          -0.259120        4.2591     1.05848     3.20064
    6          C(HETATM    6  C   HET A   1)          -0.260042        4.2600     1.05756     3.20248
    7          H(HETATM    7  H   HET A   1)           0.126713        0.8733     0.87329
    8          H(HETATM    8  H   HET A   1)           0.137734        0.8623     0.86227
    9          H(HETATM    9  H   HET A   1)           0.126713        0.8733     0.87329
   10          H(HETATM   10  H   HET A   1)           0.137745        0.8623     0.86226
   11          H(HETATM   11  H   HET A   1)           0.130509        0.8695     0.86949
   12          H(HETATM   12  H   HET A   1)           0.127429        0.8726     0.87257
   13          H(HETATM   13  H   HET A   1)           0.128110        0.8719     0.87189
   14          H(HETATM   14  H   HET A   1)           0.127319        0.8727     0.87268
   15          H(HETATM   15  H   HET A   1)           0.127316        0.8727     0.87268
   16          H(HETATM   16  H   HET A   1)           0.128110        0.8719     0.87189
   17          H(HETATM   17  H   HET A   1)           0.127431        0.8726     0.87257
   18          H(HETATM   18  H   HET A   1)           0.130501        0.8695     0.86950
 DIPOLE           X         Y         Z       TOTAL
 POINT-CHG.    -0.000     0.066     0.047     0.081
 HYBRID        -0.000     0.045     0.032     0.055
 SUM           -0.000     0.111     0.079     0.136


          ATOMIC ORBITAL ELECTRON POPULATIONS

                   Atom                  s        px        py        pz   
   C(HETATM    1  C   HET A   1)   1.05638   1.01772   1.13392   1.05063
   C(HETATM    2  C   HET A   1)   1.05638   1.01772   1.03178   1.15277
   C(HETATM    3  C   HET A   1)   1.05756   1.10115   1.01486   1.08648
   C(HETATM    4  C   HET A   1)   1.05848   1.05751   1.07378   1.06935
   C(HETATM    5  C   HET A   1)   1.05848   1.05747   1.05201   1.09115
   C(HETATM    6  C   HET A   1)   1.05756   1.10106   1.05339   1.04803
   H(HETATM    7  H   HET A   1)   0.87329
   H(HETATM    8  H   HET A   1)   0.86227
   H(HETATM    9  H   HET A   1)   0.87329
   H(HETATM   10  H   HET A   1)   0.86226
   H(HETATM   11  H   HET A   1)   0.86949
   H(HETATM   12  H   HET A   1)   0.87257
   H(HETATM   13  H   HET A   1)   0.87189
   H(HETATM   14  H   HET A   1)   0.87268
   H(HETATM   15  H   HET A   1)   0.87268
   H(HETATM   16  H   HET A   1)   0.87189
   H(HETATM   17  H   HET A   1)   0.87257
   H(HETATM   18  H   HET A   1)   0.86950
 *******************************************************************************
 ** Site#: 10005        For non-commercial use only     Version 15.314W 64BITS**
 *******************************************************************************
 ** Cite this work as:                                                        **
 **                                                                           **
 ** (a) MOPAC2012, James J. P. Stewart, Stewart Computational Chemistry,      **
 **  Version 15.314W web: HTTP://OpenMOPAC.net         Days remaining: 365    **
 **                                                                           **
 **                                 AND                                       **
 **                                                                           **
 ** (b) Maia, J.D.C., et al., J. Chem. Theory Comput. 2012, 8, 3072-3081.     **
 **                DOI: 10.1021/ct3004645.                                    **
 *******************************************************************************
 **                                                                           **
 **                                MOPAC2012                                  **
 **                                                                           **
 *******************************************************************************

                              PM7 CALCULATION RESULTS


 *******************************************************************************
 *  CALCULATION DONE:                                Tue Nov 10 06:34:49 2015  *
 *  OLDGEO     - PREVIOUS GEOMETRY TO BE USED
 *  FORCE      - FORCE CALCULATION SPECIFIED
 *  T=         - A TIME OF 172800.0 SECONDS REQUESTED
 *  DUMP=N     - RESTART FILE WRITTEN EVERY  7200.000 SECONDS
 *******************************************************************************
Oldgeo FORCE
 Cyclohexane boat C2v

  ATOM               CHEMICAL                 BOND LENGTH      BOND ANGLE     TWIST ANGLE 
 NUMBER               SYMBOL                  (ANGSTROMS)      (DEGREES)       (DEGREES) 
   (I)                                           NA:I           NB:NA:I       NC:NB:NA:I       NA    NB    NC 
     1       C(HETATM    1  C   HET A   1)    0.00000000       0.0000000       0.0000000   
     2       C(HETATM    2  C   HET A   1)    1.52955920  *    0.0000000       0.0000000        1     0     0
     3       C(HETATM    3  C   HET A   1)    1.52861677  *  108.8858976  *    0.0000000        2     1     0
     4       C(HETATM    4  C   HET A   1)    1.53871155  *  113.9458492  *   49.7423956  *     3     2     1
     5       C(HETATM    5  C   HET A   1)    1.54238666  *  118.6345745  *   -9.4608906  *     4     3     2
     6       C(HETATM    6  C   HET A   1)    1.52862514  *  108.8913854  *  -71.0863358  *     1     2     3
     7       H(HETATM    7 1HT1 HET A   1)    1.10467459  *  110.8100091  *  167.4708821  *     1     2     3
     8       H(HETATM    8 2HT1 HET A   1)    1.10584727  *  110.2748174  *   50.2671092  *     1     2     3
     9       H(HETATM    9 1HT2 HET A   1)    1.10467117  *  110.8107907  * -121.4427231  *     2     1     3
    10       H(HETATM   10 2HT2 HET A   1)    1.10584607  *  110.2759953  *  121.3509898  *     2     1     3
    11       H(HETATM   11 1HT3 HET A   1)    1.10801982  *  108.9164795  *  -72.2939738  *     3     2     1
    12       H(HETATM   12 2HT3 HET A   1)    1.10642275  *  109.5937415  *  172.7307207  *     3     2     1
    13       H(HETATM   13 1HT4 HET A   1)    1.10856740  *  107.9202567  * -132.7581495  *     4     3     2
    14       H(HETATM   14 2HT4 HET A   1)    1.10831172  *  108.4068445  *  113.8334950  *     4     3     2
    15       H(HETATM   15 1HT5 HET A   1)    1.10831199  *  107.8079717  * -134.8565019  *     5     4     3
    16       H(HETATM   16 2HT5 HET A   1)    1.10856995  *  108.1182146  *  111.9341093  *     5     4     3
    17       H(HETATM   17 1HT6 HET A   1)    1.10642668  *  109.5901441  *  172.6714952  *     6     1     2
    18       H(HETATM   18 2HT6 HET A   1)    1.10802116  *  108.9154307  *  -72.3561218  *     6     1     2
 

 General Reference for PM7:
 "Optimization of Parameters for Semiempirical Methods VI: More Modifications to the 
 NDDO Approximations and Re-optimization of Parameters", J. J. P. Stewart, J. Mol. Mod., 1:32, 19 (2013)
 http://www.springerlink.com/openurl.asp?genre=article&id=doi:10.1007/s00894-012-1667-x

           Empirical Formula: C6 H12  =    18 atoms



      MOLECULAR POINT GROUP   :   C2  


      RHF CALCULATION, NO. OF DOUBLY OCCUPIED LEVELS =   18



          HEAT OF FORMATION =     -20.051885 KCALS/MOLE


          CARTESIAN COORDINATE DERIVATIVES

   NUMBER  ATOM         X            Y            Z

     1       C      0.000456    -0.003001     0.002901
     2       C     -0.001400     0.003708    -0.007910
     3       C     -0.000044    -0.002009     0.004402
     4       C      0.001115    -0.000139     0.001313
     5       C      0.000339    -0.000505    -0.001378
     6       C      0.001078     0.001692    -0.000497
     7       H      0.000035     0.000020     0.001822
     8       H     -0.000143    -0.001291    -0.000739
     9       H      0.000228     0.000564    -0.000080
    10       H      0.000180    -0.000325    -0.000121
    11       H      0.000138     0.000491     0.000282
    12       H      0.000423     0.000207    -0.000019
    13       H     -0.000317    -0.000042    -0.000301
    14       H     -0.000119    -0.000018    -0.000120
    15       H      0.000032    -0.000630    -0.000579
    16       H     -0.000922    -0.000383     0.000199
    17       H     -0.000323     0.000877    -0.000249
    18       H     -0.000756     0.000782     0.001072
 


          GRADIENT NORM =   0.01186

          MOLECULAR WEIGHT =   84.16



          ROTATIONAL CONSTANTS IN CM(-1)

          A =    0.14307874   B =    0.13887865   C =    0.08047396



           PRINCIPAL MOMENTS OF INERTIA IN UNITS OF 10**(-40)*GRAM-CM**2

          A =      195.6459   B =      201.5628   C =      347.8489


          ORIENTATION OF MOLECULE IN FORCE CALCULATION

    NO.       ATOM         X         Y         Z

     1          C      -0.7649   -1.0057   -0.7187
     2          C       0.7647   -1.0057   -0.7187
     3          C       1.2595    0.4406   -0.7187
     4          C       0.6018    1.3257    0.3544
     5          C      -0.6012    0.7645    1.1398
     6          C      -1.2598   -0.5369    0.6494
     7          H      -1.1573   -2.0137   -0.9428
     8          H      -1.1481   -0.3426   -1.5165
     9          H       1.1572   -1.5444   -1.5997
    10          H       1.1479   -1.5454    0.1671
    11          H       1.0741    0.8837   -1.7173
    12          H       2.3579    0.4570   -0.5869
    13          H       0.2863    2.2716   -0.1299
    14          H       1.3779    1.6207    1.0885
    15          H      -1.3770    1.5549    1.1820
    16          H      -0.2855    0.6117    2.1914
    17          H      -2.3581   -0.4059    0.6217
    18          H      -1.0755   -1.3383    1.3920


    FIRST DERIVATIVES WILL BE USED IN THE CALCULATION OF SECOND DERIVATIVES

    FOR POINT-GROUP C2   THERE ARE   2 UNIQUE SYMMETRY FUNCTIONS.

 STEP:   1 TIME =     0.00 SECS, INTEGRAL =      0.00 TIME LEFT: 172800.00
 STEP:   2 TIME =     0.02 SECS, INTEGRAL =      0.02 TIME LEFT: 172799.98
 STEP:   3 TIME =     0.00 SECS, INTEGRAL =      0.02 TIME LEFT: 172799.98
 STEP:   4                       INTEGRAL =      0.02 TIME LEFT: 172799.98
 STEP:   5                       INTEGRAL =      0.02 TIME LEFT: 172799.98
 STEP:   6                       INTEGRAL =      0.02 TIME LEFT: 172799.98
 STEP:   7 TIME =     0.02 SECS, INTEGRAL =      0.03 TIME LEFT: 172799.97
 STEP:   8 TIME =     0.00 SECS, INTEGRAL =      0.03 TIME LEFT: 172799.97
 STEP:   9 TIME =     0.01 SECS, INTEGRAL =      0.04 TIME LEFT: 172799.96
 STEP:  10 TIME =     0.00 SECS, INTEGRAL =      0.04 TIME LEFT: 172799.96
 STEP:  11 TIME =     0.02 SECS, INTEGRAL =      0.06 TIME LEFT: 172799.94
 STEP:  12 TIME =     0.00 SECS, INTEGRAL =      0.06 TIME LEFT: 172799.94
 STEP:  13                       INTEGRAL =      0.06 TIME LEFT: 172799.94
 STEP:  14                       INTEGRAL =      0.06 TIME LEFT: 172799.94
 STEP:  15                       INTEGRAL =      0.06 TIME LEFT: 172799.94
 STEP:  16                       INTEGRAL =      0.06 TIME LEFT: 172799.94
 STEP:  17                       INTEGRAL =      0.06 TIME LEFT: 172799.94
 STEP:  18                       INTEGRAL =      0.06 TIME LEFT: 172799.94
 STEP:  19 TIME =     0.02 SECS, INTEGRAL =      0.08 TIME LEFT: 172799.92
 STEP:  20 TIME =     0.00 SECS, INTEGRAL =      0.08 TIME LEFT: 172799.92
 STEP:  21 TIME =     0.02 SECS, INTEGRAL =      0.09 TIME LEFT: 172799.91
 STEP:  22 TIME =     0.00 SECS, INTEGRAL =      0.09 TIME LEFT: 172799.91
 STEP:  23 TIME =     0.02 SECS, INTEGRAL =      0.11 TIME LEFT: 172799.89
 STEP:  24 TIME =     0.00 SECS, INTEGRAL =      0.11 TIME LEFT: 172799.89
 STEP:  25                       INTEGRAL =      0.11 TIME LEFT: 172799.89
 STEP:  26                       INTEGRAL =      0.11 TIME LEFT: 172799.89
 STEP:  27                       INTEGRAL =      0.11 TIME LEFT: 172799.89
 STEP:  28                       INTEGRAL =      0.11 TIME LEFT: 172799.89
 STEP:  29                       INTEGRAL =      0.11 TIME LEFT: 172799.89
 STEP:  30                       INTEGRAL =      0.11 TIME LEFT: 172799.89
 STEP:  31 TIME =     0.01 SECS, INTEGRAL =      0.12 TIME LEFT: 172799.88
 STEP:  32 TIME =     0.00 SECS, INTEGRAL =      0.12 TIME LEFT: 172799.88
 STEP:  33 TIME =     0.02 SECS, INTEGRAL =      0.14 TIME LEFT: 172799.86
 STEP:  34 TIME =     0.00 SECS, INTEGRAL =      0.14 TIME LEFT: 172799.86
 STEP:  35 TIME =     0.02 SECS, INTEGRAL =      0.16 TIME LEFT: 172799.84
 STEP:  36 TIME =     0.00 SECS, INTEGRAL =      0.16 TIME LEFT: 172799.84
 STEP:  37 TIME =     0.01 SECS, INTEGRAL =      0.17 TIME LEFT: 172799.83
 STEP:  38 TIME =     0.00 SECS, INTEGRAL =      0.17 TIME LEFT: 172799.83
 STEP:  39 TIME =     0.02 SECS, INTEGRAL =      0.19 TIME LEFT: 172799.81
 STEP:  40 TIME =     0.00 SECS, INTEGRAL =      0.19 TIME LEFT: 172799.81
 STEP:  41 TIME =     0.01 SECS, INTEGRAL =      0.20 TIME LEFT: 172799.80
 STEP:  42 TIME =     0.00 SECS, INTEGRAL =      0.20 TIME LEFT: 172799.80
 STEP:  43                       INTEGRAL =      0.20 TIME LEFT: 172799.80
 STEP:  44                       INTEGRAL =      0.20 TIME LEFT: 172799.80
 STEP:  45                       INTEGRAL =      0.20 TIME LEFT: 172799.80
 STEP:  46                       INTEGRAL =      0.20 TIME LEFT: 172799.80
 STEP:  47                       INTEGRAL =      0.20 TIME LEFT: 172799.80
 STEP:  48                       INTEGRAL =      0.20 TIME LEFT: 172799.80
 STEP:  49                       INTEGRAL =      0.20 TIME LEFT: 172799.80
 STEP:  50                       INTEGRAL =      0.20 TIME LEFT: 172799.80
 STEP:  51                       INTEGRAL =      0.20 TIME LEFT: 172799.80
 STEP:  52                       INTEGRAL =      0.20 TIME LEFT: 172799.80
 STEP:  53                       INTEGRAL =      0.20 TIME LEFT: 172799.80
 STEP:  54                       INTEGRAL =      0.20 TIME LEFT: 172799.80

(To convert to Hartree/Bohr^2, multiply by (10^(-21) x N x a0^2)/(4.184 x 627.51) =  0.0642)


           FORCE MATRIX IN MILLIDYNES/ANGSTROM


                  C  1       C  2       C  3       C  4       C  5       C  6
 ------------------------------------------------------------------------------
     C    1  12.029438
     C    2   3.041270  12.029438
     C    3   0.714826   3.062449  11.869687
     C    4   0.045203   0.589402   2.840320  11.613498
     C    5   0.589419   0.045237   0.498763   2.761470  11.613498
     C    6   3.062318   0.714853   0.025438   0.498663   2.840320  11.869687
     H    7   3.326108   0.670276   0.046929   0.004587   0.045574   0.683548
     H    8   3.332801   0.688342   0.030869   0.004435   0.005826   0.684326
     H    9   0.670306   3.326148   0.683734   0.045630   0.004706   0.046856
     H   10   0.688438   3.332883   0.684655   0.005911   0.004420   0.030755
     H   11   0.012365   0.715107   3.314197   0.689557   0.015765   0.003123
     H   12   0.048163   0.690449   3.320729   0.682927   0.028845   0.004041
     H   13   0.005151   0.029420   0.709253   3.314506   0.703313   0.015238
     H   14   0.003265   0.016208   0.703626   3.314265   0.704300   0.029867
     H   15   0.016202   0.003207   0.030050   0.704440   3.314187   0.703712
     H   16   0.029458   0.005180   0.015425   0.703792   3.314225   0.709418
     H   17   0.690403   0.048295   0.004193   0.028912   0.683375   3.320437
     H   18   0.715302   0.012223   0.003297   0.015898   0.689799   3.314277


                  H  7       H  8       H  9       H 10       H 11       H 12
 ------------------------------------------------------------------------------
     H    7   4.262439
     H    8   0.460019   4.268623
     H    9   0.021291   0.014095   4.262439
     H   10   0.014163   0.046148   0.460019   4.268623
     H   11   0.001836   0.016084   0.023868   0.046477   4.245451
     H   12   0.007928   0.002561   0.017495   0.021288   0.462833   4.248731
     H   13   0.000612   0.003753   0.005002   0.001164   0.040439   0.020401
     H   14   0.000609   0.000964   0.003350   0.003061   0.029747   0.038631
     H   15   0.003273   0.003055   0.000582   0.000940   0.002663   0.004302
     H   16   0.004950   0.001157   0.000679   0.003759   0.001774   0.002575
     H   17   0.017446   0.021399   0.008052   0.002538   0.001032   0.000635
     H   18   0.023912   0.046453   0.002046   0.016068   0.000871   0.001170


                  H 13       H 14       H 15       H 16       H 17       H 18
 ------------------------------------------------------------------------------
     H   13   4.234172
     H   14   0.465433   4.234939
     H   15   0.042831   0.019501   4.234939
     H   16   0.030034   0.042708   0.465433   4.234172
     H   17   0.002522   0.004309   0.038631   0.020401   4.248731
     H   18   0.001813   0.002734   0.029747   0.040439   0.462833   4.245451


          HEAT OF FORMATION =     -20.051885 KCALS/MOLE

          ZERO POINT ENERGY      99.792 KCAL/MOL

         NOTE: SYSTEM IS NOT A GROUND STATE, THEREFORE ZERO POINT
         ENERGY IS NOT MEANINGFULL. ZERO POINT ENERGY PRINTED
         DOES NOT INCLUDE THE  1 IMAGINARY FREQUENCIES


           NORMAL COORDINATE ANALYSIS (Total motion = 1 Angstrom)


   Root No.       1         2         3         4         5         6         7         8

                 1 A       1 B       2 A       2 B       3 A       3 B       4 B       4 A   

                -178.8      59.1     287.1     443.2     447.2     634.9     762.0     804.8
  
           1    0.0001   -0.0101   -0.0012    0.0407   -0.0040    0.0075    0.0048   -0.0087
           2    0.0072    0.0200    0.0429    0.0350    0.0178    0.0053    0.0004    0.0122
           3   -0.0045   -0.0031   -0.0203    0.0205    0.0429    0.0209    0.0073    0.0011
           4   -0.0001   -0.0101    0.0012    0.0408    0.0039    0.0075    0.0048    0.0087
           5   -0.0020   -0.0035   -0.0054   -0.0307    0.0463   -0.0215   -0.0070    0.0050
           6    0.0083   -0.0199    0.0472   -0.0265    0.0030    0.0018    0.0020    0.0112
           7    0.0134    0.0226   -0.0101   -0.0084    0.0569   -0.0215   -0.0049    0.0174
           8   -0.0062   -0.0143   -0.0028   -0.0182    0.0212    0.0004   -0.0001   -0.0053
           9    0.0124    0.0238   -0.0203   -0.0193   -0.0331    0.0243   -0.0047    0.0131
          10   -0.0278   -0.0135   -0.0015   -0.0294    0.0110    0.0170   -0.0149    0.0090
          11    0.0158    0.0046   -0.0061   -0.0349   -0.0325    0.0414    0.0105   -0.0112
          12   -0.0303   -0.0124   -0.0108   -0.0042   -0.0225    0.0005   -0.0142    0.0033
          13    0.0278   -0.0136    0.0015   -0.0294   -0.0110    0.0170   -0.0149   -0.0090
          14   -0.0235    0.0102   -0.0122    0.0152   -0.0318   -0.0138    0.0101   -0.0005
          15    0.0247   -0.0084   -0.0023    0.0316   -0.0235   -0.0390   -0.0146   -0.0116
          16   -0.0134    0.0226    0.0101   -0.0084   -0.0569   -0.0215   -0.0049   -0.0174
          17    0.0097   -0.0178   -0.0202    0.0241   -0.0245   -0.0232    0.0045    0.0106
          18   -0.0099    0.0213    0.0039    0.0110    0.0308    0.0075   -0.0014   -0.0093
          19   -0.0036   -0.0285   -0.0369   -0.0049    0.0334   -0.0294   -0.0018    0.0278
          20    0.0095    0.0335    0.0770    0.0603    0.0094    0.0417    0.0031   -0.0168
          21   -0.0089   -0.0308   -0.0996   -0.0130    0.0114   -0.0641    0.0063    0.0490
          22    0.0120   -0.0109    0.0472    0.0725   -0.0207    0.0469    0.0162   -0.0176
          23    0.0097    0.0535    0.1136    0.0762    0.0292    0.0823    0.0042   -0.0443
          24   -0.0083    0.0255    0.0154    0.0338    0.0579    0.0563    0.0037   -0.0340
          25    0.0036   -0.0285    0.0370   -0.0048   -0.0334   -0.0294   -0.0018   -0.0279
          26   -0.0053    0.0183   -0.0694   -0.0072    0.0138    0.0471   -0.0070    0.0409
          27    0.0119   -0.0416    0.1051   -0.0613    0.0052   -0.0601   -0.0009   -0.0318
          28   -0.0120   -0.0109   -0.0473    0.0726    0.0207    0.0470    0.0162    0.0177
          29   -0.0047   -0.0414    0.0512   -0.0566    0.0642   -0.0798   -0.0048   -0.0465
          30    0.0118   -0.0424    0.1025   -0.0611    0.0090   -0.0596   -0.0028   -0.0309
          31    0.0618    0.0929   -0.0563   -0.0465    0.1011   -0.0719    0.0694   -0.0992
          32   -0.0168   -0.0029   -0.0320   -0.0184    0.0325   -0.0208   -0.0075   -0.0213
          33   -0.0014    0.0156   -0.0244   -0.0138   -0.0330    0.0196   -0.0160    0.0175
          34    0.0076    0.0157   -0.0070   -0.0084    0.0530   -0.0172   -0.0094    0.0228
          35   -0.0161   -0.0447    0.0245    0.0349    0.0012    0.0155   -0.0182    0.0513
          36    0.0599    0.0874   -0.0609   -0.0385    0.0030   -0.0235    0.0702   -0.0956
          37   -0.1030   -0.0276   -0.0052   -0.0291    0.0093    0.0281    0.1000   -0.0216
          38   -0.0360   -0.0183   -0.0037   -0.0387   -0.0220    0.0461    0.0813   -0.0408
          39   -0.0817   -0.0485   -0.0022   -0.0139    0.0002    0.0052    0.0721   -0.0445
          40   -0.0359   -0.0294    0.0041   -0.0184   -0.0071    0.0070    0.0044   -0.0186
          41    0.1142    0.0464   -0.0129   -0.0340   -0.0497    0.0417   -0.1389    0.0490
          42   -0.0611   -0.0126   -0.0146   -0.0156    0.0047    0.0100    0.0396    0.0030
          43    0.0359   -0.0293   -0.0041   -0.0185    0.0072    0.0070    0.0043    0.0186
          44   -0.0209   -0.0031   -0.0181    0.0257   -0.0116   -0.0229    0.0074    0.0187
          45    0.1279   -0.0480   -0.0075    0.0271   -0.0485   -0.0362    0.1443    0.0454
          46    0.1031   -0.0276    0.0052   -0.0292   -0.0093    0.0282    0.1001    0.0217
          47   -0.0889    0.0518   -0.0033    0.0257   -0.0069   -0.0198   -0.0944   -0.0553
          48   -0.0076    0.0016   -0.0028    0.0321   -0.0209   -0.0420   -0.0536   -0.0242
          49   -0.0076    0.0157    0.0070   -0.0084   -0.0530   -0.0172   -0.0094   -0.0228
          50    0.0514   -0.0683   -0.0497    0.0252    0.0032    0.0172   -0.0606   -0.0740
          51   -0.0346    0.0705    0.0428   -0.0455    0.0001   -0.0223    0.0399    0.0794
          52   -0.0617    0.0929    0.0564   -0.0465   -0.1011   -0.0719    0.0693    0.0992
          53   -0.0068   -0.0137   -0.0334    0.0189   -0.0208   -0.0119    0.0177    0.0098
          54   -0.0155    0.0079   -0.0224    0.0129    0.0413    0.0259    0.0019   -0.0257


   Root No.       9        10        11        12        13        14        15        16

                 5 A       5 B       6 A       6 B       7 B       7 A       8 A       9 A   

                 878.4     945.3     960.4     970.9     977.4     991.3    1124.9    1149.5
  
           1   -0.0096    0.0145    0.0125   -0.0007   -0.0145   -0.0332    0.0259    0.0221
           2   -0.0345    0.0381    0.0265   -0.0154    0.0100   -0.0061   -0.0031   -0.0157
           3   -0.0157    0.0065   -0.0027    0.0136    0.0290   -0.0231   -0.0146    0.0224
           4    0.0096    0.0146   -0.0125   -0.0007   -0.0144    0.0332   -0.0258   -0.0221
           5   -0.0260   -0.0184    0.0060   -0.0079   -0.0307   -0.0238   -0.0149    0.0162
           6   -0.0276   -0.0339    0.0259    0.0190   -0.0001    0.0017    0.0018   -0.0221
           7    0.0398   -0.0236    0.0015   -0.0138    0.0458    0.0185   -0.0008    0.0144
           8    0.0003   -0.0092   -0.0164    0.0170    0.0118    0.0183    0.0322   -0.0155
           9   -0.0278   -0.0044   -0.0141   -0.0211   -0.0228    0.0045    0.0080    0.0262
          10    0.0331    0.0080    0.0107    0.0090   -0.0177   -0.0218    0.0260   -0.0183
          11    0.0515    0.0192    0.0317   -0.0037    0.0270    0.0079   -0.0050    0.0125
          12    0.0178    0.0168   -0.0165    0.0099    0.0237   -0.0159   -0.0245   -0.0251
          13   -0.0331    0.0081   -0.0107    0.0090   -0.0177    0.0219   -0.0260    0.0183
          14    0.0335   -0.0221   -0.0054   -0.0082   -0.0311   -0.0125   -0.0249   -0.0197
          15    0.0430   -0.0127    0.0353    0.0067   -0.0179    0.0126    0.0032    0.0200
          16   -0.0398   -0.0236   -0.0014   -0.0138    0.0458   -0.0185    0.0008   -0.0145
          17   -0.0262    0.0071   -0.0187    0.0145    0.0178    0.0102    0.0180    0.0198
          18    0.0093    0.0073   -0.0110   -0.0229   -0.0185    0.0159    0.0279   -0.0232
          19   -0.0380    0.0552    0.0794   -0.0594   -0.0970   -0.0468   -0.1088    0.0001
          20    0.0007   -0.0154   -0.0258    0.0207    0.0240   -0.0040    0.0276    0.0089
          21   -0.0871    0.1226    0.0554   -0.0277    0.0827    0.0190    0.0808   -0.0417
          22    0.0188   -0.0329   -0.0189    0.0915    0.0069    0.0027    0.0793    0.0283
          23    0.0360   -0.0619   -0.0632    0.0209   -0.0084   -0.0281   -0.0215    0.0411
          24    0.0267   -0.0406   -0.0545   -0.0109   -0.0014   -0.0440   -0.0543    0.0488
          25    0.0380    0.0552   -0.0794   -0.0594   -0.0969    0.0468    0.1087   -0.0001
          26   -0.0823   -0.1111    0.0441    0.0195   -0.0861    0.0167    0.0855   -0.0366
          27    0.0289    0.0542   -0.0423   -0.0286    0.0039   -0.0099    0.0001    0.0219
          28   -0.0189   -0.0330    0.0190    0.0915    0.0069   -0.0027   -0.0793   -0.0283
          29    0.0368    0.0584   -0.0719    0.0036    0.0040   -0.0508   -0.0585    0.0594
          30    0.0255    0.0455   -0.0422   -0.0233    0.0075   -0.0124   -0.0029    0.0231
          31   -0.0053    0.0287    0.0181    0.0833   -0.0234   -0.0015    0.0036   -0.0720
          32    0.0087    0.0234   -0.0610    0.0283    0.0044   -0.0366    0.0261    0.0038
          33   -0.0106    0.0067   -0.0359   -0.0223   -0.0053   -0.0156    0.0031    0.0386
          34    0.0362   -0.0262    0.0017   -0.0162    0.0336    0.0119    0.0072    0.0193
          35   -0.0104   -0.0428   -0.0375   -0.0406    0.0335    0.1056   -0.0693   -0.0173
          36   -0.0668    0.0597   -0.0078    0.0601   -0.0547    0.0180   -0.0438   -0.0699
          37    0.0017   -0.0203    0.0315   -0.0540   -0.0287    0.0209   -0.0363    0.0343
          38    0.0115    0.0062    0.0437   -0.0189    0.0230    0.0539    0.0000    0.0474
          39   -0.0246    0.0093    0.0206    0.0120    0.0386    0.0588    0.0247    0.0281
          40    0.0208    0.0076    0.0365    0.0216   -0.0547   -0.0044   -0.0087   -0.0021
          41    0.0836    0.0503   -0.0390    0.0353    0.0095   -0.0704    0.0033   -0.0638
          42   -0.0025   -0.0031   -0.0195   -0.0251    0.0615    0.0118    0.0062   -0.0002
          43   -0.0208    0.0077   -0.0365    0.0216   -0.0546    0.0045    0.0087    0.0021
          44    0.0247   -0.0133   -0.0311    0.0123   -0.0613   -0.0116    0.0070   -0.0208
          45    0.0799   -0.0486   -0.0307   -0.0415    0.0108   -0.0704    0.0011   -0.0603
          46   -0.0016   -0.0203   -0.0316   -0.0540   -0.0287   -0.0209    0.0363   -0.0344
          47   -0.0195   -0.0109    0.0336   -0.0053   -0.0440    0.0730    0.0234    0.0418
          48    0.0189   -0.0029    0.0347    0.0217   -0.0093    0.0320   -0.0079    0.0358
          49   -0.0362   -0.0262   -0.0016   -0.0162    0.0336   -0.0120   -0.0071   -0.0192
          50   -0.0666   -0.0427   -0.0195   -0.0438    0.0410    0.0511   -0.0639   -0.0718
          51    0.0118    0.0598   -0.0330    0.0578   -0.0493    0.0942   -0.0515    0.0062
          52    0.0053    0.0287   -0.0180    0.0833   -0.0234    0.0015   -0.0037    0.0720
          53   -0.0072   -0.0138   -0.0536    0.0120    0.0035   -0.0266    0.0114    0.0378
          54    0.0117   -0.0200   -0.0461   -0.0339   -0.0059   -0.0296    0.0237   -0.0088


   Root No.      17        18        19        20        21        22        23        24

                 8 B      10 A       9 B      11 A      10 B      12 A      13 A      11 B   

                1165.2    1172.5    1189.9    1210.2    1221.3    1231.9    1259.6    1262.4
  
           1   -0.0004   -0.0365   -0.0082   -0.0262   -0.0009    0.0063   -0.0204   -0.0021
           2    0.0039   -0.0040    0.0176    0.0057    0.0056    0.0011    0.0093    0.0010
           3   -0.0049    0.0253    0.0216    0.0066    0.0219    0.0239   -0.0079    0.0124
           4   -0.0004    0.0365   -0.0082    0.0262   -0.0009   -0.0063    0.0204   -0.0021
           5    0.0033    0.0227   -0.0261    0.0081   -0.0226    0.0230   -0.0045   -0.0121
           6   -0.0053   -0.0119   -0.0097    0.0033    0.0017   -0.0067    0.0114    0.0031
           7   -0.0024   -0.0239   -0.0024    0.0009    0.0046    0.0050   -0.0019   -0.0062
           8    0.0008   -0.0149    0.0399   -0.0141    0.0228   -0.0207   -0.0018    0.0147
           9    0.0197    0.0170    0.0212    0.0021    0.0060   -0.0194   -0.0084   -0.0128
          10   -0.0004    0.0387    0.0133   -0.0010   -0.0032   -0.0214   -0.0138    0.0060
          11   -0.0081    0.0088   -0.0229   -0.0012   -0.0070    0.0040    0.0061   -0.0118
          12   -0.0121   -0.0287   -0.0177    0.0052   -0.0153    0.0215   -0.0067    0.0039
          13   -0.0004   -0.0386    0.0133    0.0010   -0.0033    0.0214    0.0138    0.0060
          14    0.0141   -0.0244    0.0242    0.0045    0.0167    0.0217   -0.0043    0.0002
          15    0.0037    0.0176    0.0159   -0.0028    0.0017   -0.0031    0.0080    0.0124
          16   -0.0024    0.0239   -0.0024   -0.0008    0.0047   -0.0050    0.0019   -0.0062
          17   -0.0190    0.0113   -0.0330   -0.0025   -0.0130   -0.0251   -0.0085    0.0073
          18    0.0056   -0.0196   -0.0309   -0.0140   -0.0196   -0.0133    0.0010   -0.0180
          19   -0.0794   -0.0922   -0.0360   -0.0352    0.0504   -0.1117   -0.0117    0.0408
          20    0.0204    0.0236    0.0083    0.0078   -0.0138    0.0336   -0.0004   -0.0097
          21    0.0484    0.0326    0.0547    0.0229   -0.0092    0.0697    0.0231   -0.0239
          22    0.1022   -0.0359   -0.0369   -0.0016   -0.0462    0.1183   -0.0305   -0.0258
          23   -0.0465    0.0344   -0.0197   -0.0008    0.0087   -0.0229   -0.0060    0.0115
          24   -0.0940    0.0531    0.0018   -0.0083    0.0447   -0.0573   -0.0084    0.0294
          25   -0.0794    0.0921   -0.0360    0.0351    0.0504    0.1116    0.0116    0.0408
          26   -0.0525    0.0386   -0.0545    0.0243    0.0132    0.0769    0.0217    0.0257
          27   -0.0037    0.0118    0.0098   -0.0000    0.0101    0.0094   -0.0079    0.0015
          28    0.1021    0.0358   -0.0369    0.0016   -0.0462   -0.1183    0.0305   -0.0258
          29    0.1041    0.0614    0.0046   -0.0081   -0.0452   -0.0617   -0.0098   -0.0315
          30    0.0138    0.0154    0.0192    0.0020    0.0061   -0.0033   -0.0030   -0.0014
          31   -0.0275    0.0214    0.0128    0.0003   -0.0105    0.0035   -0.0085    0.0132
          32    0.0697   -0.0726   -0.0496    0.0698    0.1055   -0.0186    0.1012    0.0248
          33    0.0498   -0.0271   -0.0223    0.0390    0.0472   -0.0182    0.0407   -0.0082
          34    0.0048   -0.0117   -0.0094    0.0091    0.0117   -0.0019    0.0033   -0.0083
          35   -0.0304    0.0186    0.1591   -0.0564   -0.0934    0.0323   -0.1003   -0.0200
          36   -0.0312    0.0186    0.0646   -0.0300   -0.0493    0.0073   -0.0313    0.0138
          37    0.0544    0.0479    0.0090   -0.0793   -0.0329    0.0503    0.0746    0.1175
          38    0.0013   -0.0127   -0.0011    0.0045    0.0150   -0.0123    0.0132   -0.0200
          39   -0.0340   -0.0634    0.0087    0.0698    0.0391   -0.0567   -0.0480   -0.0909
          40   -0.0172   -0.0017    0.0284    0.1083    0.0219    0.0072   -0.0690   -0.1101
          41   -0.0013   -0.0040    0.0106   -0.0224   -0.0134   -0.0051    0.0022    0.0552
          42    0.0094    0.0096   -0.0341   -0.1031   -0.0341   -0.0054    0.0557    0.1011
          43   -0.0171    0.0017    0.0284   -0.1082    0.0219   -0.0072    0.0689   -0.1100
          44   -0.0085    0.0077    0.0289   -0.1049    0.0367   -0.0067    0.0535   -0.1136
          45    0.0043   -0.0069   -0.0210    0.0120    0.0016   -0.0031   -0.0159   -0.0197
          46    0.0544   -0.0479    0.0090    0.0793   -0.0329   -0.0502   -0.0746    0.1174
          47    0.0318   -0.0642   -0.0078    0.0676   -0.0419   -0.0577   -0.0413    0.0926
          48   -0.0122    0.0084    0.0038   -0.0182   -0.0016    0.0067    0.0279   -0.0103
          49    0.0047    0.0117   -0.0092   -0.0090    0.0116    0.0018   -0.0032   -0.0083
          50    0.0393    0.0236   -0.1126   -0.0466    0.0768    0.0173   -0.0620   -0.0066
          51    0.0187    0.0116   -0.1297   -0.0437    0.0725    0.0283   -0.0848    0.0234
          52   -0.0274   -0.0213    0.0128   -0.0004   -0.0103   -0.0034    0.0083    0.0133
          53   -0.0697   -0.0491    0.0371    0.0595   -0.0788   -0.0233    0.0712   -0.0003
          54   -0.0499   -0.0600    0.0398    0.0535   -0.0847   -0.0117    0.0826   -0.0261


   Root No.      25        26        27        28        29        30        31        32

                14 A      12 B      13 B      15 A      16 A      14 B      17 A      15 B   

                1307.8    1314.5    1321.1    1322.2    1333.7    1333.9    1336.4    1353.1
  
           1   -0.0099   -0.0021   -0.0020   -0.0100   -0.0059   -0.0047    0.0086   -0.0112
           2   -0.0021    0.0057    0.0095   -0.0024   -0.0057    0.0084    0.0002   -0.0021
           3    0.0066    0.0065    0.0082    0.0043   -0.0155    0.0030   -0.0097   -0.0132
           4    0.0099   -0.0021   -0.0020    0.0100    0.0059   -0.0047   -0.0086   -0.0112
           5    0.0056   -0.0080   -0.0108    0.0033   -0.0165   -0.0055   -0.0091    0.0131
           6   -0.0041   -0.0033   -0.0064   -0.0037   -0.0004   -0.0070    0.0034   -0.0023
           7   -0.0120   -0.0071    0.0094   -0.0014    0.0018   -0.0061   -0.0061    0.0035
           8   -0.0010    0.0086    0.0107   -0.0010    0.0015    0.0033   -0.0033    0.0116
           9    0.0051    0.0086   -0.0011   -0.0018   -0.0005    0.0123    0.0089    0.0030
          10    0.0099    0.0121    0.0016    0.0031   -0.0031   -0.0006   -0.0098    0.0035
          11    0.0049    0.0157   -0.0025   -0.0133    0.0052   -0.0053   -0.0036   -0.0043
          12   -0.0082   -0.0002   -0.0028   -0.0080    0.0055   -0.0023    0.0060   -0.0054
          13   -0.0099    0.0122    0.0016   -0.0031    0.0031   -0.0006    0.0098    0.0035
          14   -0.0062   -0.0049    0.0035   -0.0119    0.0069    0.0039    0.0045    0.0065
          15    0.0073   -0.0149    0.0014   -0.0100    0.0031    0.0043   -0.0054    0.0023
          16    0.0120   -0.0071    0.0094    0.0014   -0.0018   -0.0061    0.0061    0.0035
          17    0.0045   -0.0110   -0.0024   -0.0020   -0.0000   -0.0127    0.0073   -0.0066
          18   -0.0025   -0.0054   -0.0105   -0.0004    0.0016    0.0008   -0.0059   -0.0100
          19    0.0751    0.0132    0.0176    0.0464    0.0635    0.0354   -0.0179    0.0526
          20   -0.0190   -0.0014    0.0173   -0.0253   -0.0628   -0.0050   -0.0006   -0.0544
          21   -0.0538   -0.0026   -0.0783    0.0199    0.1339   -0.0178    0.0340    0.1178
          22    0.1080    0.0049    0.0102    0.0782    0.0679    0.0323   -0.0451    0.0846
          23   -0.0128   -0.0091   -0.0669    0.0334    0.1307   -0.0166    0.0185    0.1113
          24   -0.0596   -0.0094   -0.0640   -0.0073    0.0681   -0.0352    0.0309    0.0347
          25   -0.0750    0.0132    0.0176   -0.0464   -0.0635    0.0354    0.0178    0.0526
          26   -0.0571    0.0029    0.0685    0.0107    0.1064    0.0185    0.0319   -0.0938
          27   -0.0006    0.0005   -0.0417   -0.0304   -0.1027   -0.0010   -0.0116    0.0895
          28   -0.1079    0.0049    0.0101   -0.0782   -0.0681    0.0322    0.0450    0.0847
          29   -0.0606    0.0118    0.0822    0.0038    0.1066    0.0387    0.0352   -0.0687
          30    0.0071    0.0056    0.0427    0.0339    0.1017    0.0044    0.0076   -0.0941
          31    0.0628    0.0422   -0.1002   -0.0216   -0.0101    0.0981    0.1325   -0.0502
          32    0.0706   -0.0043   -0.0892   -0.0075   -0.0184   -0.0820   -0.0022   -0.0504
          33    0.0195   -0.0065   -0.0226   -0.0027   -0.0047   -0.0483   -0.0177   -0.0164
          34   -0.0033   -0.0003   -0.0011   -0.0025   -0.0001    0.0124    0.0109    0.0006
          35    0.0591    0.0062   -0.0854   -0.0080   -0.0145   -0.0255    0.0420   -0.0491
          36   -0.0393   -0.0393    0.0696    0.0241    0.0031   -0.1219   -0.1302    0.0270
          37   -0.0164   -0.0974   -0.0239    0.0863   -0.0290   -0.0083    0.0464   -0.0204
          38   -0.0167   -0.0837   -0.0032    0.0663   -0.0277    0.0242    0.0181   -0.0029
          39   -0.0290   -0.1175    0.0117    0.0843   -0.0393    0.0564    0.0056    0.0096
          40   -0.0059    0.0026   -0.0101   -0.0146    0.0128   -0.0343    0.0120   -0.0168
          41   -0.0318   -0.1559   -0.0111    0.1346   -0.0536    0.0391    0.0355   -0.0067
          42    0.0200    0.0748    0.0141   -0.0443    0.0110    0.0196   -0.0279    0.0195
          43    0.0059    0.0025   -0.0101    0.0145   -0.0128   -0.0343   -0.0120   -0.0168
          44    0.0087   -0.0204   -0.0097    0.0015   -0.0069   -0.0312   -0.0149   -0.0163
          45   -0.0365    0.1717    0.0151    0.1417   -0.0543   -0.0308    0.0426    0.0126
          46    0.0164   -0.0975   -0.0239   -0.0864    0.0291   -0.0082   -0.0464   -0.0204
          47   -0.0328    0.1381   -0.0101    0.1011   -0.0461   -0.0612    0.0111   -0.0082
          48   -0.0064    0.0412    0.0068    0.0355   -0.0135   -0.0047    0.0153    0.0059
          49    0.0032   -0.0003   -0.0012    0.0025    0.0001    0.0123   -0.0109    0.0006
          50   -0.0182    0.0352   -0.0383    0.0202   -0.0017    0.1236   -0.1097   -0.0097
          51    0.0686   -0.0185    0.1033   -0.0154   -0.0147   -0.0152    0.0818    0.0552
          52   -0.0629    0.0422   -0.1003    0.0216    0.0102    0.0980   -0.1325   -0.0503
          53    0.0412    0.0076    0.0501   -0.0050   -0.0104    0.0723   -0.0176    0.0317
          54    0.0605    0.0020    0.0770   -0.0062   -0.0159    0.0620    0.0036    0.0424


   Root No.      33        34        35        36        37        38        39        40

                18 A      16 B      19 A      17 B      20 A      18 B      21 A      19 B   

                1365.7    1387.6    1405.2    1427.2    2638.2    2652.6    2664.5    2675.4
  
           1    0.0129   -0.0259    0.0122    0.0036    0.0003   -0.0002   -0.0000   -0.0007
           2    0.0011    0.0087    0.0042    0.0013    0.0017   -0.0042   -0.0113   -0.0143
           3   -0.0122    0.0150   -0.0053   -0.0002   -0.0005    0.0017    0.0039    0.0049
           4   -0.0129   -0.0258   -0.0122    0.0036   -0.0003   -0.0002    0.0001   -0.0007
           5   -0.0112   -0.0170   -0.0037   -0.0002    0.0000   -0.0002    0.0000   -0.0000
           6    0.0050   -0.0034    0.0057   -0.0013    0.0017    0.0045   -0.0119    0.0151
           7    0.0034    0.0085    0.0012    0.0020   -0.0058   -0.0093    0.0064   -0.0009
           8    0.0077   -0.0091   -0.0267    0.0191    0.0018    0.0033   -0.0023    0.0012
           9    0.0015   -0.0046   -0.0105    0.0048   -0.0053   -0.0085    0.0057   -0.0013
          10    0.0059   -0.0062    0.0105   -0.0204    0.0096    0.0057    0.0039   -0.0070
          11   -0.0009    0.0049    0.0041    0.0052   -0.0058   -0.0033   -0.0023    0.0039
          12   -0.0090    0.0075   -0.0078    0.0238    0.0109    0.0061    0.0046   -0.0079
          13   -0.0059   -0.0062   -0.0105   -0.0204   -0.0096    0.0057   -0.0039   -0.0070
          14   -0.0088   -0.0087   -0.0060   -0.0242    0.0084   -0.0047    0.0036    0.0062
          15    0.0021   -0.0022    0.0064    0.0027   -0.0090    0.0051   -0.0036   -0.0062
          16   -0.0034    0.0085   -0.0012    0.0021    0.0058   -0.0094   -0.0064   -0.0009
          17    0.0039    0.0072   -0.0185   -0.0108   -0.0045    0.0070    0.0046    0.0008
          18    0.0068    0.0071   -0.0218   -0.0165    0.0034   -0.0059   -0.0040   -0.0016
          19    0.0008    0.1218   -0.0294   -0.0163   -0.0053    0.0144    0.0363    0.0524
          20    0.0004   -0.0367    0.0028    0.0024   -0.0118    0.0333    0.0827    0.1239
          21    0.0065   -0.0482    0.0505    0.0202   -0.0035    0.0097    0.0241    0.0347
          22   -0.0238    0.0910   -0.0292   -0.0129    0.0086   -0.0178   -0.0445   -0.0459
          23    0.0016    0.0025    0.0194    0.0074   -0.0126    0.0261    0.0666    0.0648
          24    0.0070   -0.0477    0.0238    0.0110    0.0162   -0.0336   -0.0887   -0.0884
          25   -0.0008    0.1217    0.0294   -0.0163    0.0053    0.0145   -0.0364    0.0525
          26    0.0063    0.0576    0.0488   -0.0199   -0.0071   -0.0199    0.0495   -0.0728
          27   -0.0017    0.0193   -0.0136    0.0042   -0.0100   -0.0284    0.0705   -0.1060
          28    0.0238    0.0910    0.0292   -0.0129   -0.0086   -0.0178    0.0445   -0.0459
          29    0.0072    0.0445    0.0288   -0.0129    0.0112    0.0234   -0.0623    0.0627
          30   -0.0007   -0.0177    0.0108   -0.0034   -0.0171   -0.0356    0.0917   -0.0899
          31   -0.0316    0.0037   -0.0002    0.0125    0.0097    0.0144   -0.0098    0.0036
          32    0.0764    0.0397    0.0828   -0.0582   -0.0338   -0.0506    0.0334   -0.0089
          33    0.0397    0.0209    0.0385   -0.0284    0.0725    0.1112   -0.0765    0.0242
          34   -0.0055    0.0002   -0.0066    0.0056    0.0719    0.1102   -0.0676    0.0048
          35    0.0629    0.0719    0.0945   -0.0600    0.0036    0.0050   -0.0027    0.0001
          36    0.0554    0.0118    0.0362   -0.0357    0.0054    0.0078   -0.0041   -0.0007
          37    0.0962    0.0276   -0.0458    0.0936   -0.0374   -0.0179   -0.0148    0.0215
          38   -0.0110   -0.0006    0.0163   -0.0170    0.1267    0.0658    0.0491   -0.0783
          39   -0.0874   -0.0204    0.0630   -0.0923   -0.0588   -0.0313   -0.0221    0.0361
          40    0.0853    0.0371   -0.0505    0.0930   -0.0983   -0.0573   -0.0356    0.0659
          41   -0.0073   -0.0016    0.0187   -0.0114   -0.0441   -0.0249   -0.0168    0.0298
          42   -0.0914   -0.0387    0.0455   -0.0922   -0.0918   -0.0516   -0.0343    0.0606
          43   -0.0852    0.0371    0.0504    0.0929    0.0984   -0.0574    0.0357    0.0659
          44   -0.0889    0.0372    0.0492    0.0910   -0.1011    0.0568   -0.0378   -0.0669
          45    0.0225   -0.0109    0.0030   -0.0189   -0.0120    0.0069   -0.0048   -0.0086
          46   -0.0961    0.0276    0.0458    0.0936    0.0373   -0.0178    0.0148    0.0215
          47   -0.0863    0.0196    0.0649    0.0929   -0.0147    0.0084   -0.0051   -0.0089
          48    0.0177   -0.0060   -0.0048   -0.0136    0.1390   -0.0724    0.0536    0.0857
          49    0.0054    0.0003    0.0065    0.0055   -0.0719    0.1102    0.0676    0.0048
          50    0.0727   -0.0344    0.0648    0.0531    0.0063   -0.0089   -0.0047    0.0006
          51    0.0417   -0.0642    0.0777    0.0453    0.0016   -0.0022   -0.0012   -0.0003
          52    0.0315    0.0038    0.0001    0.0124   -0.0097    0.0145    0.0098    0.0036
          53    0.0623   -0.0326    0.0632    0.0457    0.0577   -0.0889   -0.0616   -0.0200
          54    0.0596   -0.0308    0.0659    0.0460   -0.0554    0.0838    0.0563    0.0162


   Root No.      41        42        43        44        45        46        47        48

                22 A      20 B      21 B      23 A      22 B      24 A      25 A      23 B   

                2677.8    2687.4    2733.2    2737.2    2740.9    2741.6    2746.0    2753.1
  
           1   -0.0006    0.0007   -0.0002   -0.0009   -0.0031   -0.0026   -0.0064   -0.0116
           2    0.0105    0.0081   -0.0003   -0.0008   -0.0015   -0.0022   -0.0057   -0.0012
           3   -0.0032   -0.0022    0.0009    0.0001    0.0004   -0.0003   -0.0123   -0.0136
           4    0.0006    0.0007   -0.0002    0.0008   -0.0031    0.0026    0.0064   -0.0117
           5    0.0003   -0.0006   -0.0007   -0.0002    0.0001   -0.0009   -0.0135    0.0132
           6    0.0110   -0.0084    0.0006   -0.0008    0.0016   -0.0020   -0.0014   -0.0033
           7    0.0089   -0.0077   -0.0029    0.0032   -0.0097    0.0088   -0.0020    0.0009
           8   -0.0029    0.0019    0.0009   -0.0005   -0.0046    0.0043   -0.0040    0.0041
           9    0.0079   -0.0064    0.0041   -0.0043    0.0084   -0.0075    0.0030   -0.0030
          10    0.0033   -0.0068    0.0070   -0.0028   -0.0023    0.0021   -0.0002    0.0001
          11   -0.0021    0.0041    0.0155   -0.0128   -0.0019    0.0030    0.0004    0.0005
          12    0.0034   -0.0073    0.0013   -0.0051    0.0017   -0.0004    0.0008   -0.0008
          13   -0.0033   -0.0068    0.0071    0.0029   -0.0023   -0.0021    0.0002    0.0001
          14    0.0025    0.0055   -0.0063   -0.0090   -0.0010    0.0006    0.0009    0.0006
          15   -0.0031   -0.0062   -0.0142   -0.0105    0.0023    0.0030    0.0001   -0.0007
          16   -0.0089   -0.0077   -0.0028   -0.0032   -0.0097   -0.0088    0.0020    0.0009
          17    0.0065    0.0054   -0.0042   -0.0042   -0.0065   -0.0057    0.0015    0.0015
          18   -0.0053   -0.0039    0.0004    0.0009    0.0071    0.0064   -0.0048   -0.0049
          19   -0.0352   -0.0316    0.0019    0.0069    0.0163    0.0179    0.0710    0.0600
          20   -0.0811   -0.0760    0.0050    0.0186    0.0412    0.0465    0.1825    0.1593
          21   -0.0232   -0.0207    0.0019    0.0048    0.0098    0.0110    0.0402    0.0333
          22    0.0344    0.0205   -0.0018    0.0027    0.0075    0.0086    0.0601    0.0768
          23   -0.0519   -0.0276    0.0024   -0.0055   -0.0144   -0.0162   -0.1088   -0.1295
          24    0.0714    0.0400   -0.0036    0.0057    0.0150    0.0174    0.1288    0.1566
          25    0.0353   -0.0317    0.0019   -0.0069    0.0163   -0.0179   -0.0712    0.0602
          26   -0.0481    0.0441   -0.0034    0.0106   -0.0226    0.0255    0.0969   -0.0828
          27   -0.0692    0.0652   -0.0041    0.0160   -0.0358    0.0404    0.1597   -0.1400
          28   -0.0344    0.0205   -0.0018   -0.0027    0.0075   -0.0086   -0.0601    0.0768
          29    0.0508   -0.0289    0.0026    0.0036   -0.0096    0.0112    0.0867   -0.1063
          30   -0.0722    0.0391   -0.0034   -0.0070    0.0185   -0.0210   -0.1446    0.1732
          31   -0.0096    0.0070   -0.0071    0.0089   -0.0299    0.0267   -0.0091    0.0073
          32    0.0392   -0.0304    0.0169   -0.0210    0.0668   -0.0598    0.0233   -0.0214
          33   -0.0854    0.0669   -0.0372    0.0478   -0.1496    0.1335   -0.0506    0.0452
          34   -0.1068    0.0887    0.0361   -0.0486    0.1737   -0.1563    0.0387   -0.0191
          35   -0.0042    0.0030    0.0009   -0.0006    0.0024   -0.0021    0.0002    0.0011
          36   -0.0077    0.0063    0.0051   -0.0062    0.0229   -0.0207    0.0056   -0.0034
          37   -0.0122    0.0209    0.0581   -0.0506   -0.0111    0.0151   -0.0005    0.0036
          38    0.0401   -0.0751   -0.1669    0.1438    0.0321   -0.0419    0.0008   -0.0106
          39   -0.0179    0.0344    0.0877   -0.0763   -0.0169    0.0221    0.0002    0.0050
          40   -0.0257    0.0589   -0.1341    0.1255    0.0228   -0.0338   -0.0024   -0.0021
          41   -0.0126    0.0273   -0.0479    0.0447    0.0078   -0.0117   -0.0010   -0.0005
          42   -0.0253    0.0549   -0.1277    0.1184    0.0213   -0.0323   -0.0020   -0.0021
          43    0.0258    0.0590   -0.1342   -0.1256    0.0229    0.0339    0.0024   -0.0021
          44   -0.0280   -0.0607    0.1362    0.1264   -0.0226   -0.0343   -0.0022    0.0021
          45   -0.0038   -0.0081    0.0041    0.0040   -0.0004   -0.0006   -0.0003   -0.0002
          46    0.0122    0.0209    0.0580    0.0506   -0.0111   -0.0151    0.0005    0.0036
          47   -0.0039   -0.0083   -0.0291   -0.0257    0.0057    0.0074    0.0004   -0.0013
          48    0.0437    0.0822    0.1863    0.1608   -0.0359   -0.0468    0.0007    0.0117
          49    0.1068    0.0887    0.0361    0.0486    0.1738    0.1563   -0.0387   -0.0191
          50   -0.0085   -0.0069   -0.0051   -0.0060   -0.0223   -0.0201    0.0053    0.0028
          51   -0.0015   -0.0008    0.0008    0.0015    0.0053    0.0048   -0.0017   -0.0021
          52    0.0096    0.0070   -0.0071   -0.0089   -0.0300   -0.0268    0.0091    0.0073
          53   -0.0681   -0.0535    0.0297    0.0384    0.1200    0.1070   -0.0404   -0.0359
          54    0.0647    0.0504   -0.0280   -0.0353   -0.1116   -0.0997    0.0384    0.0349


           MASS-WEIGHTED COORDINATE ANALYSIS (NORMAL COORDINATES)


   Root No.       1         2         3         4         5         6         7         8

                 1 A       1 B       2 A       2 B       3 A       3 B       4 B       4 A   

                -178.9      59.1     287.1     443.2     447.2     634.9     762.0     804.8
  
           1    0.0013   -0.1031   -0.0107    0.3154   -0.0272    0.0676    0.0472   -0.0969
           2    0.0646    0.2031    0.3770    0.2710    0.1216    0.0474    0.0037    0.1360
           3   -0.0408   -0.0314   -0.1786    0.1588    0.2934    0.1886    0.0721    0.0128
           4   -0.0013   -0.1030    0.0106    0.3157    0.0269    0.0677    0.0473    0.0967
           5   -0.0178   -0.0359   -0.0472   -0.2375    0.3169   -0.1937   -0.0694    0.0561
           6    0.0743   -0.2025    0.4145   -0.2050    0.0204    0.0162    0.0198    0.1245
           7    0.1205    0.2305   -0.0887   -0.0650    0.3894   -0.1934   -0.0481    0.1941
           8   -0.0562   -0.1459   -0.0246   -0.1408    0.1453    0.0032   -0.0013   -0.0596
           9    0.1115    0.2418   -0.1788   -0.1493   -0.2266    0.2194   -0.0463    0.1457
          10   -0.2505   -0.1378   -0.0135   -0.2276    0.0756    0.1531   -0.1469    0.1000
          11    0.1419    0.0467   -0.0535   -0.2700   -0.2225    0.3728    0.1036   -0.1245
          12   -0.2724   -0.1261   -0.0945   -0.0325   -0.1543    0.0041   -0.1403    0.0369
          13    0.2505   -0.1379    0.0134   -0.2279   -0.0753    0.1534   -0.1469   -0.0999
          14   -0.2117    0.1042   -0.1068    0.1177   -0.2179   -0.1241    0.0992   -0.0055
          15    0.2224   -0.0850   -0.0201    0.2449   -0.1608   -0.3515   -0.1434   -0.1298
          16   -0.1206    0.2305    0.0888   -0.0653   -0.3893   -0.1934   -0.0482   -0.1941
          17    0.0873   -0.1815   -0.1772    0.1867   -0.1679   -0.2088    0.0443    0.1185
          18   -0.0892    0.2163    0.0344    0.0850    0.2104    0.0675   -0.0138   -0.1036
          19   -0.0094   -0.0840   -0.0940   -0.0109    0.0662   -0.0768   -0.0052    0.0900
          20    0.0248    0.0987    0.1960    0.1353    0.0187    0.1088    0.0089   -0.0543
          21   -0.0232   -0.0909   -0.2536   -0.0291    0.0226   -0.1673    0.0179    0.1582
          22    0.0312   -0.0322    0.1202    0.1627   -0.0411    0.1226    0.0462   -0.0570
          23    0.0252    0.1576    0.2891    0.1710    0.0579    0.2148    0.0120   -0.1431
          24   -0.0216    0.0753    0.0393    0.0759    0.1147    0.1469    0.0105   -0.1099
          25    0.0094   -0.0839    0.0941   -0.0108   -0.0663   -0.0768   -0.0052   -0.0900
          26   -0.0139    0.0541   -0.1766   -0.0161    0.0273    0.1231   -0.0199    0.1322
          27    0.0310   -0.1228    0.2675   -0.1375    0.0103   -0.1570   -0.0026   -0.1026
          28   -0.0312   -0.0320   -0.1204    0.1629    0.0409    0.1228    0.0462    0.0572
          29   -0.0124   -0.1222    0.1304   -0.1269    0.1273   -0.2083   -0.0138   -0.1502
          30    0.0308   -0.1249    0.2609   -0.1372    0.0178   -0.1558   -0.0079   -0.0999
          31    0.1610    0.2738   -0.1434   -0.1043    0.2004   -0.1877    0.1980   -0.3206
          32   -0.0438   -0.0086   -0.0816   -0.0412    0.0643   -0.0542   -0.0213   -0.0687
          33   -0.0036    0.0460   -0.0622   -0.0309   -0.0653    0.0511   -0.0458    0.0566
          34    0.0198    0.0462   -0.0178   -0.0189    0.1051   -0.0449   -0.0269    0.0736
          35   -0.0420   -0.1317    0.0624    0.0782    0.0023    0.0405   -0.0521    0.1658
          36    0.1561    0.2576   -0.1550   -0.0864    0.0060   -0.0613    0.2005   -0.3089
          37   -0.2686   -0.0812   -0.0133   -0.0654    0.0185    0.0735    0.2854   -0.0698
          38   -0.0939   -0.0540   -0.0095   -0.0868   -0.0435    0.1204    0.2321   -0.1317
          39   -0.2132   -0.1430   -0.0055   -0.0313    0.0004    0.0136    0.2059   -0.1439
          40   -0.0937   -0.0866    0.0103   -0.0413   -0.0141    0.0182    0.0126   -0.0602
          41    0.2979    0.1368   -0.0329   -0.0763   -0.0985    0.1088   -0.3966    0.1582
          42   -0.1592   -0.0370   -0.0373   -0.0350    0.0093    0.0262    0.1130    0.0096
          43    0.0935   -0.0865   -0.0104   -0.0414    0.0142    0.0184    0.0123    0.0601
          44   -0.0544   -0.0092   -0.0460    0.0577   -0.0230   -0.0599    0.0211    0.0603
          45    0.3334   -0.1415   -0.0192    0.0609   -0.0962   -0.0946    0.4119    0.1467
          46    0.2688   -0.0814    0.0133   -0.0655   -0.0185    0.0735    0.2857    0.0700
          47   -0.2318    0.1527   -0.0083    0.0576   -0.0137   -0.0516   -0.2695   -0.1787
          48   -0.0199    0.0049   -0.0072    0.0720   -0.0413   -0.1096   -0.1531   -0.0782
          49   -0.0199    0.0462    0.0179   -0.0189   -0.1051   -0.0449   -0.0269   -0.0735
          50    0.1341   -0.2013   -0.1266    0.0565    0.0064    0.0450   -0.1729   -0.2389
          51   -0.0902    0.2079    0.1090   -0.1020    0.0002   -0.0582    0.1140    0.2566
          52   -0.1610    0.2738    0.1435   -0.1044   -0.2004   -0.1877    0.1979    0.3206
          53   -0.0177   -0.0405   -0.0851    0.0425   -0.0412   -0.0310    0.0504    0.0316
          54   -0.0404    0.0232   -0.0571    0.0290    0.0819    0.0677    0.0055   -0.0831


   Root No.       9        10        11        12        13        14        15        16

                 5 A       5 B       6 A       6 B       7 B       7 A       8 A       9 A   

                 878.4     945.3     960.4     970.9     977.4     991.3    1124.9    1149.5
  
           1   -0.0677    0.1321    0.1215   -0.0080   -0.1128   -0.3101    0.2264    0.2056
           2   -0.2427    0.3457    0.2570   -0.1655    0.0777   -0.0571   -0.0274   -0.1457
           3   -0.1101    0.0592   -0.0262    0.1465    0.2258   -0.2159   -0.1281    0.2086
           4    0.0676    0.1325   -0.1218   -0.0080   -0.1126    0.3102   -0.2263   -0.2056
           5   -0.1828   -0.1675    0.0581   -0.0852   -0.2389   -0.2227   -0.1303    0.1502
           6   -0.1941   -0.3080    0.2516    0.2039   -0.0007    0.0159    0.0154   -0.2054
           7    0.2800   -0.2146    0.0141   -0.1488    0.3571    0.1730   -0.0073    0.1344
           8    0.0023   -0.0837   -0.1597    0.1824    0.0918    0.1711    0.2823   -0.1446
           9   -0.1957   -0.0398   -0.1370   -0.2267   -0.1779    0.0421    0.0704    0.2437
          10    0.2329    0.0730    0.1038    0.0965   -0.1379   -0.2044    0.2279   -0.1698
          11    0.3623    0.1740    0.3075   -0.0393    0.2101    0.0738   -0.0435    0.1163
          12    0.1255    0.1528   -0.1602    0.1062    0.1844   -0.1491   -0.2149   -0.2337
          13   -0.2329    0.0732   -0.1039    0.0965   -0.1376    0.2045   -0.2278    0.1698
          14    0.2358   -0.2007   -0.0524   -0.0878   -0.2425   -0.1169   -0.2176   -0.1836
          15    0.3022   -0.1153    0.3426    0.0716   -0.1394    0.1181    0.0280    0.1857
          16   -0.2799   -0.2147   -0.0139   -0.1488    0.3571   -0.1732    0.0070   -0.1344
          17   -0.1844    0.0645   -0.1811    0.1555    0.1390    0.0950    0.1578    0.1838
          18    0.0655    0.0662   -0.1069   -0.2459   -0.1440    0.1483    0.2445   -0.2156
          19   -0.0775    0.1451    0.2233   -0.1849   -0.2190   -0.1270   -0.2759    0.0003
          20    0.0015   -0.0405   -0.0725    0.0645    0.0541   -0.0109    0.0701    0.0239
          21   -0.1774    0.3227    0.1559   -0.0865    0.1866    0.0515    0.2050   -0.1125
          22    0.0382   -0.0865   -0.0531    0.2852    0.0156    0.0074    0.2012    0.0761
          23    0.0733   -0.1629   -0.1779    0.0652   -0.0190   -0.0763   -0.0546    0.1108
          24    0.0543   -0.1067   -0.1532   -0.0338   -0.0031   -0.1193   -0.1378    0.1315
          25    0.0774    0.1453   -0.2233   -0.1849   -0.2188    0.1269    0.2757   -0.0002
          26   -0.1675   -0.2922    0.1240    0.0609   -0.1943    0.0453    0.2169   -0.0987
          27    0.0588    0.1426   -0.1191   -0.0891    0.0089   -0.0269    0.0004    0.0589
          28   -0.0384   -0.0868    0.0533    0.2853    0.0156   -0.0073   -0.2010   -0.0763
          29    0.0750    0.1535   -0.2024    0.0112    0.0091   -0.1375   -0.1483    0.1601
          30    0.0519    0.1197   -0.1188   -0.0725    0.0170   -0.0337   -0.0073    0.0623
          31   -0.0107    0.0756    0.0508    0.2595   -0.0528   -0.0040    0.0092   -0.1940
          32    0.0176    0.0617   -0.1715    0.0882    0.0099   -0.0992    0.0661    0.0104
          33   -0.0217    0.0175   -0.1009   -0.0694   -0.0119   -0.0424    0.0079    0.1040
          34    0.0738   -0.0689    0.0048   -0.0506    0.0759    0.0322    0.0183    0.0519
          35   -0.0212   -0.1126   -0.1056   -0.1265    0.0755    0.2863   -0.1759   -0.0466
          36   -0.1361    0.1572   -0.0220    0.1874   -0.1235    0.0488   -0.1111   -0.1884
          37    0.0035   -0.0535    0.0887   -0.1683   -0.0649    0.0566   -0.0920    0.0925
          38    0.0235    0.0163    0.1228   -0.0587    0.0518    0.1459    0.0000    0.1277
          39   -0.0502    0.0246    0.0580    0.0374    0.0871    0.1593    0.0626    0.0756
          40    0.0423    0.0201    0.1027    0.0672   -0.1234   -0.0119   -0.0221   -0.0056
          41    0.1702    0.1324   -0.1098    0.1101    0.0214   -0.1908    0.0085   -0.1719
          42   -0.0051   -0.0082   -0.0548   -0.0782    0.1387    0.0319    0.0157   -0.0005
          43   -0.0423    0.0202   -0.1026    0.0672   -0.1233    0.0121    0.0221    0.0058
          44    0.0502   -0.0350   -0.0874    0.0385   -0.1383   -0.0313    0.0176   -0.0560
          45    0.1627   -0.1280   -0.0863   -0.1294    0.0244   -0.1909    0.0029   -0.1625
          46   -0.0034   -0.0534   -0.0888   -0.1683   -0.0647   -0.0568    0.0920   -0.0927
          47   -0.0398   -0.0285    0.0944   -0.0166   -0.0992    0.1979    0.0594    0.1127
          48    0.0384   -0.0075    0.0975    0.0676   -0.0209    0.0866   -0.0201    0.0964
          49   -0.0737   -0.0689   -0.0046   -0.0506    0.0759   -0.0325   -0.0180   -0.0517
          50   -0.1355   -0.1125   -0.0549   -0.1366    0.0926    0.1386   -0.1620   -0.1934
          51    0.0239    0.1573   -0.0928    0.1802   -0.1113    0.2553   -0.1306    0.0167
          52    0.0107    0.0757   -0.0506    0.2596   -0.0528    0.0041   -0.0093    0.1939
          53   -0.0147   -0.0364   -0.1509    0.0374    0.0080   -0.0720    0.0288    0.1019
          54    0.0238   -0.0527   -0.1298   -0.1057   -0.0133   -0.0801    0.0600   -0.0237


   Root No.      17        18        19        20        21        22        23        24

                 8 B      10 A       9 B      11 A      10 B      12 A      13 A      11 B   

                1165.2    1172.5    1189.9    1210.2    1221.3    1231.9    1259.6    1262.4
  
           1   -0.0043   -0.2901   -0.0677   -0.2650   -0.0100    0.0573   -0.2193   -0.0203
           2    0.0419   -0.0314    0.1453    0.0579    0.0598    0.0101    0.1001    0.0096
           3   -0.0516    0.2010    0.1778    0.0665    0.2324    0.2167   -0.0852    0.1211
           4   -0.0043    0.2900   -0.0675    0.2648   -0.0098   -0.0574    0.2193   -0.0202
           5    0.0353    0.1804   -0.2153    0.0819   -0.2394    0.2083   -0.0481   -0.1178
           6   -0.0563   -0.0945   -0.0802    0.0334    0.0185   -0.0604    0.1224    0.0300
           7   -0.0252   -0.1898   -0.0199    0.0086    0.0493    0.0457   -0.0199   -0.0608
           8    0.0090   -0.1183    0.3289   -0.1423    0.2418   -0.1875   -0.0194    0.1435
           9    0.2099    0.1352    0.1752    0.0214    0.0635   -0.1763   -0.0899   -0.1246
          10   -0.0037    0.3070    0.1096   -0.0105   -0.0344   -0.1939   -0.1488    0.0586
          11   -0.0858    0.0698   -0.1886   -0.0123   -0.0744    0.0367    0.0661   -0.1150
          12   -0.1290   -0.2283   -0.1462    0.0521   -0.1618    0.1949   -0.0716    0.0376
          13   -0.0039   -0.3069    0.1094    0.0105   -0.0346    0.1937    0.1488    0.0586
          14    0.1498   -0.1938    0.1994    0.0453    0.1772    0.1965   -0.0463    0.0016
          15    0.0395    0.1396    0.1314   -0.0284    0.0181   -0.0280    0.0858    0.1211
          16   -0.0250    0.1898   -0.0195   -0.0085    0.0495   -0.0454    0.0200   -0.0607
          17   -0.2015    0.0899   -0.2720   -0.0257   -0.1381   -0.2274   -0.0913    0.0716
          18    0.0592   -0.1555   -0.2547   -0.1416   -0.2084   -0.1205    0.0107   -0.1760
          19   -0.2444   -0.2120   -0.0860   -0.1029    0.1550   -0.2937   -0.0363    0.1154
          20    0.0627    0.0542    0.0199    0.0228   -0.0425    0.0883   -0.0014   -0.0273
          21    0.1491    0.0750    0.1308    0.0671   -0.0282    0.1831    0.0720   -0.0675
          22    0.3146   -0.0826   -0.0882   -0.0048   -0.1420    0.3110   -0.0949   -0.0731
          23   -0.1433    0.0790   -0.0470   -0.0022    0.0269   -0.0602   -0.0187    0.0324
          24   -0.2894    0.1222    0.0043   -0.0244    0.1374   -0.1505   -0.0260    0.0831
          25   -0.2443    0.2119   -0.0859    0.1028    0.1549    0.2935    0.0363    0.1153
          26   -0.1616    0.0887   -0.1303    0.0710    0.0405    0.2021    0.0677    0.0728
          27   -0.0114    0.0272    0.0233   -0.0001    0.0312    0.0246   -0.0245    0.0041
          28    0.3143    0.0824   -0.0882    0.0048   -0.1419   -0.3108    0.0950   -0.0730
          29    0.3205    0.1412    0.0111   -0.0239   -0.1389   -0.1622   -0.0306   -0.0892
          30    0.0424    0.0354    0.0458    0.0057    0.0188   -0.0086   -0.0092   -0.0039
          31   -0.0848    0.0491    0.0307    0.0008   -0.0322    0.0091   -0.0263    0.0374
          32    0.2146   -0.1670   -0.1186    0.2044    0.3244   -0.0489    0.3151    0.0701
          33    0.1534   -0.0623   -0.0532    0.1142    0.1451   -0.0479    0.1267   -0.0231
          34    0.0147   -0.0269   -0.0226    0.0266    0.0359   -0.0049    0.0104   -0.0235
          35   -0.0936    0.0428    0.3802   -0.1651   -0.2872    0.0850   -0.3123   -0.0567
          36   -0.0960    0.0428    0.1545   -0.0878   -0.1515    0.0191   -0.0975    0.0389
          37    0.1674    0.1102    0.0215   -0.2322   -0.1011    0.1321    0.2323    0.3324
          38    0.0040   -0.0292   -0.0026    0.0133    0.0462   -0.0323    0.0410   -0.0567
          39   -0.1045   -0.1459    0.0207    0.2044    0.1201   -0.1491   -0.1495   -0.2571
          40   -0.0528   -0.0040    0.0678    0.3168    0.0674    0.0190   -0.2149   -0.3114
          41   -0.0041   -0.0092    0.0254   -0.0656   -0.0410   -0.0134    0.0068    0.1561
          42    0.0291    0.0220   -0.0815   -0.3017   -0.1049   -0.0141    0.1736    0.2859
          43   -0.0528    0.0040    0.0678   -0.3165    0.0673   -0.0190    0.2147   -0.3110
          44   -0.0263    0.0178    0.0690   -0.3070    0.1127   -0.0177    0.1667   -0.3213
          45    0.0132   -0.0158   -0.0503    0.0352    0.0050   -0.0081   -0.0495   -0.0556
          46    0.1673   -0.1101    0.0215    0.2320   -0.1010   -0.1320   -0.2323    0.3322
          47    0.0978   -0.1477   -0.0187    0.1979   -0.1286   -0.1517   -0.1285    0.2620
          48   -0.0374    0.0194    0.0092   -0.0532   -0.0051    0.0175    0.0869   -0.0292
          49    0.0145    0.0268   -0.0221   -0.0263    0.0355    0.0048   -0.0100   -0.0235
          50    0.1211    0.0543   -0.2690   -0.1364    0.2362    0.0456   -0.1932   -0.0186
          51    0.0576    0.0267   -0.3099   -0.1280    0.2229    0.0743   -0.2641    0.0662
          52   -0.0845   -0.0489    0.0305   -0.0010   -0.0318   -0.0091    0.0260    0.0375
          53   -0.2145   -0.1129    0.0887    0.1741   -0.2421   -0.0612    0.2217   -0.0008
          54   -0.1537   -0.1380    0.0951    0.1566   -0.2602   -0.0308    0.2573   -0.0737


   Root No.      25        26        27        28        29        30        31        32

                14 A      12 B      13 B      15 A      16 A      14 B      17 A      15 B   

                1307.8    1314.5    1321.1    1322.2    1333.7    1333.8    1336.4    1353.1
  
           1   -0.1112   -0.0195   -0.0213   -0.1041   -0.0570   -0.0518    0.0930   -0.1153
           2   -0.0230    0.0518    0.1021   -0.0254   -0.0548    0.0923    0.0027   -0.0213
           3    0.0740    0.0592    0.0878    0.0443   -0.1495    0.0326   -0.1048   -0.1357
           4    0.1113   -0.0194   -0.0211    0.1040    0.0571   -0.0517   -0.0930   -0.1154
           5    0.0627   -0.0727   -0.1160    0.0338   -0.1591   -0.0607   -0.0984    0.1352
           6   -0.0455   -0.0299   -0.0683   -0.0382   -0.0036   -0.0769    0.0363   -0.0238
           7   -0.1341   -0.0644    0.1006   -0.0145    0.0177   -0.0671   -0.0653    0.0356
           8   -0.0108    0.0783    0.1153   -0.0104    0.0148    0.0365   -0.0351    0.1193
           9    0.0568    0.0785   -0.0119   -0.0188   -0.0051    0.1351    0.0953    0.0314
          10    0.1109    0.1105    0.0174    0.0326   -0.0296   -0.0061   -0.1053    0.0362
          11    0.0551    0.1425   -0.0263   -0.1374    0.0501   -0.0587   -0.0391   -0.0440
          12   -0.0918   -0.0016   -0.0302   -0.0830    0.0531   -0.0252    0.0642   -0.0554
[...]
 RED. MASS   0.8202        C  1 --  H  7           +9.9% (149.0%)    97.3%
 EFF. MASS  38.6626

 VIBRATION    4    2B       ATOM PAIR        ENERGY CONTRIBUTION    RADIAL
 FREQ.       443.19        C  1 --  C  2          +13.1% (131.7%)     0.0%
 T-DIPOLE    0.2734        C  1 --  C  6           +8.6% (106.4%)     0.6%
 TRAVEL      0.0848        C  2 --  C  3           +8.6% (106.4%)     0.6%
 RED. MASS   1.3839        C  1 --  H  8           +8.1% (103.4%)     6.9%
 EFF. MASS  21.1668

 VIBRATION    5    3A       ATOM PAIR        ENERGY CONTRIBUTION    RADIAL
 FREQ.       447.25        C  1 --  C  6           +9.3% (113.5%)     0.9%
 T-DIPOLE    0.0615        C  2 --  C  3           +9.3% (113.5%)     0.9%
 TRAVEL      0.0830        C  5 --  C  6           +9.1% (112.6%)     0.3%
 RED. MASS   1.6098        C  3 --  C  4           +9.1% (112.6%)     0.3%
 EFF. MASS  21.8846

 VIBRATION    6    3B       ATOM PAIR        ENERGY CONTRIBUTION    RADIAL
 FREQ.       634.88        C  4 --  C  5          +11.8% ( 82.6%)     0.0%
 T-DIPOLE    0.3469        C  3 --  C  4           +9.4% ( 73.7%)     2.4%
 TRAVEL      0.0937        C  5 --  C  6           +9.4% ( 73.7%)     2.5%
 RED. MASS   0.8756        C  5 --  H 15           +5.5% ( 56.3%)    25.5%
 EFF. MASS  12.1079

 VIBRATION    7    4B       ATOM PAIR        ENERGY CONTRIBUTION    RADIAL
 FREQ.       761.95        C  5 --  H 15          +17.3% ( 67.3%)     6.3%
 T-DIPOLE    0.5663        C  4 --  H 14          +17.3% ( 67.3%)     6.3%
 TRAVEL      0.1827        C  5 --  H 16          +17.2% ( 67.1%)     8.4%
 RED. MASS   0.1961        C  4 --  H 13          +17.2% ( 67.1%)     8.4%
 EFF. MASS   2.6512

 VIBRATION    8    4A       ATOM PAIR        ENERGY CONTRIBUTION    RADIAL
 FREQ.       804.80        C  6 --  H 17          +11.9% ( 58.2%)    10.8%
 T-DIPOLE    0.2216        C  3 --  H 12          +11.9% ( 58.2%)    10.7%
 TRAVEL      0.1456        C  6 --  H 18          +11.2% ( 56.5%)     9.6%
 RED. MASS   0.1985        C  3 --  H 11          +11.2% ( 56.5%)     9.7%
 EFF. MASS   3.9505

 VIBRATION    9    5A       ATOM PAIR        ENERGY CONTRIBUTION    RADIAL
 FREQ.       878.37        C  4 --  C  5          +12.8% ( 69.4%)    94.4%
 T-DIPOLE    0.0096        C  3 --  C  4          +10.5% ( 62.8%)    86.6%
 TRAVEL      0.0818        C  5 --  C  6          +10.5% ( 62.8%)    86.6%
 RED. MASS   1.4434        C  2 --  C  3           +6.1% ( 47.9%)    74.9%
 EFF. MASS  11.4765

 VIBRATION   10    5B       ATOM PAIR        ENERGY CONTRIBUTION    RADIAL
 FREQ.       945.27        C  1 --  C  2          +11.1% ( 55.6%)     0.0%
 T-DIPOLE    0.4270        C  2 --  H  9           +9.8% ( 52.3%)    39.5%
 TRAVEL      0.0986        C  1 --  H  7           +9.8% ( 52.3%)    39.6%
 RED. MASS   0.6702        C  1 --  H  8           +9.3% ( 50.7%)     3.6%
 EFF. MASS   7.3438

 VIBRATION   11    6A       ATOM PAIR        ENERGY CONTRIBUTION    RADIAL
 FREQ.       960.43        C  4 --  C  5          +11.5% ( 56.5%)    70.8%
 T-DIPOLE    0.5448        C  3 --  C  4           +6.8% ( 43.4%)    20.2%
 TRAVEL      0.0974        C  5 --  C  6           +6.8% ( 43.4%)    20.1%
 RED. MASS   0.6450        C  2 --  H 10           +6.7% ( 43.2%)     5.0%
 EFF. MASS   7.3956

 VIBRATION   12    6B       ATOM PAIR        ENERGY CONTRIBUTION    RADIAL
 FREQ.       970.87        C  3 --  H 12           +8.4% ( 44.7%)     7.3%
 T-DIPOLE    0.2380        C  6 --  H 17           +8.4% ( 44.7%)     7.4%
 TRAVEL      0.1156        C  3 --  H 11           +7.9% ( 43.3%)    30.6%
 RED. MASS   0.3846        C  6 --  H 18           +7.9% ( 43.3%)    30.5%
 EFF. MASS   5.1982

 VIBRATION   13    7B       ATOM PAIR        ENERGY CONTRIBUTION    RADIAL
 FREQ.       977.39        C  5 --  C  6          +10.2% ( 56.4%)    72.8%
 T-DIPOLE    0.5217        C  3 --  C  4          +10.2% ( 56.4%)    72.6%
 TRAVEL      0.0844        C  1 --  C  6           +9.2% ( 53.6%)    59.7%
 RED. MASS   1.0376        C  2 --  C  3           +9.2% ( 53.6%)    59.8%
 EFF. MASS   9.6750

 VIBRATION   14    7A       ATOM PAIR        ENERGY CONTRIBUTION    RADIAL
 FREQ.       991.29        C  1 --  C  2          +13.5% ( 61.3%)    82.6%
 T-DIPOLE    0.1524        C  1 --  C  6           +8.0% ( 47.1%)    61.8%
 TRAVEL      0.0921        C  2 --  C  3           +8.0% ( 47.1%)    61.7%
 RED. MASS   0.7423        C  6 --  H 17           +5.4% ( 38.7%)    56.8%
 EFF. MASS   8.0214

 VIBRATION   15    8A       ATOM PAIR        ENERGY CONTRIBUTION    RADIAL
 FREQ.      1124.87        C  1 --  H  7           +9.5% ( 48.3%)     0.1%
 T-DIPOLE    0.0598        C  2 --  H  9           +9.5% ( 48.3%)     0.1%
 TRAVEL      0.0931        C  4 --  C  5           +7.9% ( 44.1%)    99.1%
 RED. MASS   0.5677        C  5 --  C  6           +7.1% ( 41.9%)    97.6%
 EFF. MASS   6.9114

 VIBRATION   16    9A       ATOM PAIR        ENERGY CONTRIBUTION    RADIAL
 FREQ.      1149.49        C  1 --  C  2           +9.1% ( 44.3%)    39.5%
 T-DIPOLE    0.0702        C  2 --  C  3           +7.9% ( 41.3%)     7.1%
 TRAVEL      0.0885        C  1 --  C  6           +7.9% ( 41.3%)     7.0%
 RED. MASS   0.7480        C  5 --  C  6           +7.2% ( 39.5%)     0.7%
 EFF. MASS   7.4980

 VIBRATION   17    8B       ATOM PAIR        ENERGY CONTRIBUTION    RADIAL
 FREQ.      1165.19        C  2 --  H 10          +16.1% ( 46.0%)     1.3%
 T-DIPOLE    0.1439        C  1 --  H  8          +16.1% ( 46.0%)     1.3%
 TRAVEL      0.1511        C  1 --  H  7           +7.2% ( 30.9%)     0.7%
 RED. MASS   0.1763        C  2 --  H  9           +7.2% ( 30.9%)     0.6%
 EFF. MASS   2.5357

 VIBRATION   18   10A       ATOM PAIR        ENERGY CONTRIBUTION    RADIAL
 FREQ.      1172.47        C  4 --  C  5          +12.1% ( 53.9%)    99.8%
 T-DIPOLE    0.0343        C  1 --  C  2           +9.8% ( 48.4%)    71.8%
 TRAVEL      0.0807        C  5 --  C  6           +7.7% ( 43.1%)    31.0%
 RED. MASS   1.0521        C  3 --  C  4           +7.7% ( 43.1%)    30.9%
 EFF. MASS   8.8334

 VIBRATION   19    9B       ATOM PAIR        ENERGY CONTRIBUTION    RADIAL
 FREQ.      1189.94        C  3 --  H 12          +10.8% ( 46.9%)     0.6%
 T-DIPOLE    0.1348        C  6 --  H 17          +10.8% ( 46.9%)     0.6%
 TRAVEL      0.0903        C  3 --  C  4           +9.3% ( 43.7%)    85.9%
 RED. MASS   0.7189        C  5 --  C  6           +9.3% ( 43.7%)    85.8%
 EFF. MASS   6.9453

 VIBRATION   20   11A       ATOM PAIR        ENERGY CONTRIBUTION    RADIAL
 FREQ.      1210.20        C  4 --  H 14          +15.3% ( 46.8%)     0.2%
 T-DIPOLE    0.0198        C  5 --  H 15          +15.3% ( 46.8%)     0.2%
 TRAVEL      0.1327        C  1 --  C  2           +9.9% ( 37.7%)    99.4%
 RED. MASS   0.2614        C  4 --  H 13           +7.0% ( 31.8%)     0.5%
 EFF. MASS   3.1622

 VIBRATION   21   10B       ATOM PAIR        ENERGY CONTRIBUTION    RADIAL
 FREQ.      1221.28        C  6 --  H 17          +11.4% ( 42.4%)     0.7%
 T-DIPOLE    0.1002        C  3 --  H 12          +11.4% ( 42.4%)     0.7%
 TRAVEL      0.1130        C  6 --  H 18           +9.2% ( 38.1%)     3.6%
 RED. MASS   0.2697        C  3 --  H 11           +9.2% ( 38.1%)     3.6%
 EFF. MASS   4.3242

 VIBRATION   22   12A       ATOM PAIR        ENERGY CONTRIBUTION    RADIAL
 FREQ.      1231.92        C  2 --  H 10           +8.6% ( 38.8%)     8.9%
 T-DIPOLE    0.0883        C  1 --  H  8           +8.6% ( 38.8%)     8.9%
 TRAVEL      0.1034        C  1 --  H  7           +8.2% ( 37.9%)     2.8%
 RED. MASS   0.3819        C  2 --  H  9           +8.2% ( 37.9%)     2.7%
 EFF. MASS   5.1181

 VIBRATION   23   13A       ATOM PAIR        ENERGY CONTRIBUTION    RADIAL
 FREQ.      1259.55        C  3 --  H 11           +9.6% ( 34.9%)     2.3%
 T-DIPOLE    0.0835        C  6 --  H 18           +9.6% ( 34.9%)     2.3%
 TRAVEL      0.1327        C  1 --  C  2           +8.5% ( 32.7%)    74.7%
 RED. MASS   0.2031        C  6 --  H 17           +8.0% ( 31.7%)     0.7%
 EFF. MASS   3.0401

 VIBRATION   24   11B       ATOM PAIR        ENERGY CONTRIBUTION    RADIAL
 FREQ.      1262.44        C  5 --  H 15          +18.3% ( 46.5%)     0.2%
 T-DIPOLE    0.0697        C  4 --  H 14          +18.3% ( 46.5%)     0.2%
 TRAVEL      0.1495        C  5 --  H 16          +15.2% ( 42.4%)     6.1%
 RED. MASS   0.2010        C  4 --  H 13          +15.2% ( 42.4%)     6.1%
 EFF. MASS   2.3882

 VIBRATION   25   14A       ATOM PAIR        ENERGY CONTRIBUTION    RADIAL
 FREQ.      1307.77        C  1 --  H  8          +15.0% ( 40.6%)     0.2%
 T-DIPOLE    0.1000        C  2 --  H 10          +15.0% ( 40.6%)     0.2%
 TRAVEL      0.1510        C  1 --  H  7           +9.2% ( 31.9%)     0.9%
 RED. MASS   0.1291        C  2 --  H  9           +9.2% ( 31.9%)     0.8%
 EFF. MASS   2.2606

 VIBRATION   26   12B       ATOM PAIR        ENERGY CONTRIBUTION    RADIAL
 FREQ.      1314.49        C  4 --  H 13          +19.0% ( 40.5%)     1.4%
 T-DIPOLE    0.1576        C  5 --  H 16          +19.0% ( 40.5%)     1.4%
 TRAVEL      0.1632        C  5 --  H 15          +18.7% ( 40.2%)     2.2%
 RED. MASS   0.2097        C  4 --  H 14          +18.7% ( 40.2%)     2.2%
 EFF. MASS   1.9267

 VIBRATION   27   13B       ATOM PAIR        ENERGY CONTRIBUTION    RADIAL
 FREQ.      1321.10        C  3 --  H 11          +17.1% ( 40.2%)     0.4%
 T-DIPOLE    0.4250        C  6 --  H 18          +17.1% ( 40.2%)     0.4%
 TRAVEL      0.1665        C  6 --  H 17          +10.4% ( 31.4%)     3.2%
 RED. MASS   0.1367        C  3 --  H 12          +10.4% ( 31.4%)     3.2%
 EFF. MASS   1.8406

 VIBRATION   28   15A       ATOM PAIR        ENERGY CONTRIBUTION    RADIAL
 FREQ.      1322.15        C  4 --  H 14          +16.7% ( 37.3%)     1.1%
 T-DIPOLE    0.5371        C  5 --  H 15          +16.7% ( 37.3%)     1.1%
 TRAVEL      0.1738        C  4 --  H 13          +15.3% ( 35.8%)     2.1%
 RED. MASS   0.1586        C  5 --  H 16          +15.3% ( 35.8%)     2.1%
 EFF. MASS   1.6887

 VIBRATION   29   16A       ATOM PAIR        ENERGY CONTRIBUTION    RADIAL
 FREQ.      1333.67        C  2 --  H 10          +20.2% ( 40.7%)     1.7%
 T-DIPOLE    0.1878        C  1 --  H  8          +20.2% ( 40.7%)     1.7%
 TRAVEL      0.1764        C  1 --  H  7          +19.3% ( 39.8%)     1.8%
 RED. MASS   0.1924        C  2 --  H  9          +19.3% ( 39.8%)     1.8%
 EFF. MASS   1.6242

 VIBRATION   30   14B       ATOM PAIR        ENERGY CONTRIBUTION    RADIAL
 FREQ.      1333.85        C  6 --  H 18          +17.8% ( 41.0%)     1.9%
 T-DIPOLE    0.4071        C  3 --  H 11          +17.8% ( 41.0%)     1.9%
 TRAVEL      0.1718        C  3 --  H 12          +15.0% ( 37.7%)     0.6%
 RED. MASS   0.1474        C  6 --  H 17          +15.0% ( 37.7%)     0.6%
 EFF. MASS   1.7137

 VIBRATION   31   17A       ATOM PAIR        ENERGY CONTRIBUTION    RADIAL
 FREQ.      1336.40        C  3 --  H 12          +15.3% ( 36.7%)     0.6%
 T-DIPOLE    0.1164        C  6 --  H 17          +15.3% ( 36.7%)     0.6%
 TRAVEL      0.1655        C  3 --  H 11          +14.0% ( 35.1%)     1.8%
 RED. MASS   0.1541        C  6 --  H 18          +14.0% ( 35.1%)     1.8%
 EFF. MASS   1.8422

 VIBRATION   32   15B       ATOM PAIR        ENERGY CONTRIBUTION    RADIAL
 FREQ.      1353.15        C  1 --  H  8          +16.5% ( 38.2%)     2.5%
 T-DIPOLE    0.4347        C  2 --  H 10          +16.5% ( 38.2%)     2.4%
 TRAVEL      0.1632        C  2 --  H  9          +16.0% ( 37.5%)     1.4%
 RED. MASS   0.1684        C  1 --  H  7          +16.0% ( 37.5%)     1.3%
 EFF. MASS   1.8702

 VIBRATION   33   18A       ATOM PAIR        ENERGY CONTRIBUTION    RADIAL
 FREQ.      1365.71        C  4 --  H 13          +13.4% ( 35.6%)     0.2%
 T-DIPOLE    0.0941        C  5 --  H 16          +13.4% ( 35.6%)     0.2%
 TRAVEL      0.1554        C  5 --  H 15          +12.4% ( 34.2%)     0.2%
 RED. MASS   0.1437        C  4 --  H 14          +12.4% ( 34.2%)     0.2%
 EFF. MASS   2.0433

 VIBRATION   34   16B       ATOM PAIR        ENERGY CONTRIBUTION    RADIAL
 FREQ.      1387.62        C  2 --  H  9          +17.1% ( 46.2%)     0.1%
 T-DIPOLE    0.5534        C  1 --  H  7          +17.1% ( 46.2%)     0.1%
 TRAVEL      0.1257        C  1 --  H  8          +12.2% ( 39.0%)     0.1%
 RED. MASS   0.3534        C  2 --  H 10          +12.2% ( 39.0%)     0.1%
 EFF. MASS   3.0746

 VIBRATION   35   19A       ATOM PAIR        ENERGY CONTRIBUTION    RADIAL
 FREQ.      1405.21        C  6 --  H 17          +12.2% ( 39.7%)     0.0%
 T-DIPOLE    0.6352        C  3 --  H 12          +12.2% ( 39.7%)     0.0%
 TRAVEL      0.1198        C  6 --  H 18          +10.9% ( 37.5%)     0.0%
 RED. MASS   0.3128        C  3 --  H 11          +10.9% ( 37.5%)     0.0%
 EFF. MASS   3.3436

 VIBRATION   36   17B       ATOM PAIR        ENERGY CONTRIBUTION    RADIAL
 FREQ.      1427.16        C  4 --  H 13          +15.4% ( 43.3%)     0.0%
 T-DIPOLE    0.3185        C  5 --  H 16          +15.4% ( 43.3%)     0.0%
 TRAVEL      0.1270        C  5 --  H 15          +15.2% ( 43.1%)     0.1%
 RED. MASS   0.3451        C  4 --  H 14          +15.2% ( 43.1%)     0.1%
 EFF. MASS   2.9288

 VIBRATION   37   20A       ATOM PAIR        ENERGY CONTRIBUTION    RADIAL
 FREQ.      2638.20        C  5 --  H 16          +19.2% ( 45.7%)    98.1%
 T-DIPOLE    0.0264        C  4 --  H 13          +19.2% ( 45.7%)    98.1%
 TRAVEL      0.1354        C  5 --  H 15          +18.5% ( 44.8%)    98.0%
 RED. MASS   0.1574        C  4 --  H 14          +18.5% ( 44.8%)    98.0%
 EFF. MASS   1.3946

 VIBRATION   38   18B       ATOM PAIR        ENERGY CONTRIBUTION    RADIAL
 FREQ.      2652.61        C  3 --  H 11          +17.1% ( 42.9%)    98.4%
 T-DIPOLE    0.1387        C  6 --  H 18          +17.1% ( 42.9%)    98.4%
 TRAVEL      0.1341        C  6 --  H 17          +14.1% ( 38.9%)    97.9%
 RED. MASS   0.1223        C  3 --  H 12          +14.1% ( 38.9%)    97.8%
 EFF. MASS   1.4137

 VIBRATION   39   21A       ATOM PAIR        ENERGY CONTRIBUTION    RADIAL
 FREQ.      2664.46        C  2 --  H 10          +17.1% ( 42.7%)    98.6%
 T-DIPOLE    0.1547        C  1 --  H  8          +17.1% ( 42.7%)    98.6%
 TRAVEL      0.1334        C  1 --  H  7          +10.8% ( 34.0%)    97.9%
 RED. MASS   0.1100        C  2 --  H  9          +10.8% ( 34.0%)    97.9%
 EFF. MASS   1.4222

 VIBRATION   40   19B       ATOM PAIR        ENERGY CONTRIBUTION    RADIAL
 FREQ.      2675.37        C  2 --  H  9          +18.5% ( 44.3%)    98.4%
 T-DIPOLE    0.2667        C  1 --  H  7          +18.5% ( 44.3%)    98.5%
 TRAVEL      0.1319        C  2 --  H 10          +13.8% ( 38.3%)    97.8%
 RED. MASS   0.1373        C  1 --  H  8          +13.8% ( 38.3%)    97.8%
 EFF. MASS   1.4482

 VIBRATION   41   22A       ATOM PAIR        ENERGY CONTRIBUTION    RADIAL
 FREQ.      2677.81        C  6 --  H 17          +13.5% ( 37.9%)    98.1%
 T-DIPOLE    0.3125        C  3 --  H 12          +13.5% ( 37.9%)    98.1%
 TRAVEL      0.1317        C  6 --  H 18          +10.7% ( 33.7%)    97.7%
 RED. MASS   0.1084        C  3 --  H 11          +10.7% ( 33.7%)    97.8%
 EFF. MASS   1.4519        C  1 --  H  8          +10.7% ( 33.6%)    98.3%
                           C  2 --  H 10          +10.7% ( 33.6%)    98.3%

 VIBRATION   42   20B       ATOM PAIR        ENERGY CONTRIBUTION    RADIAL
 FREQ.      2687.41        C  3 --  H 12          +10.2% ( 32.7%)    98.3%
 T-DIPOLE    0.9358        C  6 --  H 17          +10.2% ( 32.7%)    98.3%
 TRAVEL      0.1303        C  4 --  H 13           +9.4% ( 31.5%)    97.8%
 RED. MASS   0.0905        C  5 --  H 16           +9.4% ( 31.5%)    97.8%
 EFF. MASS   1.4772

 VIBRATION   43   21B       ATOM PAIR        ENERGY CONTRIBUTION    RADIAL
 FREQ.      2733.21        C  5 --  H 16          +24.5% ( 48.8%)    96.7%
 T-DIPOLE    0.1491        C  4 --  H 13          +24.5% ( 48.8%)    96.7%
 TRAVEL      0.1395        C  5 --  H 15          +23.0% ( 47.2%)    96.2%
 RED. MASS   0.2229        C  4 --  H 14          +23.0% ( 47.2%)    96.2%
 EFF. MASS   1.2678

 VIBRATION   44   23A       ATOM PAIR        ENERGY CONTRIBUTION    RADIAL
 FREQ.      2737.18        C  4 --  H 14          +23.7% ( 47.8%)    97.2%
 T-DIPOLE    0.4803        C  5 --  H 15          +23.7% ( 47.8%)    97.3%
 TRAVEL      0.1419        C  5 --  H 16          +21.6% ( 45.6%)    96.6%
 RED. MASS   0.2034        C  4 --  H 13          +21.6% ( 45.6%)    96.6%
 EFF. MASS   1.2238

 VIBRATION   45   22B       ATOM PAIR        ENERGY CONTRIBUTION    RADIAL
 FREQ.      2740.88        C  6 --  H 17          +24.0% ( 48.2%)    97.2%
 T-DIPOLE    0.5963        C  3 --  H 12          +24.0% ( 48.2%)    97.3%
 TRAVEL      0.1422        C  6 --  H 18          +21.6% ( 45.7%)    96.6%
 RED. MASS   0.2060        C  3 --  H 11          +21.6% ( 45.7%)    96.6%
 EFF. MASS   1.2173

 VIBRATION   46   24A       ATOM PAIR        ENERGY CONTRIBUTION    RADIAL
 FREQ.      2741.57        C  3 --  H 12          +22.5% ( 46.6%)    97.3%
 T-DIPOLE    0.0065        C  6 --  H 17          +22.5% ( 46.6%)    97.3%
 TRAVEL      0.1421        C  3 --  H 11          +19.9% ( 43.8%)    96.4%
 RED. MASS   0.1800        C  6 --  H 18          +19.9% ( 43.8%)    96.5%
 EFF. MASS   1.2188

 VIBRATION   47   25A       ATOM PAIR        ENERGY CONTRIBUTION    RADIAL
 FREQ.      2746.02        C  1 --  H  7          +25.8% ( 50.1%)    97.4%
 T-DIPOLE    0.3557        C  2 --  H  9          +25.8% ( 50.1%)    97.4%
 TRAVEL      0.1417        C  2 --  H 10          +20.5% ( 44.6%)    95.8%
 RED. MASS   0.2157        C  1 --  H  8          +20.5% ( 44.6%)    95.9%
 EFF. MASS   1.2226

 VIBRATION   48   23B       ATOM PAIR        ENERGY CONTRIBUTION    RADIAL
 FREQ.      2753.14        C  2 --  H 10          +29.2% ( 53.2%)    97.3%
 T-DIPOLE    0.4945        C  1 --  H  8          +29.2% ( 53.2%)    97.3%
 TRAVEL      0.1383        C  1 --  H  7          +18.3% ( 42.1%)    93.6%
 RED. MASS   0.2338        C  2 --  H  9          +18.3% ( 42.1%)    93.6%
 EFF. MASS   1.2799

           FORCE CONSTANT IN INTERNAL COORDINATES (Millidynes/A)

    ATOM   CHEMICAL  BOND LENGTH      BOND ANGLE     TWIST ANGLE
   NUMBER   SYMBOL  FORCE CONSTANT  FORCE CONSTANT  FORCE CONSTANT

      1       C        0.000000        0.000000        0.000000
      2       C        7.378141        0.000000        0.000000
      3       C       10.412306       21.980152        0.000000
      4       C        7.628842       37.373917        9.894075
      5       C        6.393184       14.250483        5.088524
      6       C        6.591370        8.491057        9.732332
      7       H        4.119497        0.974405        0.771906
      8       H        4.122432        1.018746        0.766136
      9       H        4.119666        0.974543        0.771587
     10       H        4.122259        1.018496        0.766526
     11       H        4.091811        1.046042        0.787500
     12       H        4.100790        1.013539        0.778680
     13       H        4.078178        1.097627        0.758373
     14       H        4.078477        1.076742        0.771034
     15       H        4.078547        1.096310        0.758507
     16       H        4.078092        1.081289        0.771532
     17       H        4.100590        1.013749        0.778758
     18       H        4.092069        1.046299        0.787000

 **********************
 *                    *
 * JOB ENDED NORMALLY *
 *                    *
 **********************



 TOTAL JOB TIME:             0.70 SECONDS

 == MOPAC DONE ==
