 *******************************************************************************
 ** Site#: 10005        For non-commercial use only     Version 15.312W 64BITS**
 *******************************************************************************
 ** Cite this work as:                                                        **
 **                                                                           **
 ** (a) MOPAC2012, James J. P. Stewart, Stewart Computational Chemistry,      **
 **  Version 15.312W web: HTTP://OpenMOPAC.net         Days remaining: 364    **
 **                                                                           **
 **                                 AND                                       **
 **                                                                           **
 ** (b) Maia, J.D.C., et al., J. Chem. Theory Comput. 2012, 8, 3072-3081.     **
 **                DOI: 10.1021/ct3004645.                                    **
 *******************************************************************************
 **                                                                           **
 **                                MOPAC2012                                  **
 **                                                                           **
 *******************************************************************************

                              PM7 CALCULATION RESULTS


 *******************************************************************************
 *  CALCULATION DONE:                                Mon Nov 09 14:07:38 2015  *
 *  GEO_DAT    - DATA SET GEOMETRY IS IN FILE "SADDLE_TS.ARC"
 *  TS         - USE EF ROUTINE FOR TS SEARCH
 *  T=         - A TIME OF 172800.0 SECONDS REQUESTED
 *  DUMP=N     - RESTART FILE WRITTEN EVERY  7200.000 SECONDS
 *******************************************************************************
TS GEO_DAT="Saddle_TS.arc"
 Transition state for Cyclohexane boat 1 <=> Cyclohexane boat 2

   ATOM                 CHEMICAL                   X               Y               Z
  NUMBER                 SYMBOL               (ANGSTROMS)     (ANGSTROMS)     (ANGSTROMS)
 
     1       C(HETATM    1  C   HET A   1)   -0.27572085  *  -0.74815382  *   0.10152714  *
     2       C(HETATM    2  C   HET A   1)    0.68198588  *   0.01444871  *   1.02525742  *
     3       C(HETATM    3  C   HET A   1)    1.80491657  *   0.68290049  *   0.22266008  *
     4       C(HETATM    4  C   HET A   1)    1.26402130  *   1.56468509  *  -0.91857431  *
     5       C(HETATM    5  C   HET A   1)   -0.26841307  *   1.56566200  *  -0.97664981  *
     6       C(HETATM    6  C   HET A   1)   -0.81417428  *   0.13394316  *  -1.04056890  *
     7       H(HETATM    8  H   HET A   1)    0.24570342  *  -1.62600702  *  -0.32321195  *
     8       H(HETATM    7  H   HET A   1)   -1.11584263  *  -1.15353684  *   0.69387162  *
     9       H(HETATM    9  H   HET A   1)    1.11313949  *  -0.67571550  *   1.77358505  *
    10       H(HETATM   10  H   HET A   1)    0.12455968  *   0.77607386  *   1.60208682  *
    11       H(HETATM   11  H   HET A   1)    2.47081919  *  -0.09519921  *  -0.19453073  *
    12       H(HETATM   12  H   HET A   1)    2.43446574  *   1.28715170  *   0.90055702  *
    13       H(HETATM   14  H   HET A   1)    1.63080838  *   2.60040051  *  -0.80221577  *
    14       H(HETATM   13  H   HET A   1)    1.66721789  *   1.20827817  *  -1.88470268  *
    15       H(HETATM   15  H   HET A   1)   -0.68038502  *   2.08877014  *  -0.09345410  *
    16       H(HETATM   16  H   HET A   1)   -0.61241769  *   2.14034967  *  -1.85614161  *
    17       H(HETATM   17  H   HET A   1)   -1.91844658  *   0.15699535  *  -1.01182909  *
    18       H(HETATM   18  H   HET A   1)   -0.54680411  *  -0.31714979  *  -2.01431188  *
 

     ===================== shared-memory parallel CPU Section ======================
     **                                                                           **
     **  MOPAC calculations will run in shared-memory parallel CPUs               **
     **                                                                           **
     **  Number of Threads =  4                                                   **
     **                                                                           **
     **                                                                           **
     **  For information on this work, see:                                       **
     **                                                                           **
     **  Maia, J.D.C., et al., J. Chem. Theory Comput. 2012, 8, 3072-3081.        **
     **        DOI: 10.1021/ct3004645.                                            **
     **                                                                           **
     ===================== shared-memory parallel CPU Section ======================
      


 General Reference for PM7:
 "Optimization of Parameters for Semiempirical Methods VI: More Modifications to the 
 NDDO Approximations and Re-optimization of Parameters", J. J. P. Stewart, J. Mol. Mod., 1:32, 19 (2013)
 http://www.springerlink.com/openurl.asp?genre=article&id=doi:10.1007/s00894-012-1667-x

           Empirical Formula: C6 H12  =    18 atoms



      MOLECULAR POINT GROUP   :   C2v 


      RHF CALCULATION, NO. OF DOUBLY OCCUPIED LEVELS =   18

      Transition state refinement using EF

     GRADIENT =  0.20107  IS LESS THAN CUTOFF =  1.00000



 -------------------------------------------------------------------------------
TS GEO_DAT="Saddle_TS.arc"
 Transition state for Cyclohexane boat 1 <=> Cyclohexane boat 2



     GRADIENTS WERE INITIALLY ACCEPTABLY SMALL                
     SCF FIELD WAS ACHIEVED                                   


                              PM7 CALCULATION
                                                       MOPAC2012 (Version: 15.312W)
                                                       Mon Nov 09 14:07:38 2015
                                                       No. of days left = 364




          FINAL HEAT OF FORMATION =        -23.46211 KCAL/MOL =     -98.16547 KJ/MOL


          TOTAL ENERGY            =       -899.53496 EV
          ELECTRONIC ENERGY       =      -4338.98984 EV  POINT GROUP:     C2v 
          CORE-CORE REPULSION     =       3439.45488 EV
          COSMO AREA              =        134.37 SQUARE ANGSTROMS
          COSMO VOLUME            =        127.84 CUBIC ANGSTROMS

          GRADIENT NORM           =          0.20107
          IONIZATION POTENTIAL    =         10.596235 EV
          HOMO LUMO ENERGIES (EV) =        -10.596  4.034
          NO. OF FILLED LEVELS    =         18
          MOLECULAR WEIGHT        =         84.161

          MOLECULAR DIMENSIONS (Angstroms)

            Atom       Atom       Distance
            H    16    H     9     4.90741
            H    17    H    13     4.31409
            H    14    H    10     2.77417


          SCF CALCULATIONS        =          1
 
          WALL-CLOCK TIME         =          0.031 SECONDS
          COMPUTATION TIME        =          0.078 SECONDS




   ATOM                 CHEMICAL                   X               Y               Z
  NUMBER                 SYMBOL               (ANGSTROMS)     (ANGSTROMS)     (ANGSTROMS)
 
     1       C(HETATM    1  C   HET A   1)   -0.27572085  *  -0.74815382  *   0.10152714  *
     2       C(HETATM    2  C   HET A   1)    0.68198588  *   0.01444871  *   1.02525742  *
     3       C(HETATM    3  C   HET A   1)    1.80491657  *   0.68290049  *   0.22266008  *
     4       C(HETATM    4  C   HET A   1)    1.26402130  *   1.56468509  *  -0.91857431  *
     5       C(HETATM    5  C   HET A   1)   -0.26841307  *   1.56566200  *  -0.97664981  *
     6       C(HETATM    6  C   HET A   1)   -0.81417428  *   0.13394316  *  -1.04056890  *
     7       H(HETATM    8  H   HET A   1)    0.24570342  *  -1.62600702  *  -0.32321195  *
     8       H(HETATM    7  H   HET A   1)   -1.11584263  *  -1.15353684  *   0.69387162  *
     9       H(HETATM    9  H   HET A   1)    1.11313949  *  -0.67571550  *   1.77358505  *
    10       H(HETATM   10  H   HET A   1)    0.12455968  *   0.77607386  *   1.60208682  *
    11       H(HETATM   11  H   HET A   1)    2.47081919  *  -0.09519921  *  -0.19453073  *
    12       H(HETATM   12  H   HET A   1)    2.43446574  *   1.28715170  *   0.90055702  *
    13       H(HETATM   14  H   HET A   1)    1.63080838  *   2.60040051  *  -0.80221577  *
    14       H(HETATM   13  H   HET A   1)    1.66721789  *   1.20827817  *  -1.88470268  *
    15       H(HETATM   15  H   HET A   1)   -0.68038502  *   2.08877014  *  -0.09345410  *
    16       H(HETATM   16  H   HET A   1)   -0.61241769  *   2.14034967  *  -1.85614161  *
    17       H(HETATM   17  H   HET A   1)   -1.91844658  *   0.15699535  *  -1.01182909  *
    18       H(HETATM   18  H   HET A   1)   -0.54680411  *  -0.31714979  *  -2.01431188  *

                             CARTESIAN COORDINATES

   1    C       -0.275720850    -0.748153820     0.101527140
   2    C        0.681985880     0.014448710     1.025257420
   3    C        1.804916570     0.682900490     0.222660080
   4    C        1.264021300     1.564685090    -0.918574310
   5    C       -0.268413070     1.565662000    -0.976649810
   6    C       -0.814174280     0.133943160    -1.040568900
   7    H        0.245703420    -1.626007020    -0.323211950
   8    H       -1.115842630    -1.153536840     0.693871620
   9    H        1.113139490    -0.675715500     1.773585050
  10    H        0.124559680     0.776073860     1.602086820
  11    H        2.470819190    -0.095199210    -0.194530730
  12    H        2.434465740     1.287151700     0.900557020
  13    H        1.630808380     2.600400510    -0.802215770
  14    H        1.667217890     1.208278170    -1.884702680
  15    H       -0.680385020     2.088770140    -0.093454100
  16    H       -0.612417690     2.140349670    -1.856141610
  17    H       -1.918446580     0.156995350    -1.011829090
  18    H       -0.546804110    -0.317149790    -2.014311880


           Empirical Formula: C6 H12  =    18 atoms



      MOLECULAR POINT GROUP   :   C2v 


                  EIGENVALUES  
 -29.96880 -25.69279 -25.65155 -21.20748 -20.65400 -17.42738 -16.70697 -16.39013
 -14.91106 -13.56843 -13.00928 -12.75110 -12.65962 -12.32824 -11.97868 -10.92762
 -10.73757 -10.59623   4.03444   4.17008   4.46674   4.58459   4.83943   5.34030
   5.50055   5.66980   5.89208   6.04535   6.27613   6.34892   6.48992   6.70336
   6.75880   6.80644   6.84766   6.88233


              NET ATOMIC CHARGES AND DIPOLE CONTRIBUTIONS

  ATOM NO.                 TYPE                        CHARGE      No. of ELECS.   s-Pop       p-Pop       
    1          C(HETATM    1  C   HET A   1)          -0.261694        4.2617     1.05845     3.20324
    2          C(HETATM    2  C   HET A   1)          -0.256682        4.2567     1.05748     3.19920
    3          C(HETATM    3  C   HET A   1)          -0.261680        4.2617     1.05845     3.20323
    4          C(HETATM    4  C   HET A   1)          -0.261694        4.2617     1.05845     3.20324
    5          C(HETATM    5  C   HET A   1)          -0.256687        4.2567     1.05746     3.19923
    6          C(HETATM    6  C   HET A   1)          -0.261673        4.2617     1.05845     3.20322
    7          H(HETATM    8  H   HET A   1)           0.131543        0.8685     0.86846
    8          H(HETATM    7  H   HET A   1)           0.127359        0.8726     0.87264
    9          H(HETATM    9  H   HET A   1)           0.126256        0.8737     0.87374
   10          H(HETATM   10  H   HET A   1)           0.135913        0.8641     0.86409
   11          H(HETATM   11  H   HET A   1)           0.131554        0.8684     0.86845
   12          H(HETATM   12  H   HET A   1)           0.127350        0.8727     0.87265
   13          H(HETATM   14  H   HET A   1)           0.127333        0.8727     0.87267
   14          H(HETATM   13  H   HET A   1)           0.131584        0.8684     0.86842
   15          H(HETATM   15  H   HET A   1)           0.136035        0.8640     0.86397
   16          H(HETATM   16  H   HET A   1)           0.126257        0.8737     0.87374
   17          H(HETATM   17  H   HET A   1)           0.127328        0.8727     0.87267
   18          H(HETATM   18  H   HET A   1)           0.131599        0.8684     0.86840
 DIPOLE           X         Y         Z       TOTAL
 POINT-CHG.    -0.002     0.002     0.004     0.005
 HYBRID         0.010    -0.013    -0.014     0.021
 SUM            0.008    -0.010    -0.010     0.016


          ATOMIC ORBITAL ELECTRON POPULATIONS

                   Atom                  s        px        py        pz   
   C(HETATM    1  C   HET A   1)   1.05845   1.09002   1.06506   1.04816
   C(HETATM    2  C   HET A   1)   1.05748   1.04526   1.10197   1.05197
   C(HETATM    3  C   HET A   1)   1.05845   1.05345   1.09267   1.05710
   C(HETATM    4  C   HET A   1)   1.05845   1.01780   1.10391   1.08153
   C(HETATM    5  C   HET A   1)   1.05746   1.01386   1.03377   1.15160
   C(HETATM    6  C   HET A   1)   1.05845   1.10841   1.01570   1.07911
   H(HETATM    8  H   HET A   1)   0.86846
   H(HETATM    7  H   HET A   1)   0.87264
   H(HETATM    9  H   HET A   1)   0.87374
   H(HETATM   10  H   HET A   1)   0.86409
   H(HETATM   11  H   HET A   1)   0.86845
   H(HETATM   12  H   HET A   1)   0.87265
   H(HETATM   14  H   HET A   1)   0.87267
   H(HETATM   13  H   HET A   1)   0.86842
   H(HETATM   15  H   HET A   1)   0.86397
   H(HETATM   16  H   HET A   1)   0.87374
   H(HETATM   17  H   HET A   1)   0.87267
   H(HETATM   18  H   HET A   1)   0.86840
 *******************************************************************************
 ** Site#: 10005        For non-commercial use only     Version 15.312W 64BITS**
 *******************************************************************************
 ** Cite this work as:                                                        **
 **                                                                           **
 ** (a) MOPAC2012, James J. P. Stewart, Stewart Computational Chemistry,      **
 **  Version 15.312W web: HTTP://OpenMOPAC.net         Days remaining: 364    **
 **                                                                           **
 **                                 AND                                       **
 **                                                                           **
 ** (b) Maia, J.D.C., et al., J. Chem. Theory Comput. 2012, 8, 3072-3081.     **
 **                DOI: 10.1021/ct3004645.                                    **
 *******************************************************************************
 **                                                                           **
 **                                MOPAC2012                                  **
 **                                                                           **
 *******************************************************************************

                              PM7 CALCULATION RESULTS


 *******************************************************************************
 *  CALCULATION DONE:                                Mon Nov 09 14:07:38 2015  *
 *  OLDGEO     - PREVIOUS GEOMETRY TO BE USED
 *  FORCE      - FORCE CALCULATION SPECIFIED
 *  T=         - A TIME OF 172800.0 SECONDS REQUESTED
 *  DUMP=N     - RESTART FILE WRITTEN EVERY  7200.000 SECONDS
 *******************************************************************************
oldgeo force

   ATOM                 CHEMICAL                   X               Y               Z
  NUMBER                 SYMBOL               (ANGSTROMS)     (ANGSTROMS)     (ANGSTROMS)
 
     1       C(HETATM    1  C   HET A   1)   -0.27572085  *  -0.74815382  *   0.10152714  *
     2       C(HETATM    2  C   HET A   1)    0.68198588  *   0.01444871  *   1.02525742  *
     3       C(HETATM    3  C   HET A   1)    1.80491657  *   0.68290049  *   0.22266008  *
     4       C(HETATM    4  C   HET A   1)    1.26402130  *   1.56468509  *  -0.91857431  *
     5       C(HETATM    5  C   HET A   1)   -0.26841307  *   1.56566200  *  -0.97664981  *
     6       C(HETATM    6  C   HET A   1)   -0.81417428  *   0.13394316  *  -1.04056890  *
     7       H(HETATM    7 1HT1 HET A   1)    0.24570342  *  -1.62600702  *  -0.32321195  *
     8       H(HETATM    8 2HT1 HET A   1)   -1.11584263  *  -1.15353684  *   0.69387162  *
     9       H(HETATM    9 1HT2 HET A   1)    1.11313949  *  -0.67571550  *   1.77358505  *
    10       H(HETATM   10 2HT2 HET A   1)    0.12455968  *   0.77607386  *   1.60208682  *
    11       H(HETATM   11 1HT3 HET A   1)    2.47081919  *  -0.09519921  *  -0.19453073  *
    12       H(HETATM   12 2HT3 HET A   1)    2.43446574  *   1.28715170  *   0.90055702  *
    13       H(HETATM   13 1HT4 HET A   1)    1.63080838  *   2.60040051  *  -0.80221577  *
    14       H(HETATM   14 2HT4 HET A   1)    1.66721789  *   1.20827817  *  -1.88470268  *
    15       H(HETATM   15 1HT5 HET A   1)   -0.68038502  *   2.08877014  *  -0.09345410  *
    16       H(HETATM   16 2HT5 HET A   1)   -0.61241769  *   2.14034967  *  -1.85614161  *
    17       H(HETATM   17 1HT6 HET A   1)   -1.91844658  *   0.15699535  *  -1.01182909  *
    18       H(HETATM   18 2HT6 HET A   1)   -0.54680411  *  -0.31714979  *  -2.01431188  *
 

 General Reference for PM7:
 "Optimization of Parameters for Semiempirical Methods VI: More Modifications to the 
 NDDO Approximations and Re-optimization of Parameters", J. J. P. Stewart, J. Mol. Mod., 1:32, 19 (2013)
 http://www.springerlink.com/openurl.asp?genre=article&id=doi:10.1007/s00894-012-1667-x

           Empirical Formula: C6 H12  =    18 atoms



      MOLECULAR POINT GROUP   :   C2v 


      RHF CALCULATION, NO. OF DOUBLY OCCUPIED LEVELS =   18



          HEAT OF FORMATION =     -23.462112 KCALS/MOLE


          CARTESIAN COORDINATE DERIVATIVES

   NUMBER  ATOM         X            Y            Z

     1       C     -0.039455    -0.000749     0.023144
     2       C     -0.017405     0.015612    -0.046020
     3       C      0.004446     0.005287    -0.002493
     4       C      0.019075     0.022799    -0.004706
     5       C      0.003151     0.011405    -0.005542
     6       C     -0.000414    -0.028240    -0.016716
     7       H      0.002035    -0.018051     0.050198
     8       H      0.032837     0.025564     0.018253
     9       H     -0.014941     0.027996    -0.003668
    10       H      0.015532    -0.024398    -0.020672
    11       H      0.026362    -0.006541     0.042599
    12       H     -0.045417    -0.002535     0.034684
    13       H     -0.043150    -0.014824    -0.036373
    14       H      0.014585    -0.047518     0.006492
    15       H     -0.001162     0.007932     0.003566
    16       H      0.002198    -0.000762     0.003016
    17       H      0.030017     0.037049    -0.035365
    18       H      0.011704    -0.010029    -0.010400
 


          GRADIENT NORM =   0.17282


          TIME FOR SCF CALCULATION =    0.02

          TIME FOR DERIVATIVES     =    0.00

          MOLECULAR WEIGHT =   84.16



          ROTATIONAL CONSTANTS IN CM(-1)

          A =    0.14528497   B =    0.13925742   C =    0.08404903



           PRINCIPAL MOMENTS OF INERTIA IN UNITS OF 10**(-40)*GRAM-CM**2

          A =      192.6750   B =      201.0146   C =      333.0529


          ORIENTATION OF MOLECULE IN FORCE CALCULATION

    NO.       ATOM         X         Y         Z

     1          C      -0.8389   -1.0116   -0.7138
     2          C       0.6948   -1.0116   -0.7138
     3          C       1.2450    0.4199   -0.7138
     4          C       0.6583    1.2727    0.4269
     5          C      -0.3331    0.4847    1.2916
     6          C      -1.4244   -0.1567    0.4258
     7          H      -1.2056   -0.6334   -1.6861
     8          H      -1.2083   -2.0500   -0.6351
     9          H       1.0716   -1.5600   -1.5966
    10          H       1.0728   -1.5619    0.1681
    11          H       1.0226    0.8983   -1.6857
    12          H       2.3469    0.3923   -0.6360
    13          H       1.4724    1.6659    1.0620
    14          H       0.1510    2.1593    0.0030
    15          H       0.2017   -0.2949    1.8657
    16          H      -0.7919    1.1527    2.0436
    17          H      -2.0852   -0.7743    1.0604
    18          H      -2.0682    0.6358    0.0009


    FIRST DERIVATIVES WILL BE USED IN THE CALCULATION OF SECOND DERIVATIVES

          ESTIMATED TIME TO COMPLETE CALCULATION =        1.69 SECONDS

    FOR POINT-GROUP C2v  THERE ARE   4 UNIQUE SYMMETRY FUNCTIONS.

 STEP:   1 TIME =     0.00 SECS, INTEGRAL =      0.00 TIME LEFT: 172799.98
 STEP:   2 TIME =     0.02 SECS, INTEGRAL =      0.02 TIME LEFT: 172799.97
 STEP:   3 TIME =     0.00 SECS, INTEGRAL =      0.02 TIME LEFT: 172799.97
 STEP:   4 TIME =     0.02 SECS, INTEGRAL =      0.03 TIME LEFT: 172799.95
 STEP:   5 TIME =     0.00 SECS, INTEGRAL =      0.03 TIME LEFT: 172799.95
 STEP:   6 TIME =     0.02 SECS, INTEGRAL =      0.05 TIME LEFT: 172799.94
 STEP:   7                       INTEGRAL =      0.05 TIME LEFT: 172799.94
 STEP:   8                       INTEGRAL =      0.05 TIME LEFT: 172799.94
 STEP:   9                       INTEGRAL =      0.05 TIME LEFT: 172799.94
 STEP:  10                       INTEGRAL =      0.05 TIME LEFT: 172799.94
 STEP:  11                       INTEGRAL =      0.05 TIME LEFT: 172799.94
 STEP:  12                       INTEGRAL =      0.05 TIME LEFT: 172799.94
 STEP:  13                       INTEGRAL =      0.05 TIME LEFT: 172799.94
 STEP:  14                       INTEGRAL =      0.05 TIME LEFT: 172799.94
 STEP:  15                       INTEGRAL =      0.05 TIME LEFT: 172799.94
 STEP:  16                       INTEGRAL =      0.05 TIME LEFT: 172799.94
 STEP:  17                       INTEGRAL =      0.05 TIME LEFT: 172799.94
 STEP:  18                       INTEGRAL =      0.05 TIME LEFT: 172799.94
 STEP:  19 TIME =     0.00 SECS, INTEGRAL =      0.05 TIME LEFT: 172799.94
 STEP:  20 TIME =     0.02 SECS, INTEGRAL =      0.06 TIME LEFT: 172799.92
 STEP:  21 TIME =     0.00 SECS, INTEGRAL =      0.06 TIME LEFT: 172799.92
 STEP:  22 TIME =     0.02 SECS, INTEGRAL =      0.08 TIME LEFT: 172799.91
 STEP:  23 TIME =     0.00 SECS, INTEGRAL =      0.08 TIME LEFT: 172799.91
 STEP:  24 TIME =     0.02 SECS, INTEGRAL =      0.09 TIME LEFT: 172799.89
 STEP:  25 TIME =     0.00 SECS, INTEGRAL =      0.09 TIME LEFT: 172799.89
 STEP:  26 TIME =     0.02 SECS, INTEGRAL =      0.11 TIME LEFT: 172799.88
 STEP:  27 TIME =     0.00 SECS, INTEGRAL =      0.11 TIME LEFT: 172799.88
 STEP:  28 TIME =     0.02 SECS, INTEGRAL =      0.12 TIME LEFT: 172799.86
 STEP:  29 TIME =     0.00 SECS, INTEGRAL =      0.12 TIME LEFT: 172799.86
 STEP:  30 TIME =     0.02 SECS, INTEGRAL =      0.14 TIME LEFT: 172799.84
 STEP:  31                       INTEGRAL =      0.14 TIME LEFT: 172799.84
 STEP:  32                       INTEGRAL =      0.14 TIME LEFT: 172799.84
 STEP:  33                       INTEGRAL =      0.14 TIME LEFT: 172799.84
 STEP:  34                       INTEGRAL =      0.14 TIME LEFT: 172799.84
 STEP:  35                       INTEGRAL =      0.14 TIME LEFT: 172799.84
 STEP:  36                       INTEGRAL =      0.14 TIME LEFT: 172799.84
 STEP:  37                       INTEGRAL =      0.14 TIME LEFT: 172799.84
 STEP:  38                       INTEGRAL =      0.14 TIME LEFT: 172799.84
 STEP:  39                       INTEGRAL =      0.14 TIME LEFT: 172799.84
 STEP:  40                       INTEGRAL =      0.14 TIME LEFT: 172799.84
 STEP:  41                       INTEGRAL =      0.14 TIME LEFT: 172799.84
 STEP:  42                       INTEGRAL =      0.14 TIME LEFT: 172799.84
 STEP:  43                       INTEGRAL =      0.14 TIME LEFT: 172799.84
 STEP:  44                       INTEGRAL =      0.14 TIME LEFT: 172799.84
 STEP:  45                       INTEGRAL =      0.14 TIME LEFT: 172799.84
 STEP:  46                       INTEGRAL =      0.14 TIME LEFT: 172799.84
 STEP:  47                       INTEGRAL =      0.14 TIME LEFT: 172799.84
 STEP:  48                       INTEGRAL =      0.14 TIME LEFT: 172799.84
 STEP:  49                       INTEGRAL =      0.14 TIME LEFT: 172799.84
 STEP:  50                       INTEGRAL =      0.14 TIME LEFT: 172799.84
 STEP:  51                       INTEGRAL =      0.14 TIME LEFT: 172799.84
 STEP:  52                       INTEGRAL =      0.14 TIME LEFT: 172799.84
 STEP:  53                       INTEGRAL =      0.14 TIME LEFT: 172799.84
 STEP:  54                       INTEGRAL =      0.14 TIME LEFT: 172799.84

(To convert to Hartree/Bohr^2, multiply by (10^(-21) x N x a0^2)/(4.184 x 627.51) =  0.0642)


           FORCE MATRIX IN MILLIDYNES/ANGSTROM


                  C  1       C  2       C  3       C  4       C  5       C  6
 ------------------------------------------------------------------------------
     C    1  11.791455
     C    2   2.945453  11.894845
     C    3   0.651573   2.945882  11.791455
     C    4   0.043823   0.609891   2.813187  11.791455
     C    5   0.610779   0.112782   0.610779   2.945453  11.894845
     C    6   2.813187   0.609848   0.043823   0.651573   2.945882  11.791455
     H    7   3.333794   0.701366   0.008147   0.003743   0.022184   0.680801
     H    8   3.333043   0.687127   0.047945   0.003535   0.022276   0.674854
     H    9   0.677969   3.319035   0.677806   0.045720   0.005633   0.045703
     H   10   0.686973   3.325345   0.686988   0.007694   0.029064   0.007598
     H   11   0.008107   0.701834   3.333923   0.681023   0.022013   0.003679
     H   12   0.048236   0.687340   3.333092   0.674811   0.022569   0.003508
     H   13   0.003508   0.022515   0.674811   3.333092   0.687460   0.048236
     H   14   0.003679   0.022104   0.681023   3.333923   0.701760   0.008107
     H   15   0.007836   0.029167   0.007836   0.687192   3.325148   0.687192
     H   16   0.045943   0.005750   0.045943   0.678259   3.318950   0.678259
     H   17   0.674811   0.022569   0.003508   0.048236   0.687340   3.333092
     H   18   0.681023   0.022013   0.003679   0.008107   0.701834   3.333923


                  H  7       H  8       H  9       H 10       H 11       H 12
 ------------------------------------------------------------------------------
     H    7   4.255496
     H    8   0.463631   4.254524
     H    9   0.021363   0.018865   4.256353
     H   10   0.047021   0.020923   0.460718   4.259267
     H   11   0.010654   0.001784   0.021430   0.046852   4.255496
     H   12   0.001888   0.007850   0.018775   0.020978   0.463631   4.254524
     H   13   0.000681   0.000508   0.004173   0.002731   0.025487   0.033239
     H   14   0.002766   0.000626   0.003939   0.001411   0.035763   0.025727
     H   15   0.001281   0.002815   0.001470   0.025157   0.001281   0.002815
     H   16   0.004071   0.004190   0.000861   0.001468   0.004071   0.004190
     H   17   0.025487   0.033239   0.003926   0.002735   0.000681   0.000508
     H   18   0.035763   0.025727   0.004187   0.001441   0.002766   0.000626


                  H 13       H 14       H 15       H 16       H 17       H 18
 ------------------------------------------------------------------------------
     H   13   4.254524
     H   14   0.463631   4.255496
     H   15   0.020923   0.047021   4.259267
     H   16   0.018865   0.021363   0.460718   4.256353
     H   17   0.007850   0.001888   0.020978   0.018775   4.254524
     H   18   0.001784   0.010654   0.046852   0.021430   0.463631   4.255496


          HEAT OF FORMATION =     -23.462112 KCALS/MOLE

          ZERO POINT ENERGY      99.882 KCAL/MOL

         NOTE: SYSTEM IS NOT A GROUND STATE, THEREFORE ZERO POINT
         ENERGY IS NOT MEANINGFULL. ZERO POINT ENERGY PRINTED
         DOES NOT INCLUDE THE  1 IMAGINARY FREQUENCIES


           NORMAL COORDINATE ANALYSIS (Total motion = 1 Angstrom)


   Root No.       1         2         3         4         5         6         7         8

                 1 A2      1 B2      1 A1      2 A1      2 A2      2 B2      1 B1      3 A1  

                 -42.9     207.4     281.2     452.0     453.6     595.9     802.5     807.1
  
           1   -0.0058   -0.0046    0.0035    0.0295   -0.0209   -0.0152    0.0047   -0.0116
           2    0.0297   -0.0149    0.0165    0.0189   -0.0379   -0.0127   -0.0128   -0.0090
           3   -0.0174    0.0179   -0.0114   -0.0034   -0.0439   -0.0210    0.0149    0.0103
           4   -0.0062   -0.0033    0.0044    0.0252   -0.0331   -0.0211   -0.0037   -0.0039
           5   -0.0043    0.0048   -0.0065   -0.0365   -0.0228    0.0307   -0.0026    0.0056
           6   -0.0000   -0.0206    0.0414   -0.0290   -0.0001    0.0022    0.0000    0.0132
           7    0.0256    0.0155   -0.0167   -0.0281   -0.0430    0.0173   -0.0103    0.0125
           8   -0.0160   -0.0011    0.0027   -0.0208   -0.0061    0.0097    0.0090    0.0076
           9    0.0175    0.0180   -0.0114   -0.0035    0.0437   -0.0210   -0.0149    0.0104
          10   -0.0213   -0.0207   -0.0172   -0.0307    0.0082   -0.0045   -0.0119    0.0179
          11    0.0097    0.0086    0.0033   -0.0171    0.0563   -0.0282    0.0113   -0.0003
          12   -0.0259   -0.0079   -0.0105    0.0015    0.0236   -0.0039   -0.0117   -0.0001
          13    0.0062    0.0119    0.0238   -0.0140    0.0331    0.0008   -0.0037    0.0071
          14    0.0043   -0.0173   -0.0346    0.0202    0.0228   -0.0012   -0.0025   -0.0103
          15    0.0000    0.0037    0.0038    0.0470    0.0001    0.0373   -0.0000   -0.0080
          16    0.0014   -0.0006    0.0030    0.0269    0.0556    0.0280    0.0063   -0.0062
          17   -0.0234    0.0224    0.0172    0.0225   -0.0124   -0.0059   -0.0152   -0.0168
          18    0.0259   -0.0079   -0.0105    0.0016   -0.0235   -0.0038    0.0117   -0.0002
          19    0.0144   -0.0343    0.0420    0.0428   -0.0241   -0.0495    0.0454    0.0273
          20    0.0950   -0.0663    0.0410    0.0532   -0.0354   -0.0491    0.0940    0.0646
          21    0.0003    0.0095   -0.0159    0.0023   -0.0406   -0.0186    0.0313    0.0174
          22   -0.0305    0.0172   -0.0227   -0.0135   -0.0430    0.0142   -0.0400   -0.0337
          23    0.0337   -0.0192    0.0252    0.0334   -0.0288   -0.0220    0.0021   -0.0022
          24   -0.0809    0.0729   -0.0371   -0.0232   -0.0400    0.0122   -0.0894   -0.0750
          25   -0.0077   -0.0245    0.0347    0.0031    0.0151    0.0224   -0.0096   -0.0400
          26   -0.0053    0.0357   -0.0505   -0.0044    0.0104   -0.0327   -0.0066    0.0582
          27   -0.0000   -0.0497    0.0833   -0.0585    0.0000    0.0632   -0.0000   -0.0400
          28   -0.0292    0.0191   -0.0253    0.0436   -0.0572   -0.0624    0.0243    0.0268
          29   -0.0201   -0.0277    0.0365   -0.0632   -0.0394    0.0905    0.0167   -0.0389
          30   -0.0001   -0.0497    0.0802   -0.0574   -0.0001    0.0661    0.0001   -0.0354
          31    0.0939    0.0741   -0.0532   -0.0650   -0.0417    0.0636    0.1041   -0.0702
          32   -0.0205    0.0083   -0.0245   -0.0210   -0.0099    0.0288    0.0088   -0.0025
          33   -0.0001    0.0097   -0.0161    0.0021    0.0404   -0.0184   -0.0310    0.0172
          34    0.0204    0.0116   -0.0153   -0.0263   -0.0423    0.0154   -0.0125    0.0143
          35   -0.0407   -0.0231    0.0303    0.0245   -0.0300   -0.0211   -0.0383    0.0308
          36    0.0809    0.0729   -0.0370   -0.0232    0.0399    0.0121    0.0893   -0.0749
          37   -0.0430   -0.0397   -0.0191   -0.0214    0.0201   -0.0089    0.0255   -0.0192
          38    0.0735    0.0638    0.0357    0.0174    0.0622    0.0117   -0.0933    0.0794
          39   -0.0369   -0.0183   -0.0298   -0.0327    0.0033   -0.0249    0.0156   -0.0099
          40   -0.0578   -0.0615   -0.0572   -0.0537    0.0108   -0.0468    0.0599   -0.0410
          41   -0.0317   -0.0266   -0.0188   -0.0373    0.0546   -0.0531    0.0728   -0.0447
          42   -0.0699   -0.0341   -0.0084   -0.0197    0.0194   -0.0143    0.0546   -0.0393
          43    0.0292    0.0263    0.0429   -0.0282    0.0573   -0.0314    0.0242   -0.0174
          44    0.0201   -0.0380   -0.0622    0.0407    0.0394    0.0453    0.0167    0.0252
          45    0.0001   -0.0383   -0.0521    0.0820    0.0001    0.1159    0.0000    0.0505
          46    0.0077    0.0304    0.0503   -0.0327   -0.0151   -0.0378   -0.0097   -0.0264
          47    0.0053   -0.0443   -0.0733    0.0474   -0.0104    0.0550   -0.0066    0.0385
          48    0.0000    0.0383    0.0528    0.0111   -0.0000   -0.0333   -0.0000   -0.0664
          49    0.0532   -0.0454   -0.0264   -0.0085    0.0653   -0.0076   -0.0781   -0.0673
          50   -0.0665    0.0599    0.0305    0.0262   -0.0034    0.0125    0.0571    0.0463
          51    0.0370   -0.0183   -0.0299   -0.0327   -0.0031   -0.0248   -0.0157   -0.0099
          52   -0.0504    0.0469    0.0380    0.0541    0.0549    0.0663    0.0895    0.0565
          53   -0.0428    0.0481    0.0467    0.0369   -0.0093    0.0247    0.0301    0.0225
          54    0.0697   -0.0340   -0.0083   -0.0195   -0.0193   -0.0140   -0.0544   -0.0392


   Root No.       9        10        11        12        13        14        15        16

                 4 A1      3 A2      3 B2      2 B1      4 B2      5 A1      3 B1      5 B2  

                 895.8     954.5     955.4     971.2     972.4    1010.4    1126.6    1149.0
  
           1   -0.0138    0.0071   -0.0122    0.0051    0.0347   -0.0202    0.0369   -0.0131
           2   -0.0314   -0.0208   -0.0228    0.0337    0.0136   -0.0026   -0.0103    0.0223
           3   -0.0181    0.0153   -0.0061    0.0387   -0.0054   -0.0182   -0.0076   -0.0233
           4    0.0161   -0.0074   -0.0105   -0.0274   -0.0205    0.0171   -0.0369    0.0132
           5   -0.0235   -0.0051    0.0152   -0.0189    0.0298   -0.0250   -0.0254   -0.0192
           6   -0.0319   -0.0000    0.0317   -0.0001    0.0145    0.0201   -0.0000    0.0240
           7    0.0343   -0.0168    0.0256    0.0334   -0.0251    0.0097    0.0036   -0.0161
           8    0.0016    0.0141    0.0033   -0.0072   -0.0276    0.0179    0.0381    0.0203
           9   -0.0180   -0.0154   -0.0061   -0.0386   -0.0055   -0.0182    0.0077   -0.0233
          10    0.0149    0.0147   -0.0161   -0.0013    0.0325    0.0042    0.0230    0.0160
          11    0.0299   -0.0110   -0.0170    0.0429    0.0168    0.0259    0.0101   -0.0202
          12    0.0198    0.0196   -0.0124    0.0286   -0.0089   -0.0074   -0.0300    0.0234
          13   -0.0164    0.0074   -0.0169   -0.0274   -0.0062    0.0130   -0.0370   -0.0148
          14    0.0239    0.0051    0.0245   -0.0189    0.0089   -0.0190   -0.0254    0.0216
          15    0.0314    0.0000    0.0215   -0.0001    0.0374    0.0282   -0.0001   -0.0208
          16   -0.0333   -0.0050    0.0217    0.0397   -0.0273   -0.0257    0.0175    0.0131
          17   -0.0032    0.0177    0.0090   -0.0165   -0.0244    0.0054    0.0178   -0.0222
          18    0.0197   -0.0196   -0.0123   -0.0285   -0.0090   -0.0074    0.0300    0.0234
          19   -0.0076    0.0801    0.0304   -0.0038    0.0132    0.0236    0.0114   -0.0312
          20    0.0269    0.0464    0.0078   -0.0031   -0.0283   -0.0621   -0.0079   -0.0598
          21    0.0047    0.0034   -0.0142    0.0184   -0.0159   -0.0491    0.0031   -0.0358
          22   -0.0306   -0.0630   -0.0449   -0.0224    0.1049   -0.0309   -0.0666   -0.0009
          23   -0.0197    0.0058   -0.0092    0.0317   -0.0200    0.0049    0.0277    0.0187
          24   -0.0601   -0.0499   -0.0519    0.0582   -0.0059    0.0376    0.0487    0.0666
          25    0.0607   -0.0193   -0.0626   -0.1380   -0.0357   -0.0245    0.0790   -0.0183
          26   -0.0885   -0.0133    0.0911   -0.0950    0.0519    0.0356    0.0543    0.0267
          27    0.0404   -0.0000   -0.0509   -0.0003   -0.0234   -0.0380    0.0002   -0.0200
          28   -0.0324    0.0556    0.0383    0.0147    0.0133    0.0457   -0.0648    0.0364
          29    0.0468    0.0383   -0.0555    0.0102   -0.0193   -0.0664   -0.0446   -0.0528
          30    0.0368    0.0001   -0.0453    0.0000   -0.0254   -0.0362   -0.0001   -0.0220
          31   -0.0225    0.0720   -0.0181   -0.0042    0.0217    0.0497   -0.0033    0.0670
          32    0.0166    0.0582   -0.0256   -0.0024   -0.0224   -0.0442    0.0134    0.0078
          33    0.0046   -0.0031   -0.0143   -0.0184   -0.0159   -0.0491   -0.0031   -0.0356
          34    0.0295   -0.0172    0.0248    0.0218   -0.0188    0.0063    0.0022   -0.0173
          35    0.0215   -0.0611    0.0387   -0.0321   -0.1051    0.0305   -0.0721    0.0074
          36   -0.0601    0.0498   -0.0518   -0.0582   -0.0062    0.0376   -0.0488    0.0666
          37   -0.0039    0.0098   -0.0046   -0.0311    0.0612    0.0387   -0.0565   -0.0285
          38    0.0700    0.0717   -0.0679    0.0444    0.0438   -0.0163    0.0129    0.0590
          39    0.0048   -0.0354    0.0126    0.0443   -0.0761   -0.0251    0.0650    0.0223
          40   -0.0062   -0.0738    0.0317   -0.0145    0.0031   -0.0112    0.0016   -0.0307
          41   -0.0068   -0.0556    0.0059    0.0123   -0.0135    0.0440    0.0064   -0.0605
          42   -0.0268    0.0067   -0.0122    0.0014   -0.0322    0.0691   -0.0126   -0.0350
          43    0.0177   -0.0556    0.0220    0.0147    0.0130   -0.0160   -0.0648    0.0089
          44   -0.0255   -0.0383   -0.0317    0.0101   -0.0189    0.0231   -0.0446   -0.0128
          45   -0.0602   -0.0001   -0.0715    0.0000   -0.0258    0.0837   -0.0001   -0.0660
          46    0.0287    0.0193    0.0347   -0.1381    0.0166   -0.0237    0.0789    0.0130
          47   -0.0417    0.0133   -0.0507   -0.0951   -0.0243    0.0346    0.0544   -0.0190
          48    0.1028    0.0000    0.1050   -0.0003    0.0604   -0.0393    0.0001    0.0303
          49   -0.0640    0.0704    0.0651    0.0305   -0.0625    0.0015   -0.0079   -0.0450
          50    0.0288   -0.0165   -0.0200   -0.0448   -0.0414   -0.0419   -0.0572    0.0477
          51    0.0048    0.0356    0.0128   -0.0443   -0.0763   -0.0251   -0.0652    0.0223
          52    0.0087   -0.0782   -0.0168    0.0064    0.0116   -0.0373    0.0065    0.0675
          53    0.0036   -0.0490   -0.0275   -0.0179   -0.0076    0.0261   -0.0008    0.0071
          54   -0.0267   -0.0069   -0.0122   -0.0014   -0.0322    0.0691    0.0125   -0.0348


   Root No.      17        18        19        20        21        22        23        24

                 4 A2      4 B1      6 A1      5 A2      6 B2      6 A2      5 B1      7 A1  

                1157.1    1164.4    1174.4    1183.1    1210.9    1211.4    1244.3    1246.8
  
           1   -0.0290   -0.0021    0.0314    0.0026   -0.0077   -0.0153    0.0153    0.0140
           2   -0.0146   -0.0064   -0.0240    0.0035   -0.0047    0.0069   -0.0057   -0.0138
           3    0.0059   -0.0075   -0.0396    0.0038    0.0004   -0.0131   -0.0201   -0.0009
           4    0.0355    0.0028   -0.0132    0.0011    0.0094    0.0181   -0.0147   -0.0140
           5    0.0245    0.0019    0.0191    0.0008   -0.0137    0.0124   -0.0101    0.0204
           6    0.0001    0.0000    0.0198    0.0000    0.0124    0.0000   -0.0000   -0.0090
           7   -0.0240   -0.0068    0.0113    0.0042    0.0072    0.0009    0.0001    0.0079
           8   -0.0219    0.0003   -0.0378    0.0012    0.0055   -0.0167    0.0163   -0.0180
           9   -0.0060    0.0075   -0.0396   -0.0038    0.0004    0.0130    0.0202   -0.0009
          10    0.0296   -0.0004   -0.0304   -0.0014   -0.0077   -0.0010    0.0184   -0.0025
          11    0.0138   -0.0089    0.0225   -0.0053   -0.0049    0.0168   -0.0101   -0.0029
          12   -0.0050   -0.0048    0.0412   -0.0018    0.0005   -0.0130   -0.0153    0.0193
          13   -0.0355    0.0028    0.0099   -0.0011   -0.0079   -0.0181   -0.0147   -0.0064
          14   -0.0244    0.0019   -0.0143   -0.0008    0.0115   -0.0124   -0.0101    0.0094
          15   -0.0001    0.0000   -0.0251   -0.0000   -0.0154   -0.0000   -0.0000   -0.0238
          16    0.0234   -0.0084   -0.0103   -0.0054    0.0073    0.0153   -0.0029    0.0036
          17    0.0227    0.0028    0.0364    0.0006    0.0054   -0.0069    0.0208    0.0013
          18    0.0051    0.0048    0.0412    0.0018    0.0005    0.0130    0.0153    0.0193
          19   -0.0536    0.0767    0.0076    0.0495   -0.0958    0.0350   -0.0555    0.0820
          20    0.0593   -0.0333    0.0042   -0.0127    0.0380   -0.0321    0.0168   -0.0161
          21    0.0470   -0.0459   -0.0123   -0.0199    0.0535   -0.0420    0.0176   -0.0293
          22   -0.0107   -0.0572    0.0920   -0.0562    0.0777   -0.0554    0.0478   -0.1012
          23   -0.0116    0.0180   -0.0386    0.0279   -0.0381    0.0281   -0.0166    0.0332
          24   -0.0298    0.0289   -0.0400    0.0436   -0.0447    0.0463   -0.0183    0.0423
          25    0.0957   -0.0328   -0.0266    0.1038   -0.0027   -0.0433   -0.0826    0.0002
          26    0.0659   -0.0226    0.0387    0.0715    0.0039   -0.0298   -0.0568   -0.0003
          27    0.0002   -0.0001   -0.0214    0.0002   -0.0024   -0.0001   -0.0002    0.0047
          28    0.0180    0.0929    0.0281   -0.0812    0.0162    0.0834    0.0833   -0.0132
          29    0.0124    0.0639   -0.0408   -0.0559   -0.0235    0.0574    0.0574    0.0191
          30    0.0000    0.0002   -0.0349   -0.0002   -0.0008    0.0002    0.0002   -0.0033
          31    0.0363   -0.0038   -0.0066    0.0057   -0.0014   -0.0176   -0.0041   -0.0141
          32   -0.0712    0.0834   -0.0055    0.0507    0.1030    0.0441   -0.0578   -0.0823
          33   -0.0470    0.0461   -0.0123    0.0200    0.0537    0.0420   -0.0177   -0.0295
          34   -0.0147   -0.0035    0.0033    0.0061    0.0080    0.0066    0.0015    0.0050
          35   -0.0059   -0.0598   -0.0997   -0.0624   -0.0861   -0.0617    0.0506    0.1063
          36    0.0297   -0.0290   -0.0402   -0.0437   -0.0448   -0.0464    0.0184    0.0424
          37   -0.0039   -0.0441   -0.0625    0.0467    0.0561    0.0476    0.0328    0.0724
          38    0.0329   -0.0010   -0.0044   -0.0140   -0.0066   -0.0167    0.0052    0.0087
          39    0.0063    0.0498    0.0874   -0.0588   -0.0794   -0.0588   -0.0424   -0.0884
          40    0.0308    0.0586   -0.0140   -0.0368   -0.0728   -0.0300   -0.0373   -0.0614
          41   -0.0261   -0.0069    0.0052   -0.0057    0.0045    0.0247   -0.0097   -0.0138
          42   -0.0835   -0.0750    0.0019    0.0402    0.0904    0.0502    0.0467    0.0622
          43   -0.0179    0.0929   -0.0171    0.0812   -0.0011   -0.0834    0.0833   -0.0031
          44   -0.0123    0.0640    0.0247    0.0559    0.0017   -0.0574    0.0574    0.0046
          45   -0.0000    0.0002    0.0528    0.0002   -0.0285   -0.0002    0.0002   -0.0228
          46   -0.0957   -0.0327   -0.0147   -0.1038    0.0016    0.0433   -0.0826    0.0027
          47   -0.0659   -0.0225    0.0215   -0.0714   -0.0023    0.0298   -0.0568   -0.0038
          48   -0.0002   -0.0001   -0.0448   -0.0002    0.0045    0.0001   -0.0002   -0.0001
          49    0.0294   -0.0166    0.0262    0.0034   -0.0137    0.0012    0.0165   -0.0338
          50   -0.0154   -0.0407    0.0567    0.0485   -0.0546    0.0503    0.0287   -0.0644
          51   -0.0062   -0.0499    0.0876    0.0589   -0.0796    0.0589    0.0424   -0.0886
          52   -0.0136    0.0143    0.0002   -0.0184    0.0216    0.0125   -0.0223    0.0347
          53    0.0380    0.0571    0.0149   -0.0323    0.0695   -0.0367   -0.0313    0.0523
          54    0.0835    0.0751    0.0019   -0.0403    0.0906   -0.0502   -0.0468    0.0624


   Root No.      25        26        27        28        29        30        31        32

                 7 A2      6 B1      7 B2      8 A1      8 A2      7 B1      9 A1      8 B2  

                1310.5    1310.7    1322.1    1323.0    1332.8    1335.2    1339.5    1339.8
  
           1    0.0111    0.0040    0.0059   -0.0084    0.0032   -0.0091   -0.0051    0.0032
           2    0.0068   -0.0061    0.0044    0.0029   -0.0034   -0.0036   -0.0045    0.0053
           3   -0.0001   -0.0032    0.0058    0.0077   -0.0106   -0.0059   -0.0065    0.0064
           4   -0.0131   -0.0032   -0.0042    0.0005   -0.0139    0.0043    0.0038    0.0086
           5   -0.0090   -0.0022    0.0062   -0.0006   -0.0096    0.0030   -0.0056   -0.0124
           6   -0.0000    0.0000    0.0003   -0.0122   -0.0000    0.0000    0.0017   -0.0019
           7    0.0103   -0.0043   -0.0062    0.0003   -0.0020   -0.0067    0.0061   -0.0061
           8    0.0079    0.0058   -0.0040    0.0089    0.0042   -0.0073    0.0031   -0.0011
           9    0.0001    0.0032    0.0058    0.0077    0.0106    0.0059   -0.0064    0.0064
          10   -0.0107    0.0013    0.0028    0.0083   -0.0063   -0.0044    0.0020    0.0012
          11   -0.0073   -0.0022    0.0089   -0.0028    0.0080   -0.0105    0.0091    0.0083
          12    0.0006   -0.0075    0.0008   -0.0079    0.0056    0.0016    0.0015    0.0031
          13    0.0131   -0.0032    0.0002   -0.0069    0.0139    0.0043    0.0013    0.0003
          14    0.0090   -0.0022   -0.0003    0.0100    0.0096    0.0030   -0.0020   -0.0004
          15    0.0000   -0.0000    0.0075    0.0020    0.0000    0.0000    0.0066   -0.0152
          16   -0.0107   -0.0016   -0.0093   -0.0003    0.0052   -0.0114   -0.0092   -0.0082
          17   -0.0074    0.0020    0.0005   -0.0087   -0.0087   -0.0004    0.0014    0.0018
          18   -0.0007    0.0075    0.0008   -0.0079   -0.0056   -0.0016    0.0015    0.0031
          19   -0.0668    0.0811   -0.0454    0.1083    0.0068    0.0028    0.0148   -0.0185
          20   -0.0350    0.0082   -0.0626   -0.0176    0.0828    0.1043    0.0854   -0.0581
          21    0.0109   -0.0251   -0.0033   -0.0462    0.0221    0.0347    0.0244   -0.0099
          22   -0.0484    0.0649   -0.0424    0.0757    0.0250    0.0047    0.0193   -0.0150
          23    0.0219   -0.0262    0.0145   -0.0300   -0.0049    0.0039   -0.0034    0.0056
          24   -0.0238    0.0086   -0.0633   -0.0201    0.0906    0.1104    0.0880   -0.0576
          25    0.0707   -0.0623    0.0366   -0.0033    0.0318    0.0109   -0.0254   -0.0463
          26    0.0486   -0.0429   -0.0534    0.0048    0.0219    0.0075    0.0371    0.0675
          27    0.0001   -0.0001    0.0525   -0.0125    0.0001    0.0000   -0.0357   -0.0709
          28    0.0855   -0.0765    0.0360   -0.0230    0.0504    0.0143   -0.0244   -0.0501
          29    0.0588   -0.0527   -0.0522    0.0333    0.0347    0.0099    0.0354    0.0725
          30    0.0002   -0.0001   -0.0494    0.0191    0.0001    0.0000    0.0362    0.0746
          31   -0.0565    0.0366    0.0747   -0.0221    0.0798    0.0985   -0.0851    0.0609
          32   -0.0498    0.0727    0.0200   -0.1074   -0.0232   -0.0345    0.0166   -0.0035
          33   -0.0111    0.0253   -0.0031   -0.0465   -0.0220   -0.0345    0.0242   -0.0098
          34    0.0031   -0.0012    0.0018    0.0011    0.0046    0.0056   -0.0039    0.0003
          35   -0.0530    0.0700    0.0449   -0.0814    0.0253    0.0032   -0.0194    0.0161
          36    0.0237   -0.0084   -0.0632   -0.0202   -0.0905   -0.1104    0.0880   -0.0576
          37    0.0068    0.0239    0.0155   -0.0450    0.0373   -0.0571    0.0388    0.0256
          38    0.0387    0.0337   -0.0700   -0.0146   -0.0859    0.0940   -0.0812   -0.0536
          39   -0.0429   -0.0572    0.0296    0.0692    0.0093    0.0113    0.0051    0.0074
          40    0.0673    0.0710   -0.0597   -0.0872   -0.0343    0.0357   -0.0396   -0.0362
          41    0.0341    0.0230   -0.0419   -0.0130   -0.0426    0.0565   -0.0493   -0.0324
          42   -0.0099   -0.0414   -0.0261    0.0799   -0.0663    0.0874   -0.0641   -0.0383
          43   -0.0854   -0.0766    0.0245    0.0086   -0.0504    0.0143    0.0182   -0.0373
          44   -0.0588   -0.0527   -0.0354   -0.0123   -0.0347    0.0099   -0.0263    0.0540
          45   -0.0002   -0.0001   -0.0680   -0.0421   -0.0001    0.0000   -0.0464    0.0949
          46   -0.0706   -0.0623   -0.0331   -0.0073   -0.0318    0.0109   -0.0226    0.0444
          47   -0.0486   -0.0429    0.0483    0.0107   -0.0219    0.0075    0.0329   -0.0647
          48   -0.0001   -0.0001   -0.0593   -0.0045   -0.0001    0.0000   -0.0413    0.0745
          49    0.0385    0.0398    0.0598    0.0295   -0.0669    0.0674    0.0620    0.0409
          50   -0.0076    0.0102   -0.0395    0.0367    0.0655   -0.0869   -0.0653   -0.0430
          51    0.0429    0.0573    0.0297    0.0693   -0.0094   -0.0112    0.0052    0.0075
          52    0.0559    0.0467    0.0605    0.0431   -0.0522    0.0657    0.0603    0.0433
          53    0.0507    0.0580    0.0408    0.0767   -0.0169    0.0133    0.0195    0.0223
          54    0.0101    0.0415   -0.0259    0.0802    0.0661   -0.0872   -0.0639   -0.0381


   Root No.      33        34        35        36        37        38        39        40

                10 A1      8 B1      9 B2      9 A2     10 B2     10 A2     11 A1     11 B2  

                1353.4    1385.5    1398.6    1407.8    2649.9    2654.7    2664.5    2674.5
  
           1   -0.0088   -0.0069    0.0234   -0.0165    0.0000    0.0002    0.0004    0.0006
           2    0.0003    0.0095   -0.0064    0.0080    0.0075   -0.0105   -0.0051    0.0051
           3    0.0005    0.0060   -0.0087    0.0056   -0.0057    0.0080    0.0035   -0.0034
           4   -0.0075   -0.0248   -0.0024   -0.0135    0.0000   -0.0006   -0.0000    0.0001
           5    0.0109   -0.0171    0.0035   -0.0093   -0.0001   -0.0004    0.0001   -0.0001
           6   -0.0014   -0.0000    0.0068   -0.0000    0.0070   -0.0000   -0.0146   -0.0159
           7    0.0029    0.0064   -0.0024    0.0016   -0.0070   -0.0097    0.0046   -0.0050
           8    0.0083   -0.0098   -0.0241   -0.0183    0.0026    0.0039   -0.0022    0.0013
           9    0.0006   -0.0060   -0.0088   -0.0056   -0.0057   -0.0081    0.0035   -0.0034
          10    0.0058   -0.0030    0.0168    0.0098    0.0071    0.0098    0.0044    0.0049
          11    0.0040    0.0038    0.0032    0.0018   -0.0028   -0.0040   -0.0018   -0.0012
          12   -0.0052    0.0122   -0.0192   -0.0165    0.0056    0.0079    0.0041    0.0035
          13   -0.0015   -0.0248   -0.0036    0.0135   -0.0040    0.0006   -0.0082    0.0089
          14    0.0022   -0.0171    0.0053    0.0093    0.0058    0.0004    0.0120   -0.0130
          15   -0.0130   -0.0000    0.0048    0.0000    0.0006    0.0000    0.0013   -0.0017
          16   -0.0058    0.0025   -0.0090    0.0052    0.0000   -0.0002    0.0001   -0.0007
          17   -0.0040   -0.0041   -0.0145    0.0084   -0.0076    0.0106   -0.0047   -0.0050
          18   -0.0052   -0.0122   -0.0193    0.0165    0.0055   -0.0079    0.0041    0.0035
          19    0.0245    0.0404   -0.0761    0.0586    0.0324   -0.0434   -0.0214    0.0159
          20    0.0419    0.0043    0.0374   -0.0255   -0.0272    0.0358    0.0189   -0.0111
          21    0.0034   -0.0173    0.0435   -0.0348    0.0805   -0.1060   -0.0570    0.0349
          22    0.0230    0.0717   -0.0750    0.0690   -0.0297    0.0424    0.0162   -0.0225
          23   -0.0073   -0.0243    0.0310   -0.0258   -0.0750    0.1075    0.0415   -0.0580
          24    0.0398   -0.0064    0.0486   -0.0303    0.0021   -0.0032   -0.0002    0.0024
          25    0.0604    0.0950   -0.0178    0.0659    0.0204    0.0000   -0.0444   -0.0515
          26   -0.0879    0.0654    0.0259    0.0454   -0.0295    0.0000    0.0642    0.0746
          27    0.0872    0.0002   -0.0206    0.0001   -0.0411   -0.0000    0.0909    0.1071
          28    0.0608    0.0725   -0.0079    0.0498   -0.0275   -0.0014    0.0500    0.0471
          29   -0.0881    0.0499    0.0115    0.0343    0.0402   -0.0009   -0.0730   -0.0687
          30   -0.0917    0.0001    0.0184    0.0001   -0.0586   -0.0000    0.1039    0.0961
          31   -0.0479    0.0184   -0.0078   -0.0030    0.0137    0.0177   -0.0099    0.0046
          32   -0.0080    0.0362    0.0844    0.0638   -0.0401   -0.0535    0.0269   -0.0189
          33    0.0033    0.0174    0.0436    0.0349    0.0805    0.1060   -0.0570    0.0349
          34   -0.0015    0.0029   -0.0023    0.0004    0.0807    0.1155   -0.0446    0.0622
          35   -0.0241    0.0756    0.0811    0.0736    0.0009    0.0013   -0.0003    0.0003
          36    0.0398    0.0066    0.0487    0.0304    0.0023    0.0035   -0.0003    0.0025
          37    0.0113    0.0377   -0.0601   -0.0486   -0.0588   -0.0843   -0.0319   -0.0456
          38   -0.0426    0.0253    0.0093   -0.0039   -0.0325   -0.0464   -0.0187   -0.0243
          39    0.0151   -0.0609    0.0724    0.0630   -0.0447   -0.0640   -0.0249   -0.0347
          40   -0.0354    0.0382   -0.0547   -0.0445   -0.0382   -0.0499   -0.0279   -0.0150
          41   -0.0260    0.0076    0.0062    0.0050    0.0757    0.1001    0.0529    0.0339
          42   -0.0209   -0.0209    0.0778    0.0573   -0.0327   -0.0435   -0.0220   -0.0147
          43   -0.0460    0.0724   -0.0096   -0.0498    0.0357    0.0014    0.0634   -0.0588
          44    0.0665    0.0499    0.0140   -0.0343   -0.0520    0.0009   -0.0924    0.0856
          45    0.1154    0.0001    0.0157   -0.0001    0.0427    0.0000    0.0779   -0.0735
          46    0.0550    0.0950    0.0133   -0.0659    0.0213   -0.0000    0.0471   -0.0555
          47   -0.0802    0.0654   -0.0194   -0.0454   -0.0308   -0.0000   -0.0682    0.0804
          48    0.0976    0.0002    0.0293   -0.0001   -0.0397    0.0000   -0.0865    0.1006
          49    0.0357    0.0369    0.0126   -0.0208    0.0515   -0.0736    0.0289    0.0391
          50   -0.0258    0.0261    0.0594   -0.0439    0.0434   -0.0623    0.0232    0.0340
          51    0.0151    0.0611    0.0726   -0.0631   -0.0445    0.0637   -0.0248   -0.0345
          52    0.0370    0.0206    0.0136   -0.0110   -0.0570    0.0756   -0.0395   -0.0263
          53    0.0238    0.0329    0.0532   -0.0433    0.0628   -0.0824    0.0450    0.0262
          54   -0.0207    0.0210    0.0779   -0.0574   -0.0328    0.0435   -0.0221   -0.0147


   Root No.      41        42        43        44        45        46        47        48

                 9 B1     12 A1     12 B2     11 A2     13 A1     10 B1     13 B2     14 A1  

                2681.3    2688.8    2742.0    2743.4    2743.4    2743.7    2747.2    2749.1
  
           1    0.0002    0.0007    0.0022   -0.0043    0.0032   -0.0063   -0.0038   -0.0048
           2   -0.0114    0.0082    0.0045   -0.0057    0.0037   -0.0043   -0.0016   -0.0006
           3    0.0086   -0.0062    0.0051   -0.0073    0.0034   -0.0054   -0.0040   -0.0036
           4   -0.0005    0.0004   -0.0028   -0.0026   -0.0035   -0.0023   -0.0064   -0.0057
           5   -0.0004   -0.0006    0.0040   -0.0017    0.0051   -0.0016    0.0093    0.0084
           6   -0.0000   -0.0087    0.0017    0.0000    0.0016   -0.0000   -0.0012   -0.0017
           7   -0.0105   -0.0079   -0.0050   -0.0069   -0.0046   -0.0063    0.0029    0.0023
           8    0.0043    0.0023   -0.0005   -0.0021   -0.0017   -0.0043    0.0029    0.0043
           9   -0.0086   -0.0062    0.0051    0.0074    0.0033    0.0053   -0.0040   -0.0036
          10   -0.0105   -0.0081    0.0009    0.0016   -0.0021   -0.0032   -0.0010    0.0014
          11    0.0043    0.0026    0.0065    0.0097   -0.0054   -0.0086   -0.0057    0.0055
          12   -0.0086   -0.0058    0.0029    0.0030   -0.0016   -0.0005    0.0004   -0.0018
          13   -0.0005   -0.0048   -0.0007    0.0025    0.0006   -0.0023    0.0013   -0.0015
          14   -0.0004    0.0070    0.0010    0.0017   -0.0008   -0.0016   -0.0019    0.0022
          15    0.0000    0.0016    0.0050   -0.0000   -0.0063   -0.0000    0.0111   -0.0099
          16    0.0002    0.0005   -0.0064    0.0097    0.0057   -0.0092    0.0056   -0.0057
          17   -0.0114    0.0085    0.0015   -0.0020    0.0000    0.0000   -0.0011    0.0007
          18    0.0086   -0.0058    0.0029   -0.0030   -0.0015    0.0005    0.0004   -0.0018
          19   -0.0423    0.0277   -0.0259    0.0379   -0.0237    0.0383    0.0217    0.0246
          20    0.0345   -0.0213    0.0281   -0.0406    0.0263   -0.0417   -0.0216   -0.0247
          21   -0.1066    0.0674   -0.0699    0.1012   -0.0638    0.1027    0.0547    0.0637
          22    0.0412   -0.0317   -0.0292    0.0402   -0.0287    0.0410    0.0152    0.0160
          23    0.1070   -0.0835   -0.0823    0.1124   -0.0804    0.1148    0.0447    0.0476
          24   -0.0018    0.0019    0.0070   -0.0098    0.0070   -0.0103   -0.0043   -0.0049
          25   -0.0000   -0.0316    0.0295   -0.0007    0.0320   -0.0000    0.0403    0.0353
          26    0.0000    0.0457   -0.0427   -0.0009   -0.0463   -0.0000   -0.0582   -0.0510
          27   -0.0000    0.0669   -0.0683   -0.0005   -0.0749   -0.0000   -0.0967   -0.0847
          28   -0.0015    0.0204    0.0197    0.0007    0.0243    0.0008    0.0467    0.0434
          29   -0.0010   -0.0297   -0.0288    0.0002   -0.0354    0.0006   -0.0681   -0.0633
          30   -0.0000    0.0390    0.0490    0.0004    0.0591   -0.0000    0.1094    0.1008
          31    0.0169    0.0098   -0.0169   -0.0244   -0.0157   -0.0250    0.0123    0.0141
          32   -0.0520   -0.0336    0.0343    0.0505    0.0311    0.0509   -0.0280   -0.0319
          33    0.1066    0.0674   -0.0699   -0.1020   -0.0629   -0.1027    0.0547    0.0637
          34    0.1147    0.0894    0.0873    0.1205    0.0842    0.1218   -0.0471   -0.0502
          35    0.0003   -0.0002   -0.0021   -0.0026   -0.0019   -0.0027    0.0018    0.0021
          36    0.0021    0.0022    0.0072    0.0102    0.0071    0.0105   -0.0044   -0.0050
          37    0.0826    0.0645   -0.0650   -0.0897    0.0637    0.0906    0.0352   -0.0375
          38    0.0468    0.0359   -0.0301   -0.0414    0.0294    0.0415    0.0156   -0.0163
          39    0.0644    0.0505   -0.0504   -0.0691    0.0491    0.0697    0.0277   -0.0296
          40    0.0503    0.0309    0.0370    0.0536   -0.0340   -0.0540   -0.0278    0.0325
          41   -0.1004   -0.0641   -0.0634   -0.0927    0.0578    0.0927    0.0506   -0.0586
          42    0.0418    0.0265    0.0308    0.0452   -0.0287   -0.0455   -0.0246    0.0279
          43   -0.0015    0.0240   -0.0295   -0.0004    0.0357    0.0008   -0.0662    0.0610
          44   -0.0011   -0.0349    0.0430   -0.0008   -0.0520    0.0005    0.0964   -0.0888
          45   -0.0000    0.0320   -0.0299    0.0002    0.0370    0.0000   -0.0715    0.0665
          46    0.0000    0.0348    0.0357    0.0007   -0.0392   -0.0001    0.0508   -0.0444
          47   -0.0000   -0.0503   -0.0517    0.0010    0.0568   -0.0000   -0.0736    0.0643
          48    0.0000   -0.0618   -0.0583    0.0004    0.0633    0.0001   -0.0799    0.0700
          49    0.0733   -0.0567    0.0515   -0.0715   -0.0497    0.0712   -0.0272    0.0287
          50    0.0605   -0.0475    0.0501   -0.0697   -0.0485    0.0699   -0.0273    0.0292
          51   -0.0641    0.0503   -0.0502    0.0694    0.0483   -0.0693    0.0276   -0.0294
          52   -0.0757    0.0488    0.0460   -0.0679   -0.0411    0.0672   -0.0372    0.0430
          53    0.0829   -0.0518   -0.0573    0.0839    0.0518   -0.0836    0.0441   -0.0513
          54   -0.0418    0.0265    0.0309   -0.0456   -0.0283    0.0455   -0.0246    0.0279


           MASS-WEIGHTED COORDINATE ANALYSIS (NORMAL COORDINATES)


   Root No.       1         2         3         4         5         6         7         8

                 1 A2      1 B2      1 A1      2 A1      2 A2      2 B2      1 B1      3 A1  

                  48.0     218.7     288.0     453.3     453.9     597.3     806.5     811.1
  
           1   -0.0551   -0.0498    0.0330    0.2428   -0.1415   -0.1403    0.0484   -0.1328
           2    0.2820   -0.1631    0.1612    0.1569   -0.2554   -0.1184   -0.1350   -0.1026
           3   -0.1656    0.1973   -0.1112   -0.0293   -0.2971   -0.1921    0.1561    0.1191
           4   -0.0587   -0.0347    0.0417    0.2072   -0.2238   -0.1945   -0.0394   -0.0435
           5   -0.0404    0.0509   -0.0613   -0.3002   -0.1541    0.2826   -0.0272    0.0628
           6   -0.0001   -0.2253    0.4071   -0.2356   -0.0004    0.0204    0.0000    0.1529
           7    0.2433    0.1697   -0.1620   -0.2331   -0.2899    0.1609   -0.1084    0.1429
           8   -0.1525   -0.0121    0.0273   -0.1707   -0.0415    0.0893    0.0936    0.0872
           9    0.1660    0.1978   -0.1112   -0.0302    0.2963   -0.1918   -0.1562    0.1196
          10   -0.2020   -0.2270   -0.1665   -0.2542    0.0551   -0.0434   -0.1257    0.2057
          11    0.0926    0.0950    0.0334   -0.1402    0.3812   -0.2595    0.1186   -0.0037
          12   -0.2464   -0.0866   -0.1028    0.0111    0.1587   -0.0369   -0.1228   -0.0022
          13    0.0587    0.1305    0.2336   -0.1131    0.2239    0.0071   -0.0396    0.0822
          14    0.0404   -0.1897   -0.3399    0.1631    0.1541   -0.0111   -0.0271   -0.1191
          15    0.0001    0.0394    0.0341    0.3862    0.0004    0.3434   -0.0001   -0.0910
          16    0.0138   -0.0075    0.0284    0.2217    0.3762    0.2581    0.0656   -0.0700
          17   -0.2221    0.2461    0.1673    0.1873   -0.0843   -0.0523   -0.1599   -0.1934
          18    0.2460   -0.0862   -0.1028    0.0119   -0.1579   -0.0360    0.1226   -0.0027
          19    0.0383   -0.1074    0.1178    0.1021   -0.0475   -0.1321    0.1387    0.0932
          20    0.2607   -0.2095    0.1149    0.1265   -0.0684   -0.1319    0.2882    0.2200
          21    0.0005    0.0305   -0.0454    0.0047   -0.0793   -0.0496    0.0953    0.0583
          22   -0.0808    0.0516   -0.0623   -0.0310   -0.0836    0.0370   -0.1192   -0.1110
          23    0.0912   -0.0592    0.0701    0.0796   -0.0565   -0.0586    0.0050   -0.0081
          24   -0.2191    0.2286   -0.1025   -0.0537   -0.0783    0.0323   -0.2713   -0.2515
          25   -0.0212   -0.0770    0.0970    0.0091    0.0297    0.0583   -0.0299   -0.1336
          26   -0.0146    0.1123   -0.1413   -0.0129    0.0204   -0.0851   -0.0206    0.1944
          27   -0.0000   -0.1569    0.2355   -0.1362    0.0000    0.1664   -0.0000   -0.1339
          28   -0.0806    0.0612   -0.0723    0.1027   -0.1124   -0.1658    0.0736    0.0913
          29   -0.0555   -0.0885    0.1045   -0.1488   -0.0774    0.2405    0.0507   -0.1324
          30   -0.0001   -0.1581    0.2282   -0.1341   -0.0002    0.1754    0.0002   -0.1201
          31    0.2572    0.2340   -0.1492   -0.1546   -0.0811    0.1703    0.3190   -0.2389
          32   -0.0573    0.0255   -0.0688   -0.0502   -0.0201    0.0765    0.0268   -0.0087
          33    0.0000    0.0311   -0.0458    0.0043    0.0791   -0.0491   -0.0945    0.0577
          34    0.0558    0.0363   -0.0430   -0.0631   -0.0829    0.0414   -0.0386    0.0478
          35   -0.1084   -0.0698    0.0836    0.0575   -0.0581   -0.0554   -0.1136    0.1012
          36    0.2191    0.2285   -0.1023   -0.0537    0.0780    0.0322    0.2711   -0.2512
          37   -0.1177   -0.1256   -0.0533   -0.0508    0.0391   -0.0242    0.0780   -0.0655
          38    0.1980    0.1989    0.0982    0.0396    0.1215    0.0306   -0.2824    0.2653
          39   -0.0990   -0.0554   -0.0826   -0.0775    0.0068   -0.0658    0.0448   -0.0313
          40   -0.1581   -0.1941   -0.1608   -0.1283    0.0211   -0.1253    0.1839   -0.1403
          41   -0.0862   -0.0832   -0.0523   -0.0883    0.1068   -0.1418    0.2225   -0.1515
          42   -0.1924   -0.1084   -0.0235   -0.0466    0.0371   -0.0386    0.1677   -0.1337
          43    0.0806    0.0834    0.1219   -0.0658    0.1125   -0.0832    0.0736   -0.0591
          44    0.0555   -0.1208   -0.1768    0.0951    0.0774    0.1201    0.0507    0.0854
          45    0.0001   -0.1225   -0.1487    0.1930    0.0002    0.3078    0.0001    0.1718
          46    0.0212    0.0959    0.1421   -0.0759   -0.0297   -0.0995   -0.0300   -0.0883
          47    0.0146   -0.1397   -0.2071    0.1101   -0.0204    0.1447   -0.0206    0.1289
          48    0.0000    0.1202    0.1476    0.0291   -0.0001   -0.0864   -0.0001   -0.2217
          49    0.1427   -0.1409   -0.0725   -0.0187    0.1275   -0.0197   -0.2359   -0.2243
          50   -0.1808    0.1884    0.0848    0.0617   -0.0068    0.0336    0.1738    0.1560
          51    0.0991   -0.0555   -0.0828   -0.0774   -0.0065   -0.0657   -0.0451   -0.0316
          52   -0.1375    0.1473    0.1062    0.1284    0.1074    0.1772    0.2738    0.1919
          53   -0.1172    0.1519    0.1315    0.0884   -0.0184    0.0663    0.0926    0.0772
          54    0.1919   -0.1078   -0.0231   -0.0461   -0.0369   -0.0380   -0.1669   -0.1331


   Root No.       9        10        11        12        13        14        15        16

                 4 A1      3 A2      3 B2      2 B1      4 B2      5 A1      3 B1      5 B2  

                 897.1     956.7     957.7     971.0     973.4    1011.0    1126.2    1149.3
  
           1   -0.1152    0.0749   -0.1094    0.0371    0.2976   -0.1965    0.2975   -0.1185
           2   -0.2600   -0.2185   -0.2128    0.2415    0.1185   -0.0241   -0.0844    0.2072
           3   -0.1518    0.1600   -0.0589    0.2779   -0.0418   -0.1750   -0.0620   -0.2155
           4    0.1351   -0.0801   -0.1028   -0.1969   -0.1729    0.1655   -0.2972    0.1197
           5   -0.1964   -0.0551    0.1486   -0.1355    0.2508   -0.2415   -0.2047   -0.1744
           6   -0.2609   -0.0001    0.3040   -0.0004    0.1136    0.1962   -0.0004    0.2220
           7    0.2842   -0.1769    0.2379    0.2396   -0.2167    0.0930    0.0273   -0.1508
           8    0.0143    0.1482    0.0264   -0.0511   -0.2357    0.1748    0.3078    0.1850
           9   -0.1517   -0.1602   -0.0584   -0.2774   -0.0427   -0.1748    0.0627   -0.2157
          10    0.1224    0.1535   -0.1467   -0.0089    0.2772    0.0413    0.1847    0.1507
          11    0.2495   -0.1143   -0.1584    0.3084    0.1482    0.2503    0.0800   -0.1849
          12    0.1633    0.2060   -0.1188    0.2045   -0.0745   -0.0737   -0.2428    0.2157
          13   -0.1340    0.0800   -0.1618   -0.1970   -0.0477    0.1269   -0.2974   -0.1367
          14    0.1947    0.0551    0.2345   -0.1356    0.0684   -0.1846   -0.2046    0.1991
          15    0.2627    0.0001    0.2095   -0.0004    0.3142    0.2724   -0.0006   -0.1889
          16   -0.2771   -0.0514    0.2007    0.2854   -0.2372   -0.2483    0.1400    0.1184
          17   -0.0247    0.1845    0.0806   -0.1181   -0.2059    0.0514    0.1436   -0.2072
          18    0.1632   -0.2058   -0.1180   -0.2040   -0.0755   -0.0739    0.2432    0.2157
          19   -0.0170    0.2463    0.0851   -0.0072    0.0296    0.0660    0.0292   -0.0830
          20    0.0656    0.1456    0.0222   -0.0070   -0.0716   -0.1751   -0.0179   -0.1629
          21    0.0104    0.0106   -0.0391    0.0379   -0.0376   -0.1376    0.0066   -0.0970
          22   -0.0724   -0.1916   -0.1162   -0.0479    0.2597   -0.0882   -0.1578   -0.0035
          23   -0.0477    0.0172   -0.0271    0.0665   -0.0485    0.0147    0.0653    0.0512
          24   -0.1442   -0.1530   -0.1427    0.1215   -0.0131    0.1071    0.1149    0.1793
          25    0.1447   -0.0604   -0.1733   -0.2870   -0.0831   -0.0694    0.1852   -0.0490
          26   -0.2109   -0.0416    0.2522   -0.1976    0.1208    0.1008    0.1274    0.0714
          27    0.0958   -0.0001   -0.1403   -0.0005   -0.0536   -0.1069    0.0004   -0.0530
          28   -0.0775    0.1696    0.1078    0.0309    0.0303    0.1297   -0.1500    0.0982
          29    0.1122    0.1167   -0.1561    0.0213   -0.0439   -0.1883   -0.1032   -0.1424
          30    0.0892    0.0003   -0.1281    0.0001   -0.0603   -0.1035   -0.0002   -0.0605
          31   -0.0553    0.2240   -0.0511   -0.0090    0.0565    0.1403   -0.0062    0.1820
          32    0.0390    0.1782   -0.0715   -0.0042   -0.0531   -0.1240    0.0336    0.0196
          33    0.0101   -0.0097   -0.0394   -0.0380   -0.0376   -0.1375   -0.0066   -0.0965
          34    0.0708   -0.0527    0.0671    0.0454   -0.0473    0.0175    0.0050   -0.0470
          35    0.0505   -0.1854    0.0992   -0.0682   -0.2599    0.0872   -0.1705    0.0212
          36   -0.1442    0.1526   -0.1424   -0.1215   -0.0137    0.1071   -0.1151    0.1792
          37   -0.0098    0.0293   -0.0089   -0.0655    0.1510    0.1101   -0.1336   -0.0770
          38    0.1675    0.2192   -0.1835    0.0921    0.1099   -0.0465    0.0301    0.1583
          39    0.0124   -0.1071    0.0294    0.0935   -0.1873   -0.0721    0.1537    0.0614
          40   -0.0167   -0.2283    0.0886   -0.0297    0.0037   -0.0306    0.0060   -0.0827
          41   -0.0165   -0.1718    0.0171    0.0257   -0.0339    0.1236    0.0159   -0.1634
          42   -0.0644    0.0183   -0.0335    0.0021   -0.0791    0.1943   -0.0305   -0.0963
          43    0.0431   -0.1696    0.0621    0.0309    0.0311   -0.0459   -0.1500    0.0248
          44   -0.0620   -0.1168   -0.0896    0.0213   -0.0451    0.0662   -0.1032   -0.0355
          45   -0.1444   -0.0003   -0.2013    0.0001   -0.0589    0.2376   -0.0003   -0.1780
          46    0.0681    0.0603    0.0957   -0.2871    0.0382   -0.0668    0.1851    0.0346
          47   -0.0992    0.0415   -0.1398   -0.1976   -0.0559    0.0975    0.1275   -0.0505
          48    0.2453    0.0001    0.2909   -0.0005    0.1407   -0.1112    0.0003    0.0810
          49   -0.1530    0.2150    0.1746    0.0629   -0.1560    0.0044   -0.0192   -0.1205
          50    0.0692   -0.0511   -0.0573   -0.0939   -0.1015   -0.1191   -0.1352    0.1283
          51    0.0125    0.1075    0.0298   -0.0935   -0.1879   -0.0721   -0.1540    0.0614
          52    0.0216   -0.2419   -0.0475    0.0134    0.0306   -0.1050    0.0169    0.1824
          53    0.0101   -0.1519   -0.0767   -0.0369   -0.0154    0.0725   -0.0001    0.0190
          54   -0.0641   -0.0191   -0.0337   -0.0021   -0.0791    0.1943    0.0304   -0.0958


   Root No.      17        18        19        20        21        22        23        24

                 4 A2      4 B1      6 A1      5 A2      6 B2      6 A2      5 B1      7 A1  

                1157.3    1164.7    1174.5    1182.6    1211.1    1211.1    1244.2    1246.7
  
           1   -0.2490   -0.0271    0.2255    0.0294   -0.0821   -0.1663    0.1637    0.1386
           2   -0.1247   -0.0754   -0.1707    0.0403   -0.0471    0.0742   -0.0596   -0.1393
           3    0.0502   -0.0878   -0.2839    0.0422    0.0047   -0.1447   -0.2126   -0.0109
           4    0.3037    0.0353   -0.0948    0.0138    0.1001    0.1964   -0.1560   -0.1395
           5    0.2091    0.0243    0.1372    0.0095   -0.1461    0.1351   -0.1074    0.2029
           6    0.0006    0.0000    0.1430    0.0000    0.1303    0.0005   -0.0003   -0.0887
           7   -0.2053   -0.0804    0.0797    0.0483    0.0733    0.0097    0.0023    0.0807
           8   -0.1880    0.0015   -0.2712    0.0132    0.0600   -0.1820    0.1738   -0.1792
           9   -0.0510    0.0876   -0.2842   -0.0421    0.0049    0.1444    0.2129   -0.0111
          10    0.2533   -0.0065   -0.2188   -0.0161   -0.0800   -0.0119    0.1954   -0.0247
          11    0.1183   -0.1052    0.1610   -0.0599   -0.0504    0.1851   -0.1057   -0.0266
          12   -0.0433   -0.0554    0.2944   -0.0207    0.0083   -0.1407   -0.1618    0.1934
          13   -0.3035    0.0357    0.0714   -0.0138   -0.0830   -0.1963   -0.1561   -0.0634
          14   -0.2089    0.0245   -0.1032   -0.0095    0.1212   -0.1350   -0.1074    0.0928
          15   -0.0006    0.0001   -0.1802   -0.0000   -0.1636   -0.0005   -0.0003   -0.2365
          16    0.2008   -0.1007   -0.0730   -0.0617    0.0753    0.1684   -0.0294    0.0331
          17    0.1943    0.0314    0.2614    0.0063    0.0570   -0.0774    0.2200    0.0133
          18    0.0441    0.0553    0.2948    0.0206    0.0082    0.1410    0.1621    0.1936
          19   -0.1312    0.2586    0.0141    0.1676   -0.2938    0.1105   -0.1713    0.2374
          20    0.1479   -0.1096    0.0053   -0.0413    0.1110   -0.0994    0.0485   -0.0403
          21    0.1157   -0.1537   -0.0264   -0.0671    0.1614   -0.1321    0.0530   -0.0824
          22   -0.0261   -0.1922    0.1918   -0.1910    0.2368   -0.1750    0.1460   -0.2917
          23   -0.0289    0.0603   -0.0801    0.0947   -0.1156    0.0889   -0.0505    0.0956
          24   -0.0732    0.0978   -0.0841    0.1485   -0.1373    0.1483   -0.0578    0.1253
          25    0.2362   -0.1112   -0.0553    0.3488   -0.0076   -0.1404   -0.2526    0.0002
          26    0.1626   -0.0766    0.0804    0.2401    0.0113   -0.0966   -0.1739   -0.0004
          27    0.0004   -0.0002   -0.0442    0.0007   -0.0070   -0.0003   -0.0005    0.0131
          28    0.0456    0.3151    0.0599   -0.2710    0.0498    0.2674    0.2546   -0.0380
          29    0.0314    0.2169   -0.0869   -0.1866   -0.0728    0.1840    0.1753    0.0552
          30    0.0001    0.0006   -0.0743   -0.0005   -0.0031    0.0005    0.0005   -0.0092
          31    0.0916   -0.0105   -0.0099    0.0211    0.0009   -0.0537   -0.0157   -0.0469
          32   -0.1751    0.2804   -0.0112    0.1712    0.3136    0.1389   -0.1772   -0.2360
          33   -0.1158    0.1542   -0.0265    0.0675    0.1618    0.1325   -0.0534   -0.0830
          34   -0.0365   -0.0120    0.0066    0.0207    0.0238    0.0210    0.0048    0.0145
          35   -0.0142   -0.2009   -0.2077   -0.2119   -0.2620   -0.1954    0.1543    0.3063
          36    0.0731   -0.0982   -0.0845   -0.1488   -0.1374   -0.1488    0.0581    0.1258
          37   -0.0096   -0.1487   -0.1308    0.1590    0.1715    0.1517    0.1014    0.2108
          38    0.0810   -0.0030   -0.0087   -0.0481   -0.0207   -0.0546    0.0145    0.0223
          39    0.0159    0.1671    0.1819   -0.1998   -0.2414   -0.1865   -0.1293   -0.2549
          40    0.0743    0.1983   -0.0267   -0.1254   -0.2245   -0.0956   -0.1161   -0.1797
          41   -0.0653   -0.0216    0.0131   -0.0202    0.0101    0.0771   -0.0319   -0.0437
          42   -0.2067   -0.2506    0.0059    0.1348    0.2721    0.1570    0.1414    0.1747
          43   -0.0454    0.3152   -0.0364    0.2711   -0.0028   -0.2673    0.2546   -0.0088
          44   -0.0312    0.2170    0.0526    0.1866    0.0047   -0.1840    0.1753    0.0130
          45   -0.0001    0.0006    0.1123    0.0005   -0.0880   -0.0006    0.0005   -0.0657
          46   -0.2362   -0.1110   -0.0304   -0.3488    0.0046    0.1404   -0.2526    0.0074
          47   -0.1626   -0.0764    0.0444   -0.2401   -0.0070    0.0966   -0.1739   -0.0107
          48   -0.0004   -0.0002   -0.0930   -0.0006    0.0128    0.0003   -0.0005   -0.0009
          49    0.0723   -0.0554    0.0544    0.0114   -0.0413    0.0026    0.0494   -0.0954
          50   -0.0378   -0.1376    0.1188    0.1653   -0.1674    0.1606    0.0893   -0.1884
          51   -0.0158   -0.1675    0.1823    0.2001   -0.2421    0.1864    0.1296   -0.2554
          52   -0.0350    0.0500   -0.0027   -0.0633    0.0700    0.0384   -0.0709    0.1045
          53    0.0924    0.1925    0.0297   -0.1097    0.2131   -0.1163   -0.0968    0.1520
          54    0.2068    0.2510    0.0060   -0.1352    0.2728   -0.1567   -0.1418    0.1753


   Root No.      25        26        27        28        29        30        31        32

                 7 A2      6 B1      7 B2      8 A1      8 A2      7 B1      9 A1      8 B2  

                1311.6    1311.9    1323.5    1325.4    1335.2    1337.0    1341.9    1342.1
  
           1    0.1305    0.0561    0.0842    0.0689    0.0309   -0.0908    0.0353   -0.0651
           2    0.0765   -0.0714   -0.0361    0.0505   -0.0470   -0.0463    0.0637   -0.0505
           3   -0.0105   -0.0360   -0.0900    0.0688   -0.1228   -0.0693    0.0783   -0.0715
           4   -0.1662   -0.0398   -0.0023   -0.0554   -0.1469    0.0503    0.0972    0.0496
           5   -0.1144   -0.0275    0.0030    0.0805   -0.1011    0.0347   -0.1410   -0.0720
           6   -0.0003    0.0001    0.1344    0.0027   -0.0003    0.0001   -0.0225    0.0116
           7    0.1181   -0.0466    0.0039   -0.0719   -0.0332   -0.0759   -0.0724    0.0706
           8    0.0946    0.0776   -0.0913   -0.0465    0.0454   -0.0684   -0.0104    0.0430
           9    0.0109    0.0362   -0.0901    0.0686    0.1228    0.0690    0.0780   -0.0712
          10   -0.1298    0.0199   -0.0868    0.0318   -0.0651   -0.0436    0.0114    0.0278
          11   -0.0776   -0.0191    0.0398    0.1045    0.0968   -0.1151    0.0982    0.1051
          12    0.0118   -0.0936    0.0859    0.0094    0.0679    0.0064    0.0399    0.0119
          13    0.1663   -0.0397    0.0758    0.0038    0.1469    0.0503    0.0034    0.0113
          14    0.1145   -0.0271   -0.1101   -0.0058    0.1011    0.0346   -0.0045   -0.0167
          15    0.0003   -0.0002   -0.0167    0.0975    0.0003    0.0001   -0.1728    0.0855
          16   -0.1188   -0.0110   -0.0064   -0.1090    0.0674   -0.1231   -0.0959   -0.1081
          17   -0.0936    0.0254    0.0951    0.0077   -0.0952    0.0003    0.0243    0.0114
          18   -0.0122    0.0934    0.0860    0.0090   -0.0679   -0.0067    0.0398    0.0115
          19   -0.2223    0.2813   -0.3375   -0.1533    0.0349    0.0228   -0.0611    0.0731
          20   -0.0950    0.0027    0.0845   -0.2130    0.2869    0.3223   -0.2050    0.2845
          21    0.0425   -0.0957    0.1538   -0.0116    0.0734    0.1021   -0.0368    0.0720
          22   -0.1563    0.2242   -0.2314   -0.1504    0.0976    0.0285   -0.0546    0.0905
          23    0.0719   -0.0913    0.0929    0.0504   -0.0219    0.0068    0.0193   -0.0204
          24   -0.0578    0.0056    0.0897   -0.2180    0.3116    0.3420   -0.2043    0.2937
          25    0.2490   -0.2242    0.0067    0.1362    0.0831    0.0066   -0.1502   -0.0961
          26    0.1714   -0.1545   -0.0098   -0.1983    0.0572    0.0045    0.2189    0.1401
          27    0.0005   -0.0003    0.0343    0.1952    0.0002    0.0000   -0.2303   -0.1370
          28    0.3039   -0.2733    0.0688    0.1319    0.1417    0.0171   -0.1619   -0.0957
[...]
 EFF. MASS  12.0714

 VIBRATION    7    1B1      ATOM PAIR        ENERGY CONTRIBUTION    RADIAL
 FREQ.       806.48        C  4 --  H 14           +9.9% ( 51.4%)    15.1%
 T-DIPOLE    0.3400        C  1 --  H  7           +9.9% ( 51.4%)    14.8%
 TRAVEL      0.1593        C  6 --  H 18           +9.9% ( 51.4%)    15.3%
 RED. MASS   0.1784        C  3 --  H 11           +9.9% ( 51.4%)    15.0%
 EFF. MASS   3.2759

 VIBRATION    8    3A1      ATOM PAIR        ENERGY CONTRIBUTION    RADIAL
 FREQ.       811.10        C  4 --  H 13           +7.3% ( 45.0%)    10.0%
 T-DIPOLE    0.6386        C  1 --  H  8           +7.3% ( 45.0%)    10.2%
 TRAVEL      0.1459        C  6 --  H 17           +7.3% ( 45.0%)     9.7%
 RED. MASS   0.1585        C  3 --  H 12           +7.3% ( 45.0%)    10.0%
 EFF. MASS   3.8529

 VIBRATION    9    4A1      ATOM PAIR        ENERGY CONTRIBUTION    RADIAL
 FREQ.       897.13        C  1 --  C  6           +7.8% ( 52.0%)   100.0%
 T-DIPOLE    0.0497        C  3 --  C  4           +7.8% ( 52.0%)   100.0%
 TRAVEL      0.0878        C  2 --  C  3           +7.5% ( 51.0%)    79.7%
 RED. MASS   0.9098        C  5 --  C  6           +7.5% ( 51.0%)    79.4%
 EFF. MASS   9.7923

 VIBRATION   10    3A2      ATOM PAIR        ENERGY CONTRIBUTION    RADIAL
 FREQ.       956.69        C  6 --  H 18           +7.7% ( 43.1%)    22.1%
 T-DIPOLE    0.0000        C  4 --  H 14           +7.7% ( 43.1%)    21.9%
 TRAVEL      0.1181        C  3 --  H 11           +7.7% ( 43.1%)    21.7%
 RED. MASS   0.3475        C  1 --  H  7           +7.7% ( 43.1%)    21.5%
 EFF. MASS   5.0034

 VIBRATION   11    3B2      ATOM PAIR        ENERGY CONTRIBUTION    RADIAL
 FREQ.       957.66        C  5 --  H 16           +9.0% ( 49.2%)    36.2%
 T-DIPOLE    0.3950        C  2 --  H  9           +9.0% ( 49.2%)    36.6%
 TRAVEL      0.0995        C  5 --  H 15           +9.0% ( 49.1%)     4.7%
 RED. MASS   0.5895        C  2 --  H 10           +9.0% ( 49.1%)     4.5%
 EFF. MASS   7.0700

 VIBRATION   12    2B1      ATOM PAIR        ENERGY CONTRIBUTION    RADIAL
 FREQ.       970.95        C  3 --  C  4          +11.2% ( 59.2%)   100.0%
 T-DIPOLE    0.4579        C  1 --  C  6          +11.2% ( 59.2%)   100.0%
 TRAVEL      0.0847        C  4 --  C  5           +6.9% ( 46.4%)    20.0%
 RED. MASS   1.0115        C  5 --  C  6           +6.9% ( 46.4%)    20.2%
 EFF. MASS   9.6618

 VIBRATION   13    4B2      ATOM PAIR        ENERGY CONTRIBUTION    RADIAL
 FREQ.       973.38        C  5 --  C  6           +8.2% ( 50.2%)    83.8%
 T-DIPOLE    0.5889        C  4 --  C  5           +8.2% ( 50.2%)    84.1%
 TRAVEL      0.0871        C  1 --  C  2           +8.2% ( 50.2%)    84.2%
 RED. MASS   0.8126        C  2 --  C  3           +8.2% ( 50.2%)    83.9%
 EFF. MASS   9.1703

 VIBRATION   14    5A1      ATOM PAIR        ENERGY CONTRIBUTION    RADIAL
 FREQ.      1010.96        C  4 --  C  5           +8.3% ( 46.4%)    41.7%
 T-DIPOLE    0.0401        C  5 --  C  6           +8.3% ( 46.4%)    41.8%
 TRAVEL      0.0946        C  1 --  C  2           +8.3% ( 46.4%)    41.5%
 RED. MASS   0.6278        C  2 --  C  3           +8.3% ( 46.4%)    41.6%
 EFF. MASS   7.4135

 VIBRATION   15    3B1      ATOM PAIR        ENERGY CONTRIBUTION    RADIAL
 FREQ.      1126.23        C  4 --  C  5           +8.2% ( 47.7%)    95.0%
 T-DIPOLE    0.1650        C  1 --  C  2           +8.2% ( 47.7%)    95.1%
 TRAVEL      0.0835        C  5 --  C  6           +8.2% ( 47.7%)    95.0%
 RED. MASS   0.8974        C  2 --  C  3           +8.2% ( 47.7%)    95.1%
 EFF. MASS   8.5448

 VIBRATION   16    5B2      ATOM PAIR        ENERGY CONTRIBUTION    RADIAL
 FREQ.      1149.27        C  3 --  C  4           +7.7% ( 40.9%)     0.0%
 T-DIPOLE    0.1251        C  1 --  C  6           +7.7% ( 40.9%)     0.0%
 TRAVEL      0.0880        C  2 --  C  3           +7.7% ( 40.8%)    14.4%
 RED. MASS   0.7414        C  5 --  C  6           +7.7% ( 40.8%)    14.6%
 EFF. MASS   7.4975

 VIBRATION   17    4A2      ATOM PAIR        ENERGY CONTRIBUTION    RADIAL
 FREQ.      1157.31        C  1 --  C  2           +9.3% ( 45.3%)    72.8%
 T-DIPOLE    0.0000        C  2 --  C  3           +9.3% ( 45.3%)    73.0%
 TRAVEL      0.0869        C  4 --  C  5           +9.3% ( 45.3%)    72.8%
 RED. MASS   0.7760        C  5 --  C  6           +9.3% ( 45.3%)    72.9%
 EFF. MASS   7.7374

 VIBRATION   18    4B1      ATOM PAIR        ENERGY CONTRIBUTION    RADIAL
 FREQ.      1164.69        C  5 --  H 15          +12.8% ( 38.9%)     0.0%
 T-DIPOLE    0.2402        C  2 --  H 10          +12.8% ( 38.8%)     0.0%
 TRAVEL      0.1896        C  6 --  H 18           +9.9% ( 34.2%)     2.6%
 RED. MASS   0.1061        C  4 --  H 14           +9.9% ( 34.2%)     2.6%
 EFF. MASS   1.6311

 VIBRATION   19    6A1      ATOM PAIR        ENERGY CONTRIBUTION    RADIAL
 FREQ.      1174.46        C  3 --  C  4          +12.4% ( 55.0%)   100.0%
 T-DIPOLE    0.1199        C  1 --  C  6          +12.4% ( 55.0%)   100.0%
 TRAVEL      0.0788        C  2 --  C  3           +7.0% ( 41.3%)    26.7%
 RED. MASS   1.3057        C  1 --  C  2           +7.0% ( 41.3%)    27.0%
 EFF. MASS   9.2200

 VIBRATION   20    5A2      ATOM PAIR        ENERGY CONTRIBUTION    RADIAL
 FREQ.      1182.57        C  2 --  H  9          +17.2% ( 42.7%)     0.0%
 T-DIPOLE    0.0000        C  5 --  H 16          +17.2% ( 42.7%)     0.0%
 TRAVEL      0.2216        C  5 --  H 15          +10.8% ( 33.8%)     0.0%
 RED. MASS   0.1124        C  2 --  H 10          +10.8% ( 33.8%)     0.0%
 EFF. MASS   1.1537

 VIBRATION   21    6B2      ATOM PAIR        ENERGY CONTRIBUTION    RADIAL
 FREQ.      1211.06        C  6 --  H 18          +10.5% ( 35.5%)     0.2%
 T-DIPOLE    0.0133        C  1 --  H  7          +10.5% ( 35.5%)     0.2%
 TRAVEL      0.1564        C  3 --  H 11          +10.5% ( 35.5%)     0.2%
 RED. MASS   0.1541        C  4 --  H 14          +10.5% ( 35.5%)     0.2%
 EFF. MASS   2.2883

 VIBRATION   22    6A2      ATOM PAIR        ENERGY CONTRIBUTION    RADIAL
 FREQ.      1211.15        C  2 --  H 10           +7.3% ( 33.7%)     0.0%
 T-DIPOLE    0.0000        C  5 --  H 15           +7.3% ( 33.7%)     0.0%
 TRAVEL      0.1120        C  4 --  H 13           +5.9% ( 30.2%)     0.1%
 RED. MASS   0.2635        C  3 --  H 12           +5.9% ( 30.1%)     0.1%
 EFF. MASS   4.4102

 VIBRATION   23    5B1      ATOM PAIR        ENERGY CONTRIBUTION    RADIAL
 FREQ.      1244.25        C  5 --  H 15           +8.2% ( 36.4%)     0.0%
 T-DIPOLE    0.0675        C  2 --  H 10           +8.2% ( 36.4%)     0.0%
 TRAVEL      0.1064        C  1 --  C  6           +7.5% ( 34.8%)   100.0%
 RED. MASS   0.3492        C  3 --  C  4           +7.5% ( 34.8%)   100.0%
 EFF. MASS   4.7993

 VIBRATION   24    7A1      ATOM PAIR        ENERGY CONTRIBUTION    RADIAL
 FREQ.      1246.68        C  1 --  H  8          +10.1% ( 38.3%)     1.7%
 T-DIPOLE    0.1074        C  3 --  H 12          +10.1% ( 38.3%)     1.8%
 TRAVEL      0.1171        C  4 --  H 13          +10.1% ( 38.3%)     1.7%
 RED. MASS   0.2505        C  6 --  H 17          +10.1% ( 38.3%)     1.8%
 EFF. MASS   3.9530

 VIBRATION   25    7A2      ATOM PAIR        ENERGY CONTRIBUTION    RADIAL
 FREQ.      1311.63        C  2 --  H 10          +12.9% ( 40.2%)     0.0%
 T-DIPOLE    0.0000        C  5 --  H 15          +12.9% ( 40.1%)     0.0%
 TRAVEL      0.1403        C  2 --  H  9           +9.6% ( 34.6%)     0.0%
 RED. MASS   0.1383        C  5 --  H 16           +9.6% ( 34.6%)     0.0%
 EFF. MASS   2.7339

 VIBRATION   26    6B1      ATOM PAIR        ENERGY CONTRIBUTION    RADIAL
 FREQ.      1311.87        C  5 --  H 15          +10.7% ( 29.9%)     0.0%
 T-DIPOLE    0.1918        C  2 --  H 10          +10.7% ( 29.8%)     0.0%
 TRAVEL      0.1918        C  4 --  H 14           +8.8% ( 27.1%)     0.0%
 RED. MASS   0.0855        C  6 --  H 18           +8.8% ( 27.1%)     0.0%
 EFF. MASS   1.4103

 VIBRATION   27    7B2      ATOM PAIR        ENERGY CONTRIBUTION    RADIAL
 FREQ.      1323.52        C  3 --  H 11          +13.4% ( 38.2%)     0.5%
 T-DIPOLE    0.5411        C  1 --  H  7          +13.4% ( 38.2%)     0.4%
 TRAVEL      0.1786        C  4 --  H 14          +13.4% ( 38.2%)     0.5%
 RED. MASS   0.1259        C  6 --  H 18          +13.4% ( 38.2%)     0.5%
 EFF. MASS   1.9601

 VIBRATION   28    8A1      ATOM PAIR        ENERGY CONTRIBUTION    RADIAL
 FREQ.      1325.37        C  2 --  H  9           +8.9% ( 27.1%)     1.6%
 T-DIPOLE    0.1589        C  5 --  H 16           +8.9% ( 27.1%)     1.8%
 TRAVEL      0.1612        C  2 --  H 10           +8.4% ( 26.4%)     1.9%
 RED. MASS   0.0835        C  5 --  H 15           +8.4% ( 26.4%)     1.7%
 EFF. MASS   1.5848

 VIBRATION   29    8A2      ATOM PAIR        ENERGY CONTRIBUTION    RADIAL
 FREQ.      1335.17        C  1 --  H  8           +9.4% ( 29.8%)     0.1%
 T-DIPOLE    0.0000        C  3 --  H 12           +9.4% ( 29.8%)     0.1%
 TRAVEL      0.1509        C  4 --  H 13           +9.4% ( 29.8%)     0.1%
 RED. MASS   0.1203        C  6 --  H 17           +9.4% ( 29.8%)     0.2%
 EFF. MASS   2.1011

 VIBRATION   30    7B1      ATOM PAIR        ENERGY CONTRIBUTION    RADIAL
 FREQ.      1336.98        C  4 --  H 13          +11.4% ( 30.6%)     2.1%
 T-DIPOLE    0.5037        C  1 --  H  8          +11.4% ( 30.6%)     2.0%
 TRAVEL      0.1791        C  6 --  H 17          +11.4% ( 30.6%)     2.2%
 RED. MASS   0.1206        C  3 --  H 12          +11.4% ( 30.6%)     2.0%
 EFF. MASS   1.5978        C  4 --  H 14          +10.9% ( 29.9%)     2.1%
                           C  1 --  H  7          +10.9% ( 29.9%)     2.2%
                           C  6 --  H 18          +10.9% ( 29.9%)     2.0%
                           C  3 --  H 11          +10.9% ( 29.9%)     2.1%

 VIBRATION   31    9A1      ATOM PAIR        ENERGY CONTRIBUTION    RADIAL
 FREQ.      1341.93        C  5 --  H 15          +13.9% ( 34.8%)     1.4%
 T-DIPOLE    0.0646        C  2 --  H 10          +13.9% ( 34.7%)     1.5%
 TRAVEL      0.1780        C  5 --  H 16          +11.8% ( 32.0%)     4.2%
 RED. MASS   0.1150        C  2 --  H  9          +11.8% ( 32.0%)     4.0%
 EFF. MASS   1.8872

 VIBRATION   32    8B2      ATOM PAIR        ENERGY CONTRIBUTION    RADIAL
 FREQ.      1342.09        C  6 --  H 17           +9.2% ( 27.1%)     2.1%
 T-DIPOLE    0.0370        C  4 --  H 13           +9.2% ( 27.1%)     2.0%
 TRAVEL      0.1634        C  3 --  H 12           +9.2% ( 27.1%)     1.9%
 RED. MASS   0.0877        C  1 --  H  8           +9.2% ( 27.1%)     1.9%
 EFF. MASS   1.5748

 VIBRATION   33   10A1      ATOM PAIR        ENERGY CONTRIBUTION    RADIAL
 FREQ.      1355.75        C  5 --  H 16          +17.1% ( 36.6%)     1.0%
 T-DIPOLE    0.5113        C  2 --  H  9          +17.1% ( 36.6%)     0.9%
 TRAVEL      0.1793        C  2 --  H 10          +17.0% ( 36.5%)     1.8%
 RED. MASS   0.1495        C  5 --  H 15          +17.0% ( 36.5%)     1.7%
 EFF. MASS   1.5554

 VIBRATION   34    8B1      ATOM PAIR        ENERGY CONTRIBUTION    RADIAL
 FREQ.      1386.05        C  2 --  H  9          +14.4% ( 42.8%)     0.0%
 T-DIPOLE    0.6755        C  5 --  H 16          +14.4% ( 42.8%)     0.0%
 TRAVEL      0.1209        C  5 --  H 15          +10.6% ( 36.6%)     0.0%
 RED. MASS   0.3394        C  2 --  H 10          +10.6% ( 36.6%)     0.0%
 EFF. MASS   3.2955

 VIBRATION   35    9B2      ATOM PAIR        ENERGY CONTRIBUTION    RADIAL
 FREQ.      1398.63        C  1 --  H  7           +9.4% ( 34.8%)     0.2%
 T-DIPOLE    0.6360        C  4 --  H 14           +9.4% ( 34.8%)     0.2%
 TRAVEL      0.1184        C  3 --  H 11           +9.4% ( 34.8%)     0.2%
 RED. MASS   0.3081        C  6 --  H 18           +9.4% ( 34.8%)     0.2%
 EFF. MASS   3.4389

 VIBRATION   36    9A2      ATOM PAIR        ENERGY CONTRIBUTION    RADIAL
 FREQ.      1407.88        C  6 --  H 17           +7.7% ( 30.3%)     0.1%
 T-DIPOLE    0.0000        C  4 --  H 13           +7.7% ( 30.3%)     0.1%
 TRAVEL      0.1317        C  1 --  H  8           +7.7% ( 30.3%)     0.1%
 RED. MASS   0.1896        C  3 --  H 12           +7.7% ( 30.3%)     0.1%
 EFF. MASS   2.7643

 VIBRATION   37   10B2      ATOM PAIR        ENERGY CONTRIBUTION    RADIAL
 FREQ.      2648.33        C  6 --  H 18          +11.2% ( 34.9%)    98.8%
 T-DIPOLE    0.1600        C  3 --  H 11          +11.2% ( 34.9%)    98.7%
 TRAVEL      0.1349        C  1 --  H  7          +11.2% ( 34.9%)    98.6%
 RED. MASS   0.0909        C  4 --  H 14          +11.2% ( 34.9%)    98.7%
 EFF. MASS   1.3998

 VIBRATION   38   10A2      ATOM PAIR        ENERGY CONTRIBUTION    RADIAL
 FREQ.      2652.86        C  4 --  H 14          +13.3% ( 37.9%)    98.7%
 T-DIPOLE    0.0000        C  6 --  H 18          +13.3% ( 37.9%)    98.7%
 TRAVEL      0.1340        C  3 --  H 11          +13.3% ( 37.9%)    98.6%
 RED. MASS   0.1246        C  1 --  H  7          +13.3% ( 37.9%)    98.5%
 EFF. MASS   1.4154        C  3 --  H 12          +11.2% ( 34.7%)    97.5%
                           C  6 --  H 17          +11.2% ( 34.7%)    97.4%
                           C  4 --  H 13          +11.2% ( 34.7%)    97.5%
                           C  1 --  H  8          +11.2% ( 34.7%)    97.6%

 VIBRATION   39   11A1      ATOM PAIR        ENERGY CONTRIBUTION    RADIAL
 FREQ.      2663.94        C  5 --  H 15          +19.2% ( 45.3%)    98.5%
 T-DIPOLE    0.0390        C  2 --  H 10          +19.2% ( 45.3%)    98.4%
 TRAVEL      0.1334        C  2 --  H  9          +15.1% ( 40.2%)    98.0%
 RED. MASS   0.1347        C  5 --  H 16          +15.1% ( 40.2%)    97.9%
 EFF. MASS   1.4204

 VIBRATION   40   11B2      ATOM PAIR        ENERGY CONTRIBUTION    RADIAL
 FREQ.      2674.35        C  5 --  H 16          +21.3% ( 47.6%)    98.2%
 T-DIPOLE    0.3797        C  2 --  H  9          +21.3% ( 47.6%)    98.3%
 TRAVEL      0.1320        C  5 --  H 15          +17.5% ( 43.1%)    98.0%
 RED. MASS   0.1636        C  2 --  H 10          +17.5% ( 43.1%)    97.8%
 EFF. MASS   1.4468

 VIBRATION   41    9B1      ATOM PAIR        ENERGY CONTRIBUTION    RADIAL
 FREQ.      2679.45        C  4 --  H 14          +13.7% ( 38.0%)    98.5%
 T-DIPOLE    0.3900        C  6 --  H 18          +13.7% ( 38.0%)    98.6%
 TRAVEL      0.1312        C  1 --  H  7          +13.7% ( 38.0%)    98.4%
 RED. MASS   0.1277        C  3 --  H 11          +13.7% ( 38.0%)    98.5%
 EFF. MASS   1.4614        C  1 --  H  8          +10.9% ( 33.9%)    97.3%
                           C  3 --  H 12          +10.9% ( 33.9%)    97.2%
                           C  6 --  H 17          +10.9% ( 33.9%)    97.1%
                           C  4 --  H 13          +10.9% ( 33.9%)    97.1%

 VIBRATION   42   12A1      ATOM PAIR        ENERGY CONTRIBUTION    RADIAL
 FREQ.      2687.81        C  5 --  H 16          +10.7% ( 33.5%)    98.8%
 T-DIPOLE    0.8602        C  2 --  H  9          +10.7% ( 33.5%)    98.9%
 TRAVEL      0.1305        C  4 --  H 13           +9.2% ( 31.1%)    97.8%
 RED. MASS   0.0890        C  6 --  H 17           +9.2% ( 31.1%)    97.7%
 EFF. MASS   1.4750

 VIBRATION   43   12B2      ATOM PAIR        ENERGY CONTRIBUTION    RADIAL
 FREQ.      2740.95        C  6 --  H 17          +11.6% ( 33.6%)    97.4%
 T-DIPOLE    0.5865        C  3 --  H 12          +11.6% ( 33.6%)    97.3%
 TRAVEL      0.1420        C  1 --  H  8          +11.6% ( 33.6%)    97.2%
 RED. MASS   0.0933        C  4 --  H 13          +11.6% ( 33.5%)    97.3%
 EFF. MASS   1.2307

 VIBRATION   44   11A2      ATOM PAIR        ENERGY CONTRIBUTION    RADIAL
 FREQ.      2741.91        C  4 --  H 13          +13.7% ( 36.4%)    97.1%
 T-DIPOLE    0.0019        C  6 --  H 17          +13.7% ( 36.4%)    97.2%
 TRAVEL      0.1399        C  3 --  H 12          +13.4% ( 36.0%)    97.0%
 RED. MASS   0.1215        C  1 --  H  8          +13.4% ( 36.0%)    96.9%
 EFF. MASS   1.2572        C  4 --  H 14          +11.3% ( 33.1%)    95.5%
                           C  6 --  H 18          +11.3% ( 33.1%)    95.4%
                           C  3 --  H 11          +11.1% ( 32.8%)    95.6%
                           C  1 --  H  7          +11.1% ( 32.7%)    95.6%

 VIBRATION   45   13A1      ATOM PAIR        ENERGY CONTRIBUTION    RADIAL
 FREQ.      2742.29        C  1 --  H  8          +14.1% ( 36.9%)    97.7%
 T-DIPOLE    0.0267        C  3 --  H 12          +14.0% ( 36.8%)    97.7%
 TRAVEL      0.1430        C  4 --  H 13          +13.8% ( 36.5%)    97.8%
 RED. MASS   0.1222        C  6 --  H 17          +13.7% ( 36.4%)    97.8%
 EFF. MASS   1.2080        C  1 --  H  7          +11.0% ( 32.6%)    96.3%
                           C  3 --  H 11          +11.0% ( 32.5%)    96.2%
                           C  4 --  H 14          +10.8% ( 32.2%)    96.1%
                           C  6 --  H 18          +10.7% ( 32.2%)    96.0%

 VIBRATION   46   10B1      ATOM PAIR        ENERGY CONTRIBUTION    RADIAL
 FREQ.      2742.52        C  4 --  H 13          +11.4% ( 33.3%)    98.4%
 T-DIPOLE    0.5903        C  3 --  H 12          +11.4% ( 33.3%)    98.3%
 TRAVEL      0.1427        C  1 --  H  8          +11.4% ( 33.2%)    98.2%
 RED. MASS   0.0885        C  6 --  H 17          +11.4% ( 33.2%)    98.4%
 EFF. MASS   1.2045

 VIBRATION   47   13B2      ATOM PAIR        ENERGY CONTRIBUTION    RADIAL
 FREQ.      2746.81        C  5 --  H 15          +23.0% ( 47.3%)    96.9%
 T-DIPOLE    0.0833        C  2 --  H 10          +23.0% ( 47.3%)    97.0%
 TRAVEL      0.1383        C  5 --  H 16          +18.4% ( 42.3%)    95.7%
 RED. MASS   0.1751        C  2 --  H  9          +18.4% ( 42.3%)    95.5%
 EFF. MASS   1.2729

 VIBRATION   48   14A1      ATOM PAIR        ENERGY CONTRIBUTION    RADIAL
 FREQ.      2748.47        C  2 --  H 10          +22.1% ( 46.2%)    97.3%
 T-DIPOLE    0.5682        C  5 --  H 15          +22.1% ( 46.2%)    97.2%
 TRAVEL      0.1392        C  2 --  H  9          +16.0% ( 39.4%)    94.8%
 RED. MASS   0.1533        C  5 --  H 16          +16.0% ( 39.3%)    95.1%
 EFF. MASS   1.2638

           FORCE CONSTANT IN CARTESIAN COORDINATES (Millidynes/A)

    ATOM   CHEMICAL       X               Y               Z
   NUMBER   SYMBOL  FORCE CONSTANT  FORCE CONSTANT  FORCE CONSTANT

      1       C        7.032036        6.713243        6.660265
      2       C        6.979819        6.944227        6.671883
      3       C        6.738096        7.007517        6.659932
      4       C        6.756426        6.790131        6.858988
      5       C        6.899735        6.775353        6.920840
      6       C        6.885451        6.660176        6.859918
      7       H        1.221413        1.028304        3.383189
      8       H        1.228457        3.708217        0.726181
      9       H        1.235321        1.646273        2.769190
     10       H        1.238606        1.667030        2.761280
     11       H        0.753152        1.498249        3.381505
     12       H        4.102166        0.833325        0.727365
     13       H        2.604954        1.156225        1.901676
     14       H        1.389019        2.973240        1.270647
     15       H        1.570937        2.367822        1.728157
     16       H        1.368356        1.926807        2.355621
     17       H        1.972780        1.797686        1.892390
     18       H        1.943672        2.417216        1.272018

 **********************
 *                    *
 * JOB ENDED NORMALLY *
 *                    *
 **********************



 TOTAL JOB TIME:             0.23 SECONDS

 == MOPAC DONE ==
