 *******************************************************************************
 ** Site#: 10005        For non-commercial use only     Version 15.312W 64BITS**
 *******************************************************************************
 ** Cite this work as:                                                        **
 **                                                                           **
 ** (a) MOPAC2012, James J. P. Stewart, Stewart Computational Chemistry,      **
 **  Version 15.312W web: HTTP://OpenMOPAC.net         Days remaining: 364    **
 **                                                                           **
 **                                 AND                                       **
 **                                                                           **
 ** (b) Maia, J.D.C., et al., J. Chem. Theory Comput. 2012, 8, 3072-3081.     **
 **                DOI: 10.1021/ct3004645.                                    **
 *******************************************************************************
 **                                                                           **
 **                                MOPAC2012                                  **
 **                                                                           **
 *******************************************************************************

                              PM7 CALCULATION RESULTS


 *******************************************************************************
 *  CALCULATION DONE:                                Mon Nov 09 14:05:29 2015  *
 *  GEO-OK     - OVERRIDE INTERATOMIC DISTANCE AND OTHER SAFETY CHECKS
 *  GEO_DAT    - DATA SET GEOMETRY IS IN FILE "BOAT_2.ARC"
 *  GEO_REF    - REFERENCE GEOMETRY IS IN FILE "BOAT_1.ARC"
 *  NOSWAP     - DO NOT SWAP ATOMS EVEN IF IT WILL IMPROVE OVERLAP IN GEO_REF
 *  PRECISE    - CRITERIA TO BE INCREASED BY 100 TIMES
 *  SADDLE     - TRANSITION STATE TO BE OPTIMIZED
 *  T=         - A TIME OF 172800.0 SECONDS REQUESTED
 *  DUMP=N     - RESTART FILE WRITTEN EVERY  7200.000 SECONDS
 *******************************************************************************
geo-ok geo_ref="Boat_1.arc" geo_dat="Boat_2.arc" saddle    HTML noswap precise
 Transition state for Cyclohexane boat 1 <=> Cyclohexane boat 2

   ATOM                 CHEMICAL                   X               Y               Z
  NUMBER                 SYMBOL               (ANGSTROMS)     (ANGSTROMS)     (ANGSTROMS)
 
     1       C(HETATM    1  C   HET A   1)   -0.03719196  *   0.15121627  *   0.05419175  *
     2       C(HETATM    2  C   HET A   1)    1.48654638  *  -0.01456537  *   0.04798732  *
     3       C(HETATM    3  C   HET A   1)    2.18843818  *   1.34441683  *  -0.11434772  *
     4       C(HETATM    4  C   HET A   1)    1.34825411  *   2.32799424  *  -0.94651575  *
     5       C(HETATM    5  C   HET A   1)    0.49941245  *   1.58447789  *  -1.98380046  *
     6       C(HETATM    6  C   HET A   1)   -0.53997189  *   0.68023523  *  -1.29978536  *
     7       H(HETATM    8  H   HET A   1)   -0.52573710  *  -0.81091872  *   0.28948322  *
     8       H(HETATM    7  H   HET A   1)   -0.32945142  *   0.84729399  *   0.86264644  *
     9       H(HETATM    9  H   HET A   1)    1.78076580  *  -0.69148693  *  -0.77585555  *
    10       H(HETATM   10  H   HET A   1)    1.82197625  *  -0.50469943  *   0.97914235  *
    11       H(HETATM   11  H   HET A   1)    3.17478473  *   1.19482142  *  -0.58952839  *
    12       H(HETATM   12  H   HET A   1)    2.39370538  *   1.78412524  *   0.87843158  *
    13       H(HETATM   14  H   HET A   1)    0.68770471  *   2.91548947  *  -0.28163841  *
    14       H(HETATM   13  H   HET A   1)    2.00731704  *   3.06048803  *  -1.44538126  *
    15       H(HETATM   15  H   HET A   1)   -0.00631651  *   2.30442300  *  -2.65141219  *
    16       H(HETATM   16  H   HET A   1)    1.15789001  *   0.97734961  *  -2.63292389  *
    17       H(HETATM   17  H   HET A   1)   -1.48352336  *   1.23567833  *  -1.15045201  *
    18       H(HETATM   18  H   HET A   1)   -0.78819340  *  -0.16509895  *  -1.96680334  *
 

          By default, a restraining force of 3 kcal/mol/A^2 will be used
 ----------------------------------------

                 After docking

              Atoms that move a lot
                   Atom Label               Movement    Integral

          (HETATM   15  H   HET A   1)        2.06        2.06
          (HETATM   16  H   HET A   1)        2.06        4.12
          (HETATM   10  H   HET A   1)        2.06        6.18
          (HETATM    9  H   HET A   1)        2.06        8.24
          (HETATM   13  H   HET A   1)        2.06       10.29
          (HETATM   14  H   HET A   1)        2.06       12.35
          (HETATM    7  H   HET A   1)        2.06       14.41
          (HETATM    8  H   HET A   1)        2.06       16.47
          (HETATM    5  C   HET A   1)        0.77       17.24
          (HETATM    2  C   HET A   1)        0.77       18.01
          (HETATM    4  C   HET A   1)        0.77       18.78
          (HETATM    1  C   HET A   1)        0.77       19.55
          (HETATM   11  H   HET A   1)        0.52       20.07
          (HETATM   18  H   HET A   1)        0.52       20.59
          (HETATM   12  H   HET A   1)        0.52       21.12
          (HETATM   17  H   HET A   1)        0.52       21.64

   Difference between data-set and GEO_REF:   21.64 = total,  1.2021 = Average,  1.4408 = RMS, in Angstroms

    The rotated-translated reference geometry will be written to: 'M:\Individual JSmol paths\Cyclohexane Boat-Boat\Boat_1.new'

     ===================== shared-memory parallel CPU Section ======================
     **                                                                           **
     **  MOPAC calculations will run in shared-memory parallel CPUs               **
     **                                                                           **
     **  Number of Threads =  4                                                   **
     **                                                                           **
     **                                                                           **
     **  For information on this work, see:                                       **
     **                                                                           **
     **  Maia, J.D.C., et al., J. Chem. Theory Comput. 2012, 8, 3072-3081.        **
     **        DOI: 10.1021/ct3004645.                                            **
     **                                                                           **
     ===================== shared-memory parallel CPU Section ======================
      


 General Reference for PM7:
 "Optimization of Parameters for Semiempirical Methods VI: More Modifications to the 
 NDDO Approximations and Re-optimization of Parameters", J. J. P. Stewart, J. Mol. Mod., 1:32, 19 (2013)
 http://www.springerlink.com/openurl.asp?genre=article&id=doi:10.1007/s00894-012-1667-x

           Empirical Formula: C6 H12  =    18 atoms



      MOLECULAR POINT GROUP   :   D2  


      RHF CALCULATION, NO. OF DOUBLY OCCUPIED LEVELS =   18



  CARTESIAN GEOMETRY OF FIRST SYSTEM


   1    C         -0.52426      -1.31562       0.23973
   2    C          0.32488      -0.57205       1.27676
   3    C          1.36437       0.33188       0.59250
   4    C          0.86140       0.86115      -0.76127
   5    C         -0.66235       1.02692      -0.75472
   6    C         -1.36411      -0.33220      -0.59298
   7    H          0.13609      -1.90363      -0.42489
   8    H         -1.18356      -2.04766       0.73896
   9    H          0.83062      -1.29198       1.94438
  10    H         -0.33336       0.03525       1.92593
  11    H          2.30768      -0.22392       0.44293
  12    H          1.61298       1.17713       1.25946
  13    H          1.34998       1.82333      -0.99643
  14    H          1.15352       0.16527      -1.56995
  15    H         -0.95656       1.70327       0.06961
  16    H         -0.99789       1.51756      -1.68555
  17    H         -2.35086      -0.18279      -0.11853
  18    H         -1.56858      -0.77191      -1.58593


  CARTESIAN GEOMETRY OF SECOND SYSTEM


   1    C         -0.03719       0.15122       0.05419
   2    C          1.48655      -0.01457       0.04799
   3    C          2.18844       1.34442      -0.11435
   4    C          1.34825       2.32799      -0.94652
   5    C          0.49941       1.58448      -1.98380
   6    C         -0.53997       0.68024      -1.29979
   7    H         -0.52574      -0.81092       0.28948
   8    H         -0.32945       0.84729       0.86265
   9    H          1.78077      -0.69149      -0.77586
  10    H          1.82198      -0.50470       0.97914
  11    H          3.17478       1.19482      -0.58953
  12    H          2.39371       1.78413       0.87843
  13    H          0.68770       2.91549      -0.28164
  14    H          2.00732       3.06049      -1.44538
  15    H         -0.00632       2.30442      -2.65141
  16    H          1.15789       0.97735      -2.63292
  17    H         -1.48352       1.23568      -1.15045
  18    H         -0.78819      -0.16510      -1.96680


   "DISTANCE":     8.777196


  REACTION COORDINATE VECTOR


   1    C         -0.48707      -1.46683       0.18554
   2    C         -1.16166      -0.55749       1.22877
   3    C         -0.82407      -1.01254       0.70684
   4    C         -0.48685      -1.46684       0.18524
   5    C         -1.16176      -0.55756       1.22908
   6    C         -0.82413      -1.01244       0.70681
   7    H          0.66183      -1.09271      -0.71437
   8    H         -0.85411      -2.89495      -0.12369
   9    H         -0.95014      -0.60049       2.72024
  10    H         -2.15534       0.53995       0.94678
  11    H         -0.86710      -1.41874       1.03245
  12    H         -0.78073      -0.60700       0.38103
  13    H          0.66228      -1.09216      -0.71479
  14    H         -0.85380      -2.89521      -0.12457
  15    H         -0.95025      -0.60115       2.72102
  16    H         -2.15578       0.54021       0.94737
  17    H         -0.86733      -1.41846       1.03192
  18    H         -0.78039      -0.60681       0.38088
 *+*+*+*+*+*+*+*+*+*+*+*+*+*+*+*+*+*+*+*+*+*+*+*+*+*+*+*+*+*+*+*+*+*+*+*+*+*+*+*+
            BAR SHORTENED BY       0.000 PERCENT
 GRADIENT CRITERION IN FLEPO =     0.200


          FOR POINT    1 SECOND STRUCTURE
 DISTANCE A - B      8.777196
 HEAT              207.105482
 GRADIENT NORM      52.663181
 DIRECTION COSINE   -0.315216
geo-ok geo_ref="Boat_1.arc" geo_dat="Boat_2.arc" saddle    HTML noswap precise
 Transition state for Cyclohexane boat 1 <=> Cyclohexane boat 2

  C(HETATM    1  C   HET A   1)   0.00000000 +1    0.0000000 +1    0.0000000 +1
  C(HETATM    2  C   HET A   1)   1.53275970 +1    0.0000000 +1    0.0000000 +1     1     0     0
  C(HETATM    3  C   HET A   1)   1.53812974 +1  111.0085597 +1    0.0000000 +1     2     1     0
  C(HETATM    4  C   HET A   1)   1.53811691 +1  111.8871784 +1   30.8912224 +1     3     2     1
  C(HETATM    5  C   HET A   1)   1.53275693 +1  111.0099893 +1   30.8275142 +1     4     3     2
  C(HETATM    6  C   HET A   1)   1.53812605 +1  111.0050221 +1  -64.4455021 +1     5     4     3
  H(HETATM    8  H   HET A   1)   1.10614169 +1  109.4914682 +1   57.1032632 +1     1     2     3
  H(HETATM    7  H   HET A   1)   1.10443855 +1  110.2692829 +1  173.3600611 +1     1     2     3
  H(HETATM    9  H   HET A   1)   1.10443878 +1  110.2699988 +1 -122.2066098 +1     2     1     3
  H(HETATM   10  H   HET A   1)   1.10613227 +1  109.4956809 +1  121.5334660 +1     2     1     3
  H(HETATM   11  H   HET A   1)   1.10504163 +1  109.9702786 +1  -90.9730353 +1     3     2     1
  H(HETATM   12  H   HET A   1)   1.10503389 +1  109.4545558 +1  153.0533991 +1     3     2     1
  H(HETATM   14  H   HET A   1)   1.10444472 +1  110.0309180 +1  153.1755596 +1     4     3     2
  H(HETATM   13  H   HET A   1)   1.10613756 +1  109.9151013 +1  -90.4604049 +1     4     3     2
  H(HETATM   15  H   HET A   1)   1.10613570 +1  109.4958836 +1   57.0847756 +1     5     4     3
  H(HETATM   16  H   HET A   1)   1.10443311 +1  110.2715158 +1  173.3472951 +1     5     4     3
  H(HETATM   17  H   HET A   1)   1.10503682 +1  109.4552950 +1  153.0686121 +1     6     5     4
  H(HETATM   18  H   HET A   1)   1.10503223 +1  109.9708660 +1  -90.9569065 +1     6     5     4
 
 TIME=     0.01
  REACTANTS AND PRODUCTS SWAPPED AROUND
 *+*+*+*+*+*+*+*+*+*+*+*+*+*+*+*+*+*+*+*+*+*+*+*+*+*+*+*+*+*+*+*+*+*+*+*+*+*+*+*+
            BAR SHORTENED BY       1.000 PERCENT
 GRADIENT CRITERION IN FLEPO =     2.000


          FOR POINT    2 FIRST  STRUCTURE
 DISTANCE A - B      8.689424
 HEAT              202.544727
 GRADIENT NORM      51.178812
 DIRECTION COSINE    0.996707
geo-ok geo_ref="Boat_1.arc" geo_dat="Boat_2.arc" saddle    HTML noswap precise
 Transition state for Cyclohexane boat 1 <=> Cyclohexane boat 2

  C(HETATM    1  C   HET A   1)   0.00000000 +1    0.0000000 +1    0.0000000 +1
  C(HETATM    2  C   HET A   1)   1.53254173 +1    0.0000000 +1    0.0000000 +1     1     0     0
  C(HETATM    3  C   HET A   1)   1.53600700 +1  111.4190906 +1    0.0000000 +1     2     1     0
  C(HETATM    4  C   HET A   1)   1.53728708 +1  111.7687415 +1  -30.4020235 +1     3     2     1
  C(HETATM    5  C   HET A   1)   1.53234412 +1  111.4247402 +1  -30.4603880 +1     4     3     2
  C(HETATM    6  C   HET A   1)   1.53531785 +1  111.5271225 +1   63.7813651 +1     1     2     3
  H(HETATM    8  H   HET A   1)   1.10375508 +1  109.9061768 +1 -173.8816649 +1     1     2     3
  H(HETATM    7  H   HET A   1)   1.10559318 +1  109.3731766 +1  -57.9994709 +1     1     2     3
  H(HETATM    9  H   HET A   1)   1.10678249 +1  109.3833851 +1 -121.5613065 +1     2     1     3
  H(HETATM   10  H   HET A   1)   1.10357581 +1  110.1106712 +1  122.4003061 +1     2     1     3
  H(HETATM   11  H   HET A   1)   1.10384121 +1  109.2901000 +1 -152.4933122 +1     3     2     1
  H(HETATM   12  H   HET A   1)   1.10695393 +1  109.9510854 +1   91.3452513 +1     3     2     1
  H(HETATM   14  H   HET A   1)   1.10602429 +1  109.8923581 +1   90.9054625 +1     4     3     2
  H(HETATM   13  H   HET A   1)   1.10413885 +1  109.9580618 +1 -152.5789752 +1     4     3     2
  H(HETATM   15  H   HET A   1)   1.10387590 +1  109.8955255 +1 -174.0528484 +1     5     4     3
  H(HETATM   16  H   HET A   1)   1.10621975 +1  109.3240858 +1  -57.9626520 +1     5     4     3
  H(HETATM   17  H   HET A   1)   1.10597874 +1  109.2843043 +1 -152.8713392 +1     6     1     2
  H(HETATM   18  H   HET A   1)   1.10585780 +1  110.1595324 +1   91.4754672 +1     6     1     2
 
 *+*+*+*+*+*+*+*+*+*+*+*+*+*+*+*+*+*+*+*+*+*+*+*+*+*+*+*+*+*+*+*+*+*+*+*+*+*+*+*+
            BAR SHORTENED BY       1.000 PERCENT
 GRADIENT CRITERION IN FLEPO =     2.000


          FOR POINT    3 FIRST  STRUCTURE
 DISTANCE A - B      8.602529
 HEAT              198.062572
 GRADIENT NORM      50.670406
 DIRECTION COSINE    0.996480
geo-ok geo_ref="Boat_1.arc" geo_dat="Boat_2.arc" saddle    HTML noswap precise
 Transition state for Cyclohexane boat 1 <=> Cyclohexane boat 2

  C(HETATM    1  C   HET A   1)   0.00000000 +1    0.0000000 +1    0.0000000 +1
  C(HETATM    2  C   HET A   1)   1.53330320 +1    0.0000000 +1    0.0000000 +1     1     0     0
  C(HETATM    3  C   HET A   1)   1.53677281 +1  111.7223875 +1    0.0000000 +1     2     1     0
  C(HETATM    4  C   HET A   1)   1.53719572 +1  111.9402758 +1  -30.3445470 +1     3     2     1
  C(HETATM    5  C   HET A   1)   1.53271126 +1  111.6757373 +1  -29.9699078 +1     4     3     2
  C(HETATM    6  C   HET A   1)   1.53656389 +1  111.5851859 +1   63.1209187 +1     1     2     3
  H(HETATM    8  H   HET A   1)   1.10415815 +1  109.9038896 +1 -174.6777002 +1     1     2     3
  H(HETATM    7  H   HET A   1)   1.10538966 +1  109.4303891 +1  -58.4919789 +1     1     2     3
  H(HETATM    9  H   HET A   1)   1.10502802 +1  109.3548843 +1 -121.7789650 +1     2     1     3
  H(HETATM   10  H   HET A   1)   1.10527765 +1  109.8976993 +1  122.1754476 +1     2     1     3
  H(HETATM   11  H   HET A   1)   1.10575513 +1  109.3679447 +1 -152.6196303 +1     3     2     1
  H(HETATM   12  H   HET A   1)   1.10542721 +1  110.0806904 +1   91.5657142 +1     3     2     1
  H(HETATM   14  H   HET A   1)   1.10597909 +1  109.7610972 +1   91.6189621 +1     4     3     2
  H(HETATM   13  H   HET A   1)   1.10469234 +1  109.8197601 +1 -152.0179615 +1     4     3     2
  H(HETATM   15  H   HET A   1)   1.10495371 +1  109.7628069 +1 -174.9466682 +1     5     4     3
  H(HETATM   16  H   HET A   1)   1.10598150 +1  109.4311038 +1  -58.6847198 +1     5     4     3
  H(HETATM   17  H   HET A   1)   1.10490986 +1  109.3780332 +1 -152.4430457 +1     6     1     2
  H(HETATM   18  H   HET A   1)   1.10555549 +1  110.0643388 +1   91.7917559 +1     6     1     2
 
 *+*+*+*+*+*+*+*+*+*+*+*+*+*+*+*+*+*+*+*+*+*+*+*+*+*+*+*+*+*+*+*+*+*+*+*+*+*+*+*+
            BAR SHORTENED BY       1.000 PERCENT
 GRADIENT CRITERION IN FLEPO =     2.000


          FOR POINT    4 FIRST  STRUCTURE
 DISTANCE A - B      8.516504
 HEAT              193.722599
 GRADIENT NORM      49.735335
 DIRECTION COSINE    0.997005
geo-ok geo_ref="Boat_1.arc" geo_dat="Boat_2.arc" saddle    HTML noswap precise
 Transition state for Cyclohexane boat 1 <=> Cyclohexane boat 2

  C(HETATM    1  C   HET A   1)   0.00000000 +1    0.0000000 +1    0.0000000 +1
  C(HETATM    2  C   HET A   1)   1.53405868 +1    0.0000000 +1    0.0000000 +1     1     0     0
  C(HETATM    3  C   HET A   1)   1.53576953 +1  111.9237527 +1    0.0000000 +1     2     1     0
  C(HETATM    4  C   HET A   1)   1.53854537 +1  112.0002577 +1  -30.2187599 +1     3     2     1
  C(HETATM    5  C   HET A   1)   1.53316284 +1  111.9987408 +1  -29.4051030 +1     4     3     2
  C(HETATM    6  C   HET A   1)   1.53551476 +1  111.8893769 +1   62.6514992 +1     1     2     3
  H(HETATM    8  H   HET A   1)   1.10398762 +1  109.6345605 +1 -175.2093618 +1     1     2     3
  H(HETATM    7  H   HET A   1)   1.10637835 +1  109.4074531 +1  -59.1293520 +1     1     2     3
  H(HETATM    9  H   HET A   1)   1.10481571 +1  109.4134229 +1 -121.8537770 +1     2     1     3
  H(HETATM   10  H   HET A   1)   1.10289672 +1  109.6579508 +1  121.9963932 +1     2     1     3
  H(HETATM   11  H   HET A   1)   1.10621188 +1  109.2708344 +1 -152.4870980 +1     3     2     1
  H(HETATM   12  H   HET A   1)   1.10465946 +1  110.2377823 +1   91.8578288 +1     3     2     1
  H(HETATM   14  H   HET A   1)   1.10593967 +1  109.6081893 +1   92.2687284 +1     4     3     2
  H(HETATM   13  H   HET A   1)   1.10398464 +1  109.7924430 +1 -151.3280090 +1     4     3     2
  H(HETATM   15  H   HET A   1)   1.10438767 +1  109.5153495 +1 -175.8785685 +1     5     4     3
  H(HETATM   16  H   HET A   1)   1.10548695 +1  109.3907292 +1  -59.6396216 +1     5     4     3
  H(HETATM   17  H   HET A   1)   1.10682766 +1  109.2408885 +1 -152.2652299 +1     6     1     2
  H(HETATM   18  H   HET A   1)   1.10467362 +1  110.1728522 +1   92.1205038 +1     6     1     2
 
 TIME=     0.11
  REACTANTS AND PRODUCTS SWAPPED AROUND
 *+*+*+*+*+*+*+*+*+*+*+*+*+*+*+*+*+*+*+*+*+*+*+*+*+*+*+*+*+*+*+*+*+*+*+*+*+*+*+*+
            BAR SHORTENED BY       0.000 PERCENT
 GRADIENT CRITERION IN FLEPO =     2.000


          FOR POINT    5 SECOND STRUCTURE
 DISTANCE A - B      8.516504
 HEAT              193.580522
 GRADIENT NORM      51.098995
 DIRECTION COSINE    0.995811
geo-ok geo_ref="Boat_1.arc" geo_dat="Boat_2.arc" saddle    HTML noswap precise
 Transition state for Cyclohexane boat 1 <=> Cyclohexane boat 2

  C(HETATM    1  C   HET A   1)   0.00000000 +1    0.0000000 +1    0.0000000 +1
  C(HETATM    2  C   HET A   1)   1.53275970 +1    0.0000000 +1    0.0000000 +1     1     0     0
  C(HETATM    3  C   HET A   1)   1.53812974 +1  111.0085597 +1    0.0000000 +1     2     1     0
  C(HETATM    4  C   HET A   1)   1.53811691 +1  111.8871784 +1   30.8912224 +1     3     2     1
  C(HETATM    5  C   HET A   1)   1.53275693 +1  111.0099893 +1   30.8275142 +1     4     3     2
  C(HETATM    6  C   HET A   1)   1.53812605 +1  111.0050221 +1  -64.4455021 +1     5     4     3
  H(HETATM    8  H   HET A   1)   1.10614169 +1  109.4914682 +1   57.1032632 +1     1     2     3
  H(HETATM    7  H   HET A   1)   1.10443855 +1  110.2692829 +1  173.3600611 +1     1     2     3
  H(HETATM    9  H   HET A   1)   1.10443878 +1  110.2699988 +1 -122.2066098 +1     2     1     3
  H(HETATM   10  H   HET A   1)   1.10613227 +1  109.4956809 +1  121.5334660 +1     2     1     3
  H(HETATM   11  H   HET A   1)   1.10504163 +1  109.9702786 +1  -90.9730353 +1     3     2     1
  H(HETATM   12  H   HET A   1)   1.10503389 +1  109.4545558 +1  153.0533991 +1     3     2     1
  H(HETATM   14  H   HET A   1)   1.10444472 +1  110.0309180 +1  153.1755596 +1     4     3     2
  H(HETATM   13  H   HET A   1)   1.10613756 +1  109.9151013 +1  -90.4604049 +1     4     3     2
  H(HETATM   15  H   HET A   1)   1.10613570 +1  109.4958836 +1   57.0847756 +1     5     4     3
  H(HETATM   16  H   HET A   1)   1.10443311 +1  110.2715158 +1  173.3472951 +1     5     4     3
  H(HETATM   17  H   HET A   1)   1.10503682 +1  109.4552950 +1  153.0686121 +1     6     5     4
  H(HETATM   18  H   HET A   1)   1.10503223 +1  109.9708660 +1  -90.9569065 +1     6     5     4
 
 *+*+*+*+*+*+*+*+*+*+*+*+*+*+*+*+*+*+*+*+*+*+*+*+*+*+*+*+*+*+*+*+*+*+*+*+*+*+*+*+
            BAR SHORTENED BY       1.000 PERCENT
 GRADIENT CRITERION IN FLEPO =     2.000


          FOR POINT    6 SECOND STRUCTURE
 DISTANCE A - B      8.431339
 HEAT              189.277459
 GRADIENT NORM      50.245026
 DIRECTION COSINE    0.996540
geo-ok geo_ref="Boat_1.arc" geo_dat="Boat_2.arc" saddle    HTML noswap precise
 Transition state for Cyclohexane boat 1 <=> Cyclohexane boat 2

  C(HETATM    1  C   HET A   1)   0.00000000 +1    0.0000000 +1    0.0000000 +1
  C(HETATM    2  C   HET A   1)   1.53332207 +1    0.0000000 +1    0.0000000 +1     1     0     0
  C(HETATM    3  C   HET A   1)   1.53878934 +1  111.3900792 +1    0.0000000 +1     2     1     0
  C(HETATM    4  C   HET A   1)   1.53707680 +1  111.8465858 +1   30.4901043 +1     3     2     1
  C(HETATM    5  C   HET A   1)   1.53353300 +1  111.3713170 +1   30.5561931 +1     4     3     2
  C(HETATM    6  C   HET A   1)   1.53799591 +1  111.3697540 +1  -63.9160473 +1     5     4     3
  H(HETATM    8  H   HET A   1)   1.10591089 +1  109.4957948 +1   57.8837739 +1     1     2     3
  H(HETATM    7  H   HET A   1)   1.10384641 +1  109.9647389 +1  174.2330722 +1     1     2     3
  H(HETATM    9  H   HET A   1)   1.10422367 +1  109.9149830 +1 -122.0512984 +1     2     1     3
  H(HETATM   10  H   HET A   1)   1.10578287 +1  109.4858169 +1  121.5461671 +1     2     1     3
  H(HETATM   11  H   HET A   1)   1.10668395 +1  109.9953692 +1  -91.2519544 +1     3     2     1
  H(HETATM   12  H   HET A   1)   1.10324178 +1  109.4253513 +1  152.7611799 +1     3     2     1
  H(HETATM   14  H   HET A   1)   1.10405488 +1  109.8972781 +1  152.7020937 +1     4     3     2
  H(HETATM   13  H   HET A   1)   1.10580500 +1  109.8398206 +1  -90.9315966 +1     4     3     2
  H(HETATM   15  H   HET A   1)   1.10588291 +1  109.4841295 +1   57.6727813 +1     5     4     3
  H(HETATM   16  H   HET A   1)   1.10426224 +1  110.2756181 +1  174.0408295 +1     5     4     3
  H(HETATM   17  H   HET A   1)   1.10512308 +1  109.5376081 +1  152.6749461 +1     6     5     4
  H(HETATM   18  H   HET A   1)   1.10347962 +1  110.1380302 +1  -91.2949181 +1     6     5     4
 
 *+*+*+*+*+*+*+*+*+*+*+*+*+*+*+*+*+*+*+*+*+*+*+*+*+*+*+*+*+*+*+*+*+*+*+*+*+*+*+*+
            BAR SHORTENED BY       1.000 PERCENT
 GRADIENT CRITERION IN FLEPO =     2.000


          FOR POINT    7 SECOND STRUCTURE
 DISTANCE A - B      8.347026
 HEAT              185.069691
 GRADIENT NORM      49.305568
 DIRECTION COSINE    0.997046
geo-ok geo_ref="Boat_1.arc" geo_dat="Boat_2.arc" saddle    HTML noswap precise
 Transition state for Cyclohexane boat 1 <=> Cyclohexane boat 2

  C(HETATM    1  C   HET A   1)   0.00000000 +1    0.0000000 +1    0.0000000 +1
  C(HETATM    2  C   HET A   1)   1.53371644 +1    0.0000000 +1    0.0000000 +1     1     0     0
  C(HETATM    3  C   HET A   1)   1.53717762 +1  111.6729801 +1    0.0000000 +1     2     1     0
  C(HETATM    4  C   HET A   1)   1.53737560 +1  111.9964482 +1   30.1969466 +1     3     2     1
  C(HETATM    5  C   HET A   1)   1.53289612 +1  111.5615539 +1   30.1615375 +1     4     3     2
  C(HETATM    6  C   HET A   1)   1.53725226 +1  111.6936152 +1  -63.1919481 +1     5     4     3
  H(HETATM    8  H   HET A   1)   1.10509754 +1  109.4577913 +1   58.7384990 +1     1     2     3
  H(HETATM    7  H   HET A   1)   1.10387124 +1  109.7545656 +1  175.0091913 +1     1     2     3
  H(HETATM    9  H   HET A   1)   1.10480567 +1  109.7414034 +1 -122.0988257 +1     2     1     3
  H(HETATM   10  H   HET A   1)   1.10496910 +1  109.4617879 +1  121.5869429 +1     2     1     3
  H(HETATM   11  H   HET A   1)   1.10521677 +1  110.1487880 +1  -91.8156555 +1     3     2     1
  H(HETATM   12  H   HET A   1)   1.10592701 +1  109.4307509 +1  152.6039394 +1     3     2     1
  H(HETATM   14  H   HET A   1)   1.10483853 +1  109.8460619 +1  152.3208626 +1     4     3     2
  H(HETATM   13  H   HET A   1)   1.10553016 +1  109.7723599 +1  -91.4244606 +1     4     3     2
  H(HETATM   15  H   HET A   1)   1.10564588 +1  109.3708610 +1   58.6326998 +1     5     4     3
  H(HETATM   16  H   HET A   1)   1.10625500 +1  110.0377402 +1  174.6730707 +1     5     4     3
  H(HETATM   17  H   HET A   1)   1.10568678 +1  109.4263525 +1  152.6503556 +1     6     5     4
  H(HETATM   18  H   HET A   1)   1.10387903 +1  109.9876871 +1  -91.4023014 +1     6     5     4
 
 TIME=     0.07
  REACTANTS AND PRODUCTS SWAPPED AROUND
 *+*+*+*+*+*+*+*+*+*+*+*+*+*+*+*+*+*+*+*+*+*+*+*+*+*+*+*+*+*+*+*+*+*+*+*+*+*+*+*+
            BAR SHORTENED BY       0.000 PERCENT
 GRADIENT CRITERION IN FLEPO =     2.000


          FOR POINT    8 FIRST  STRUCTURE
 DISTANCE A - B      8.347026
 HEAT              185.132104
 GRADIENT NORM      48.980347
 DIRECTION COSINE    0.995397
geo-ok geo_ref="Boat_1.arc" geo_dat="Boat_2.arc" saddle    HTML noswap precise
 Transition state for Cyclohexane boat 1 <=> Cyclohexane boat 2

  C(HETATM    1  C   HET A   1)   0.00000000 +1    0.0000000 +1    0.0000000 +1
  C(HETATM    2  C   HET A   1)   1.53240678 +1    0.0000000 +1    0.0000000 +1     1     0     0
  C(HETATM    3  C   HET A   1)   1.53612447 +1  111.8247814 +1    0.0000000 +1     2     1     0
  C(HETATM    4  C   HET A   1)   1.53573452 +1  112.1206340 +1  -30.2842861 +1     3     2     1
  C(HETATM    5  C   HET A   1)   1.53296832 +1  111.9541266 +1  -29.4209621 +1     4     3     2
  C(HETATM    6  C   HET A   1)   1.53673659 +1  112.0149848 +1   62.0848660 +1     5     4     3
  H(HETATM    8  H   HET A   1)   1.10536884 +1  109.7065713 +1 -175.2794657 +1     1     2     3
  H(HETATM    7  H   HET A   1)   1.10422978 +1  109.5269704 +1  -59.1176321 +1     1     2     3
  H(HETATM    9  H   HET A   1)   1.10778779 +1  109.2820267 +1 -121.9057937 +1     2     1     3
  H(HETATM   10  H   HET A   1)   1.10520672 +1  109.6978868 +1  122.0165706 +1     2     1     3
  H(HETATM   11  H   HET A   1)   1.10639210 +1  109.1757577 +1 -152.2940766 +1     3     2     1
  H(HETATM   12  H   HET A   1)   1.10601277 +1  110.1239893 +1   91.8561527 +1     3     2     1
  H(HETATM   14  H   HET A   1)   1.10533004 +1  109.6890973 +1   92.2445883 +1     4     3     2
  H(HETATM   13  H   HET A   1)   1.10505429 +1  109.8122530 +1 -151.3845957 +1     4     3     2
  H(HETATM   15  H   HET A   1)   1.10527960 +1  109.5958805 +1 -175.8539544 +1     5     4     3
  H(HETATM   16  H   HET A   1)   1.10580706 +1  109.4325834 +1  -59.7284788 +1     5     4     3
  H(HETATM   17  H   HET A   1)   1.10558178 +1  110.1512293 +1   92.1735628 +1     6     5     4
  H(HETATM   18  H   HET A   1)   1.10596463 +1  109.3957642 +1 -152.1536343 +1     6     5     4
 
 TIME=     0.02
  REACTANTS AND PRODUCTS SWAPPED AROUND
 *+*+*+*+*+*+*+*+*+*+*+*+*+*+*+*+*+*+*+*+*+*+*+*+*+*+*+*+*+*+*+*+*+*+*+*+*+*+*+*+
            BAR SHORTENED BY       1.000 PERCENT
 GRADIENT CRITERION IN FLEPO =     2.000


          FOR POINT    9 SECOND STRUCTURE
 DISTANCE A - B      8.263555
 HEAT              180.992659
 GRADIENT NORM      48.556436
 DIRECTION COSINE    0.992335
geo-ok geo_ref="Boat_1.arc" geo_dat="Boat_2.arc" saddle    HTML noswap precise
 Transition state for Cyclohexane boat 1 <=> Cyclohexane boat 2

  C(HETATM    1  C   HET A   1)   0.00000000 +1    0.0000000 +1    0.0000000 +1
  C(HETATM    2  C   HET A   1)   1.53266824 +1    0.0000000 +1    0.0000000 +1     1     0     0
  C(HETATM    3  C   HET A   1)   1.53700120 +1  112.1104589 +1    0.0000000 +1     2     1     0
  C(HETATM    4  C   HET A   1)   1.53606130 +1  111.8166269 +1   29.8565604 +1     3     2     1
  C(HETATM    5  C   HET A   1)   1.53342055 +1  112.0419551 +1   29.8490953 +1     4     3     2
  C(HETATM    6  C   HET A   1)   1.53587757 +1  111.9473836 +1  -62.5115153 +1     5     4     3
  H(HETATM    8  H   HET A   1)   1.10667384 +1  109.3589745 +1   59.5335333 +1     1     2     3
  H(HETATM    7  H   HET A   1)   1.10598655 +1  109.5708117 +1  175.6194504 +1     1     2     3
  H(HETATM    9  H   HET A   1)   1.10584482 +1  109.4550937 +1 -121.9917761 +1     2     1     3
  H(HETATM   10  H   HET A   1)   1.10656601 +1  109.2983627 +1  121.8524993 +1     2     1     3
  H(HETATM   11  H   HET A   1)   1.10418020 +1  110.3451356 +1  -91.9415576 +1     3     2     1
  H(HETATM   12  H   HET A   1)   1.10555253 +1  109.3800738 +1  152.0151256 +1     3     2     1
  H(HETATM   14  H   HET A   1)   1.10586560 +1  109.8113317 +1  151.9142041 +1     4     3     2
  H(HETATM   13  H   HET A   1)   1.10437771 +1  109.7927285 +1  -92.0496001 +1     4     3     2
  H(HETATM   15  H   HET A   1)   1.10694891 +1  109.3553610 +1   59.3004949 +1     5     4     3
  H(HETATM   16  H   HET A   1)   1.10304367 +1  109.5609178 +1  175.2882816 +1     5     4     3
  H(HETATM   17  H   HET A   1)   1.10587295 +1  109.1994481 +1  152.2976013 +1     6     5     4
  H(HETATM   18  H   HET A   1)   1.10517917 +1  109.9701014 +1  -91.7825820 +1     6     5     4
 
 *+*+*+*+*+*+*+*+*+*+*+*+*+*+*+*+*+*+*+*+*+*+*+*+*+*+*+*+*+*+*+*+*+*+*+*+*+*+*+*+
            BAR SHORTENED BY       1.000 PERCENT
 GRADIENT CRITERION IN FLEPO =     2.000


          FOR POINT   10 SECOND STRUCTURE
 DISTANCE A - B      8.180920
 HEAT              176.991401
 GRADIENT NORM      47.962789
 DIRECTION COSINE    0.994197
geo-ok geo_ref="Boat_1.arc" geo_dat="Boat_2.arc" saddle    HTML noswap precise
 Transition state for Cyclohexane boat 1 <=> Cyclohexane boat 2

  C(HETATM    1  C   HET A   1)   0.00000000 +1    0.0000000 +1    0.0000000 +1
  C(HETATM    2  C   HET A   1)   1.53394597 +1    0.0000000 +1    0.0000000 +1     1     0     0
  C(HETATM    3  C   HET A   1)   1.53673478 +1  112.3356235 +1    0.0000000 +1     2     1     0
  C(HETATM    4  C   HET A   1)   1.53617135 +1  112.1863497 +1   29.5140837 +1     3     2     1
  C(HETATM    5  C   HET A   1)   1.53447326 +1  112.0105291 +1   29.4640706 +1     4     3     2
  C(HETATM    6  C   HET A   1)   1.53569379 +1  112.1202374 +1  -61.5161337 +1     1     2     3
  H(HETATM    8  H   HET A   1)   1.10644445 +1  109.4586228 +1   60.4593359 +1     1     2     3
  H(HETATM    7  H   HET A   1)   1.10549917 +1  109.3584220 +1  176.6579322 +1     1     2     3
  H(HETATM    9  H   HET A   1)   1.10595996 +1  109.2673785 +1 -121.9119795 +1     2     1     3
  H(HETATM   10  H   HET A   1)   1.10631420 +1  109.3962360 +1  121.9027583 +1     2     1     3
  H(HETATM   11  H   HET A   1)   1.10579388 +1  110.2299436 +1  -92.3700391 +1     3     2     1
  H(HETATM   12  H   HET A   1)   1.10675302 +1  109.3419530 +1  151.9515439 +1     3     2     1
  H(HETATM   14  H   HET A   1)   1.10454308 +1  109.8295570 +1  151.4009181 +1     4     3     2
  H(HETATM   13  H   HET A   1)   1.10387718 +1  109.6522635 +1  -92.1336783 +1     4     3     2
  H(HETATM   15  H   HET A   1)   1.10589578 +1  109.2215189 +1   60.1630581 +1     5     4     3
  H(HETATM   16  H   HET A   1)   1.10508555 +1  109.5436993 +1  175.9962682 +1     5     4     3
  H(HETATM   17  H   HET A   1)   1.10460080 +1  110.2881922 +1  -92.7876599 +1     6     1     2
  H(HETATM   18  H   HET A   1)   1.10818209 +1  109.3937270 +1  151.4139970 +1     6     1     2
 
 *+*+*+*+*+*+*+*+*+*+*+*+*+*+*+*+*+*+*+*+*+*+*+*+*+*+*+*+*+*+*+*+*+*+*+*+*+*+*+*+
            BAR SHORTENED BY       1.000 PERCENT
 GRADIENT CRITERION IN FLEPO =     2.000


          FOR POINT   11 SECOND STRUCTURE
 DISTANCE A - B      8.099111
 HEAT              173.035816
 GRADIENT NORM      47.161180
 DIRECTION COSINE    0.990301
geo-ok geo_ref="Boat_1.arc" geo_dat="Boat_2.arc" saddle    HTML noswap precise
 Transition state for Cyclohexane boat 1 <=> Cyclohexane boat 2

  C(HETATM    1  C   HET A   1)   0.00000000 +1    0.0000000 +1    0.0000000 +1
  C(HETATM    2  C   HET A   1)   1.53165255 +1    0.0000000 +1    0.0000000 +1     1     0     0
  C(HETATM    3  C   HET A   1)   1.53769994 +1  112.3421196 +1    0.0000000 +1     2     1     0
  C(HETATM    4  C   HET A   1)   1.53773218 +1  112.5487364 +1   29.0441508 +1     3     2     1
  C(HETATM    5  C   HET A   1)   1.53068190 +1  112.0560589 +1   29.5177223 +1     4     3     2
  C(HETATM    6  C   HET A   1)   1.53618423 +1  112.2985085 +1  -60.5469266 +1     1     2     3
  H(HETATM    8  H   HET A   1)   1.10446652 +1  109.5312360 +1   61.4681363 +1     1     2     3
  H(HETATM    7  H   HET A   1)   1.10573950 +1  109.4638499 +1  177.4258129 +1     1     2     3
  H(HETATM    9  H   HET A   1)   1.10635117 +1  109.5616014 +1 -122.0867648 +1     2     1     3
  H(HETATM   10  H   HET A   1)   1.10464145 +1  109.5514102 +1  121.7741498 +1     2     1     3
  H(HETATM   11  H   HET A   1)   1.10360048 +1  109.9210157 +1  -93.1460388 +1     3     2     1
  H(HETATM   12  H   HET A   1)   1.10551734 +1  109.4296379 +1  151.6332047 +1     3     2     1
  H(HETATM   14  H   HET A   1)   1.10798305 +1  109.8150358 +1  151.6479137 +1     4     3     2
  H(HETATM   13  H   HET A   1)   1.10536069 +1  109.6536850 +1  -92.5000385 +1     4     3     2
  H(HETATM   15  H   HET A   1)   1.10513722 +1  109.3089827 +1   60.5326179 +1     5     4     3
  H(HETATM   16  H   HET A   1)   1.10597951 +1  109.7109840 +1  176.5237620 +1     5     4     3
  H(HETATM   17  H   HET A   1)   1.10594302 +1  109.9166208 +1  -93.4077868 +1     6     1     2
  H(HETATM   18  H   HET A   1)   1.10528763 +1  109.3231855 +1  151.2637556 +1     6     1     2
 
 TIME=     0.11
  REACTANTS AND PRODUCTS SWAPPED AROUND
 *+*+*+*+*+*+*+*+*+*+*+*+*+*+*+*+*+*+*+*+*+*+*+*+*+*+*+*+*+*+*+*+*+*+*+*+*+*+*+*+
            BAR SHORTENED BY       0.000 PERCENT
 GRADIENT CRITERION IN FLEPO =     2.000


          FOR POINT   12 FIRST  STRUCTURE
 DISTANCE A - B      8.099111
 HEAT              172.897010
 GRADIENT NORM      47.304660
 DIRECTION COSINE    0.995842
geo-ok geo_ref="Boat_1.arc" geo_dat="Boat_2.arc" saddle    HTML noswap precise
 Transition state for Cyclohexane boat 1 <=> Cyclohexane boat 2

  C(HETATM    1  C   HET A   1)   0.00000000 +1    0.0000000 +1    0.0000000 +1
  C(HETATM    2  C   HET A   1)   1.53239761 +1    0.0000000 +1    0.0000000 +1     1     0     0
  C(HETATM    3  C   HET A   1)   1.53637597 +1  111.8309977 +1    0.0000000 +1     2     1     0
  C(HETATM    4  C   HET A   1)   1.53593897 +1  112.1233086 +1  -30.2404275 +1     3     2     1
  C(HETATM    5  C   HET A   1)   1.53280748 +1  111.9318430 +1  -29.4724899 +1     4     3     2
  C(HETATM    6  C   HET A   1)   1.53678968 +1  112.0006941 +1   62.1169960 +1     5     4     3
  H(HETATM    8  H   HET A   1)   1.10527493 +1  109.7252517 +1 -175.2864585 +1     1     2     3
  H(HETATM    7  H   HET A   1)   1.10464612 +1  109.5149031 +1  -59.1331961 +1     1     2     3
  H(HETATM    9  H   HET A   1)   1.10726568 +1  109.2945145 +1 -121.8769422 +1     2     1     3
  H(HETATM   10  H   HET A   1)   1.10528745 +1  109.7182601 +1  122.0328485 +1     2     1     3
  H(HETATM   11  H   HET A   1)   1.10594742 +1  109.2072714 +1 -152.3253363 +1     3     2     1
  H(HETATM   12  H   HET A   1)   1.10585461 +1  110.1019513 +1   91.8484094 +1     3     2     1
  H(HETATM   14  H   HET A   1)   1.10534227 +1  109.7102480 +1   92.2176413 +1     4     3     2
  H(HETATM   13  H   HET A   1)   1.10519824 +1  109.7746288 +1 -151.4381082 +1     4     3     2
  H(HETATM   15  H   HET A   1)   1.10297421 +1  109.7206453 +1 -175.8193565 +1     5     4     3
  H(HETATM   16  H   HET A   1)   1.10574203 +1  109.4344769 +1  -59.7032619 +1     5     4     3
  H(HETATM   17  H   HET A   1)   1.10374785 +1  110.0952871 +1   92.1235790 +1     6     5     4
  H(HETATM   18  H   HET A   1)   1.10588044 +1  109.3817216 +1 -152.1672966 +1     6     5     4
 
 *+*+*+*+*+*+*+*+*+*+*+*+*+*+*+*+*+*+*+*+*+*+*+*+*+*+*+*+*+*+*+*+*+*+*+*+*+*+*+*+
            BAR SHORTENED BY       1.000 PERCENT
 GRADIENT CRITERION IN FLEPO =     2.000


          FOR POINT   13 FIRST  STRUCTURE
 DISTANCE A - B      8.018120
 HEAT              169.032090
 GRADIENT NORM      46.847732
 DIRECTION COSINE    0.994971
geo-ok geo_ref="Boat_1.arc" geo_dat="Boat_2.arc" saddle    HTML noswap precise
 Transition state for Cyclohexane boat 1 <=> Cyclohexane boat 2

  C(HETATM    1  C   HET A   1)   0.00000000 +1    0.0000000 +1    0.0000000 +1
  C(HETATM    2  C   HET A   1)   1.53178684 +1    0.0000000 +1    0.0000000 +1     1     0     0
  C(HETATM    3  C   HET A   1)   1.53667020 +1  111.9307919 +1    0.0000000 +1     2     1     0
  C(HETATM    4  C   HET A   1)   1.53749758 +1  112.4418342 +1  -29.9889703 +1     3     2     1
  C(HETATM    5  C   HET A   1)   1.53202316 +1  111.9858911 +1  -29.2368710 +1     4     3     2
  C(HETATM    6  C   HET A   1)   1.53701898 +1  112.1287584 +1   61.4027236 +1     5     4     3
  H(HETATM    8  H   HET A   1)   1.10727976 +1  109.7463780 +1 -175.9659453 +1     1     2     3
  H(HETATM    7  H   HET A   1)   1.10431701 +1  109.6226352 +1  -59.9525374 +1     1     2     3
  H(HETATM    9  H   HET A   1)   1.10502452 +1  109.3576998 +1 -121.7712652 +1     2     1     3
  H(HETATM   10  H   HET A   1)   1.10580219 +1  109.7599608 +1  122.0728886 +1     2     1     3
  H(HETATM   11  H   HET A   1)   1.10713678 +1  109.4881810 +1 -152.5304051 +1     3     2     1
  H(HETATM   12  H   HET A   1)   1.10513831 +1  109.9466174 +1   92.0716232 +1     3     2     1
  H(HETATM   14  H   HET A   1)   1.10497131 +1  109.6697621 +1   92.6691265 +1     4     3     2
  H(HETATM   13  H   HET A   1)   1.10492069 +1  109.6382457 +1 -151.1820886 +1     4     3     2
  H(HETATM   15  H   HET A   1)   1.10600387 +1  109.5616248 +1 -176.5264185 +1     5     4     3
  H(HETATM   16  H   HET A   1)   1.10466300 +1  109.5026912 +1  -60.3676178 +1     5     4     3
  H(HETATM   17  H   HET A   1)   1.10627728 +1  109.9147818 +1   92.5692729 +1     6     5     4
  H(HETATM   18  H   HET A   1)   1.10560017 +1  109.3749830 +1 -151.9109915 +1     6     5     4
 
 *+*+*+*+*+*+*+*+*+*+*+*+*+*+*+*+*+*+*+*+*+*+*+*+*+*+*+*+*+*+*+*+*+*+*+*+*+*+*+*+
            BAR SHORTENED BY       1.000 PERCENT
 GRADIENT CRITERION IN FLEPO =     2.000


          FOR POINT   14 FIRST  STRUCTURE
 DISTANCE A - B      7.937938
 HEAT              165.279615
 GRADIENT NORM      45.798291
 DIRECTION COSINE    0.997501
geo-ok geo_ref="Boat_1.arc" geo_dat="Boat_2.arc" saddle    HTML noswap precise
 Transition state for Cyclohexane boat 1 <=> Cyclohexane boat 2

  C(HETATM    1  C   HET A   1)   0.00000000 +1    0.0000000 +1    0.0000000 +1
  C(HETATM    2  C   HET A   1)   1.53138656 +1    0.0000000 +1    0.0000000 +1     1     0     0
  C(HETATM    3  C   HET A   1)   1.53572749 +1  112.1864548 +1    0.0000000 +1     2     1     0
  C(HETATM    4  C   HET A   1)   1.53670813 +1  112.4758869 +1  -29.7816090 +1     3     2     1
  C(HETATM    5  C   HET A   1)   1.53252067 +1  112.2250477 +1  -28.8549212 +1     4     3     2
  C(HETATM    6  C   HET A   1)   1.53605875 +1  112.3690888 +1   60.8198373 +1     5     4     3
  H(HETATM    8  H   HET A   1)   1.10797944 +1  109.5811529 +1 -176.4441376 +1     1     2     3
  H(HETATM    7  H   HET A   1)   1.10324182 +1  109.5063558 +1  -60.6021924 +1     1     2     3
  H(HETATM    9  H   HET A   1)   1.10632561 +1  109.2448144 +1 -121.8686219 +1     2     1     3
  H(HETATM   10  H   HET A   1)   1.10444335 +1  109.6004674 +1  122.1154614 +1     2     1     3
  H(HETATM   11  H   HET A   1)   1.10622414 +1  109.3127373 +1 -152.3192153 +1     3     2     1
  H(HETATM   12  H   HET A   1)   1.10467728 +1  109.9339609 +1   92.2284439 +1     3     2     1
  H(HETATM   14  H   HET A   1)   1.10387420 +1  109.6994554 +1   93.1628812 +1     4     3     2
  H(HETATM   13  H   HET A   1)   1.10447228 +1  109.5993955 +1 -150.5518866 +1     4     3     2
  H(HETATM   15  H   HET A   1)   1.10605524 +1  109.3580874 +1 -177.2503578 +1     5     4     3
  H(HETATM   16  H   HET A   1)   1.10435594 +1  109.4965616 +1  -61.1406796 +1     5     4     3
  H(HETATM   17  H   HET A   1)   1.10589770 +1  110.0897475 +1   92.7900727 +1     6     5     4
  H(HETATM   18  H   HET A   1)   1.10746496 +1  109.3117542 +1 -151.6784969 +1     6     5     4
 
 TIME=     0.09
  REACTANTS AND PRODUCTS SWAPPED AROUND
 *+*+*+*+*+*+*+*+*+*+*+*+*+*+*+*+*+*+*+*+*+*+*+*+*+*+*+*+*+*+*+*+*+*+*+*+*+*+*+*+
            BAR SHORTENED BY       0.000 PERCENT
 GRADIENT CRITERION IN FLEPO =     2.000


          FOR POINT   15 SECOND STRUCTURE
 DISTANCE A - B      7.937938
 HEAT              165.277006
 GRADIENT NORM      46.003258
 DIRECTION COSINE    0.993665
geo-ok geo_ref="Boat_1.arc" geo_dat="Boat_2.arc" saddle    HTML noswap precise
 Transition state for Cyclohexane boat 1 <=> Cyclohexane boat 2

  C(HETATM    1  C   HET A   1)   0.00000000 +1    0.0000000 +1    0.0000000 +1
  C(HETATM    2  C   HET A   1)   1.53161051 +1    0.0000000 +1    0.0000000 +1     1     0     0
  C(HETATM    3  C   HET A   1)   1.53787702 +1  112.2682638 +1    0.0000000 +1     2     1     0
  C(HETATM    4  C   HET A   1)   1.53611458 +1  112.5984028 +1   29.1658634 +1     3     2     1
  C(HETATM    5  C   HET A   1)   1.53083884 +1  112.0686660 +1   29.4465442 +1     4     3     2
  C(HETATM    6  C   HET A   1)   1.53673215 +1  112.2646334 +1  -60.6360467 +1     1     2     3
  H(HETATM    8  H   HET A   1)   1.10430530 +1  109.6121163 +1   61.4052912 +1     1     2     3
  H(HETATM    7  H   HET A   1)   1.10607578 +1  109.4990315 +1  177.4176460 +1     1     2     3
  H(HETATM    9  H   HET A   1)   1.10680761 +1  109.4826270 +1 -122.0311730 +1     2     1     3
  H(HETATM   10  H   HET A   1)   1.10420305 +1  109.5691374 +1  121.8859436 +1     2     1     3
  H(HETATM   11  H   HET A   1)   1.10360679 +1  109.9070648 +1  -93.1825217 +1     3     2     1
  H(HETATM   12  H   HET A   1)   1.10656748 +1  109.2708735 +1  151.7148674 +1     3     2     1
  H(HETATM   14  H   HET A   1)   1.10771052 +1  109.8157006 +1  151.5668456 +1     4     3     2
  H(HETATM   13  H   HET A   1)   1.10359986 +1  109.7639634 +1  -92.2966080 +1     4     3     2
  H(HETATM   15  H   HET A   1)   1.10513492 +1  109.3261714 +1   60.5488285 +1     5     4     3
  H(HETATM   16  H   HET A   1)   1.10579572 +1  109.7084347 +1  176.5578061 +1     5     4     3
  H(HETATM   17  H   HET A   1)   1.10579166 +1  109.9625244 +1  -93.3341546 +1     6     1     2
  H(HETATM   18  H   HET A   1)   1.10533491 +1  109.3057373 +1  151.2733769 +1     6     1     2
 
 *+*+*+*+*+*+*+*+*+*+*+*+*+*+*+*+*+*+*+*+*+*+*+*+*+*+*+*+*+*+*+*+*+*+*+*+*+*+*+*+
            BAR SHORTENED BY       1.000 PERCENT
 GRADIENT CRITERION IN FLEPO =     2.000


          FOR POINT   16 SECOND STRUCTURE
 DISTANCE A - B      7.858559
 HEAT              161.608917
 GRADIENT NORM      45.265288
 DIRECTION COSINE    0.995587
geo-ok geo_ref="Boat_1.arc" geo_dat="Boat_2.arc" saddle    HTML noswap precise
 Transition state for Cyclohexane boat 1 <=> Cyclohexane boat 2

  C(HETATM    1  C   HET A   1)   0.00000000 +1    0.0000000 +1    0.0000000 +1
  C(HETATM    2  C   HET A   1)   1.53260395 +1    0.0000000 +1    0.0000000 +1     1     0     0
  C(HETATM    3  C   HET A   1)   1.53508054 +1  112.6528233 +1    0.0000000 +1     2     1     0
  C(HETATM    4  C   HET A   1)   1.53551148 +1  112.6244451 +1   28.7947779 +1     3     2     1
  C(HETATM    5  C   HET A   1)   1.53151446 +1  112.2238173 +1   29.2676135 +1     4     3     2
  C(HETATM    6  C   HET A   1)   1.53573679 +1  112.3963982 +1  -60.9656586 +1     5     4     3
  H(HETATM    8  H   HET A   1)   1.10468542 +1  109.4940195 +1   62.2252562 +1     1     2     3
  H(HETATM    7  H   HET A   1)   1.10500819 +1  109.2648260 +1  178.2288041 +1     1     2     3
  H(HETATM    9  H   HET A   1)   1.10579104 +1  109.1848285 +1 -122.0537650 +1     2     1     3
  H(HETATM   10  H   HET A   1)   1.10508005 +1  109.4155525 +1  122.0733554 +1     2     1     3
  H(HETATM   11  H   HET A   1)   1.10551898 +1  110.1082505 +1  -93.2366491 +1     3     2     1
  H(HETATM   12  H   HET A   1)   1.10551444 +1  109.1829953 +1  151.2461294 +1     3     2     1
  H(HETATM   14  H   HET A   1)   1.10875288 +1  109.6132227 +1  151.2712286 +1     4     3     2
  H(HETATM   13  H   HET A   1)   1.10432629 +1  109.6991487 +1  -92.7095294 +1     4     3     2
  H(HETATM   15  H   HET A   1)   1.10552397 +1  109.1969838 +1   61.0848769 +1     5     4     3
  H(HETATM   16  H   HET A   1)   1.10539171 +1  109.3948312 +1  177.0018658 +1     5     4     3
  H(HETATM   17  H   HET A   1)   1.10564438 +1  109.1707692 +1  152.4290908 +1     6     5     4
  H(HETATM   18  H   HET A   1)   1.10711180 +1  109.8371346 +1  -92.2241442 +1     6     5     4
 
 *+*+*+*+*+*+*+*+*+*+*+*+*+*+*+*+*+*+*+*+*+*+*+*+*+*+*+*+*+*+*+*+*+*+*+*+*+*+*+*+
            BAR SHORTENED BY       1.000 PERCENT
 GRADIENT CRITERION IN FLEPO =     2.000


          FOR POINT   17 SECOND STRUCTURE
 DISTANCE A - B      7.779973
 HEAT              157.973614
 GRADIENT NORM      45.262654
 DIRECTION COSINE    0.994762
geo-ok geo_ref="Boat_1.arc" geo_dat="Boat_2.arc" saddle    HTML noswap precise
 Transition state for Cyclohexane boat 1 <=> Cyclohexane boat 2

  C(HETATM    1  C   HET A   1)   0.00000000 +1    0.0000000 +1    0.0000000 +1
  C(HETATM    2  C   HET A   1)   1.53235333 +1    0.0000000 +1    0.0000000 +1     1     0     0
  C(HETATM    3  C   HET A   1)   1.53649703 +1  112.7021536 +1    0.0000000 +1     2     1     0
  C(HETATM    4  C   HET A   1)   1.53599825 +1  112.9043586 +1   28.5389068 +1     3     2     1
  C(HETATM    5  C   HET A   1)   1.53218728 +1  112.2260097 +1   29.1538989 +1     4     3     2
  C(HETATM    6  C   HET A   1)   1.53630306 +1  112.3626574 +1  -60.6526899 +1     5     4     3
  H(HETATM    8  H   HET A   1)   1.10579150 +1  109.5732071 +1   62.9828594 +1     1     2     3
  H(HETATM    7  H   HET A   1)   1.10651971 +1  109.2872471 +1  178.8595172 +1     1     2     3
  H(HETATM    9  H   HET A   1)   1.10685916 +1  109.2781841 +1 -121.9620066 +1     2     1     3
  H(HETATM   10  H   HET A   1)   1.10601698 +1  109.4972863 +1  122.0128384 +1     2     1     3
  H(HETATM   11  H   HET A   1)   1.10634276 +1  109.8370347 +1  -93.4992739 +1     3     2     1
  H(HETATM   12  H   HET A   1)   1.10568015 +1  109.1926207 +1  151.0953184 +1     3     2     1
  H(HETATM   14  H   HET A   1)   1.10538450 +1  109.6400550 +1  151.1130682 +1     4     3     2
  H(HETATM   13  H   HET A   1)   1.10598679 +1  109.6986803 +1  -92.9435868 +1     4     3     2
  H(HETATM   15  H   HET A   1)   1.10495095 +1  109.3528443 +1   61.4277129 +1     5     4     3
  H(HETATM   16  H   HET A   1)   1.10731044 +1  109.5479219 +1  177.3676496 +1     5     4     3
  H(HETATM   17  H   HET A   1)   1.10591765 +1  109.2182379 +1  152.5275053 +1     6     5     4
  H(HETATM   18  H   HET A   1)   1.10522405 +1  109.7333766 +1  -92.0195797 +1     6     5     4
 
 TIME=     0.11
  REACTANTS AND PRODUCTS SWAPPED AROUND
 *+*+*+*+*+*+*+*+*+*+*+*+*+*+*+*+*+*+*+*+*+*+*+*+*+*+*+*+*+*+*+*+*+*+*+*+*+*+*+*+
            BAR SHORTENED BY       0.000 PERCENT
 GRADIENT CRITERION IN FLEPO =     2.000


          FOR POINT   18 FIRST  STRUCTURE
 DISTANCE A - B      7.779973
 HEAT              157.796639
 GRADIENT NORM      45.804069
 DIRECTION COSINE    0.992832
geo-ok geo_ref="Boat_1.arc" geo_dat="Boat_2.arc" saddle    HTML noswap precise
 Transition state for Cyclohexane boat 1 <=> Cyclohexane boat 2

  C(HETATM    1  C   HET A   1)   0.00000000 +1    0.0000000 +1    0.0000000 +1
  C(HETATM    2  C   HET A   1)   1.52925827 +1    0.0000000 +1    0.0000000 +1     1     0     0
  C(HETATM    3  C   HET A   1)   1.53604468 +1  112.1486871 +1    0.0000000 +1     2     1     0
  C(HETATM    4  C   HET A   1)   1.53809815 +1  112.4714108 +1  -30.0305230 +1     3     2     1
  C(HETATM    5  C   HET A   1)   1.53083968 +1  112.0720339 +1  -28.9235938 +1     4     3     2
  C(HETATM    6  C   HET A   1)   1.53626795 +1  111.9429875 +1   61.6255998 +1     1     2     3
  H(HETATM    8  H   HET A   1)   1.10627571 +1  109.7662923 +1 -176.6175007 +1     1     2     3
  H(HETATM    7  H   HET A   1)   1.10676765 +1  109.5993901 +1  -60.5462073 +1     1     2     3
  H(HETATM    9  H   HET A   1)   1.10752927 +1  109.5670100 +1 -122.1431141 +1     2     1     3
  H(HETATM   10  H   HET A   1)   1.10763600 +1  109.6996165 +1  121.9563203 +1     2     1     3
  H(HETATM   11  H   HET A   1)   1.10352934 +1  109.1617588 +1 -152.3180497 +1     3     2     1
  H(HETATM   12  H   HET A   1)   1.10594911 +1  109.9812152 +1   91.8457595 +1     3     2     1
  H(HETATM   14  H   HET A   1)   1.10537261 +1  109.7253442 +1   93.1732200 +1     4     3     2
  H(HETATM   13  H   HET A   1)   1.10657808 +1  109.4677766 +1 -150.8816202 +1     4     3     2
  H(HETATM   15  H   HET A   1)   1.10659950 +1  109.6261960 +1 -177.0100749 +1     5     4     3
  H(HETATM   16  H   HET A   1)   1.10574008 +1  109.5174727 +1  -61.2080353 +1     5     4     3
  H(HETATM   17  H   HET A   1)   1.10591699 +1  109.3064667 +1 -152.0197391 +1     6     1     2
  H(HETATM   18  H   HET A   1)   1.10581475 +1  110.1008389 +1   92.3317938 +1     6     1     2
 
 *+*+*+*+*+*+*+*+*+*+*+*+*+*+*+*+*+*+*+*+*+*+*+*+*+*+*+*+*+*+*+*+*+*+*+*+*+*+*+*+
            BAR SHORTENED BY       1.000 PERCENT
 GRADIENT CRITERION IN FLEPO =     2.000


          FOR POINT   19 FIRST  STRUCTURE
 DISTANCE A - B      7.702174
 HEAT              154.305177
 GRADIENT NORM      44.482607
 DIRECTION COSINE    0.986921
geo-ok geo_ref="Boat_1.arc" geo_dat="Boat_2.arc" saddle    HTML noswap precise
 Transition state for Cyclohexane boat 1 <=> Cyclohexane boat 2

  C(HETATM    1  C   HET A   1)   0.00000000 +1    0.0000000 +1    0.0000000 +1
  C(HETATM    2  C   HET A   1)   1.53275036 +1    0.0000000 +1    0.0000000 +1     1     0     0
  C(HETATM    3  C   HET A   1)   1.53502736 +1  112.3387672 +1    0.0000000 +1     2     1     0
  C(HETATM    4  C   HET A   1)   1.53508289 +1  112.4955866 +1  -29.6782186 +1     3     2     1
  C(HETATM    5  C   HET A   1)   1.53246595 +1  112.4898571 +1  -28.4066054 +1     4     3     2
  C(HETATM    6  C   HET A   1)   1.53456807 +1  112.4431577 +1   61.0111396 +1     1     2     3
  H(HETATM    8  H   HET A   1)   1.10599776 +1  109.3255940 +1 -176.9023350 +1     1     2     3
  H(HETATM    7  H   HET A   1)   1.10532761 +1  109.4034227 +1  -61.2749082 +1     1     2     3
  H(HETATM    9  H   HET A   1)   1.10539134 +1  109.3504001 +1 -122.1362939 +1     2     1     3
  H(HETATM   10  H   HET A   1)   1.10499155 +1  109.2936035 +1  122.0677401 +1     2     1     3
  H(HETATM   11  H   HET A   1)   1.10578873 +1  108.9287399 +1 -151.9483760 +1     3     2     1
  H(HETATM   12  H   HET A   1)   1.10464454 +1  109.9040862 +1   92.2746077 +1     3     2     1
  H(HETATM   14  H   HET A   1)   1.10580200 +1  109.7744237 +1   93.6161457 +1     4     3     2
  H(HETATM   13  H   HET A   1)   1.10650558 +1  109.5803174 +1 -150.1511415 +1     4     3     2
  H(HETATM   15  H   HET A   1)   1.10552598 +1  109.3288342 +1 -177.7136283 +1     5     4     3
  H(HETATM   16  H   HET A   1)   1.10647795 +1  109.2350264 +1  -62.0535030 +1     5     4     3
  H(HETATM   17  H   HET A   1)   1.10337097 +1  109.1246212 +1 -151.9437768 +1     6     1     2
  H(HETATM   18  H   HET A   1)   1.10834886 +1  109.9441308 +1   92.5646868 +1     6     1     2
 
 *+*+*+*+*+*+*+*+*+*+*+*+*+*+*+*+*+*+*+*+*+*+*+*+*+*+*+*+*+*+*+*+*+*+*+*+*+*+*+*+
            BAR SHORTENED BY       1.000 PERCENT
 GRADIENT CRITERION IN FLEPO =     2.000


          FOR POINT   20 FIRST  STRUCTURE
 DISTANCE A - B      7.625152
 HEAT              150.833962
 GRADIENT NORM      43.837638
 DIRECTION COSINE    0.992153
geo-ok geo_ref="Boat_1.arc" geo_dat="Boat_2.arc" saddle    HTML noswap precise
 Transition state for Cyclohexane boat 1 <=> Cyclohexane boat 2

  C(HETATM    1  C   HET A   1)   0.00000000 +1    0.0000000 +1    0.0000000 +1
  C(HETATM    2  C   HET A   1)   1.53292371 +1    0.0000000 +1    0.0000000 +1     1     0     0
  C(HETATM    3  C   HET A   1)   1.53508691 +1  112.5148184 +1    0.0000000 +1     2     1     0
  C(HETATM    4  C   HET A   1)   1.53655638 +1  112.7454961 +1  -29.6643126 +1     3     2     1
  C(HETATM    5  C   HET A   1)   1.53206988 +1  112.5994562 +1  -27.9697601 +1     4     3     2
  C(HETATM    6  C   HET A   1)   1.53489009 +1  112.3476747 +1   60.5473501 +1     1     2     3
  H(HETATM    8  H   HET A   1)   1.10730191 +1  109.4172966 +1 -177.4847542 +1     1     2     3
  H(HETATM    7  H   HET A   1)   1.10416486 +1  109.4785126 +1  -61.6636134 +1     1     2     3
  H(HETATM    9  H   HET A   1)   1.10590628 +1  109.2866255 +1 -122.0777888 +1     2     1     3
  H(HETATM   10  H   HET A   1)   1.10572918 +1  109.4457237 +1  121.9892122 +1     2     1     3
  H(HETATM   11  H   HET A   1)   1.10644090 +1  109.1969426 +1 -152.0750274 +1     3     2     1
  H(HETATM   12  H   HET A   1)   1.10513192 +1  109.7887181 +1   92.4071670 +1     3     2     1
  H(HETATM   14  H   HET A   1)   1.10477264 +1  109.5385656 +1   94.1472875 +1     4     3     2
  H(HETATM   13  H   HET A   1)   1.10579094 +1  109.5118101 +1 -149.7210308 +1     4     3     2
  H(HETATM   15  H   HET A   1)   1.10591684 +1  109.1671806 +1 -178.6860305 +1     5     4     3
  H(HETATM   16  H   HET A   1)   1.10527703 +1  109.4104807 +1  -62.7669011 +1     5     4     3
  H(HETATM   17  H   HET A   1)   1.10669740 +1  109.1049476 +1 -151.5883673 +1     6     1     2
  H(HETATM   18  H   HET A   1)   1.10535607 +1  110.0291838 +1   92.9305469 +1     6     1     2
 
 TIME=     0.11
  REACTANTS AND PRODUCTS SWAPPED AROUND
 *+*+*+*+*+*+*+*+*+*+*+*+*+*+*+*+*+*+*+*+*+*+*+*+*+*+*+*+*+*+*+*+*+*+*+*+*+*+*+*+
            BAR SHORTENED BY       0.000 PERCENT
 GRADIENT CRITERION IN FLEPO =     2.000


          FOR POINT   21 SECOND STRUCTURE
 DISTANCE A - B      7.625152
 HEAT              150.810657
 GRADIENT NORM      44.243778
 DIRECTION COSINE    0.992461
geo-ok geo_ref="Boat_1.arc" geo_dat="Boat_2.arc" saddle    HTML noswap precise
 Transition state for Cyclohexane boat 1 <=> Cyclohexane boat 2

  C(HETATM    1  C   HET A   1)   0.00000000 +1    0.0000000 +1    0.0000000 +1
  C(HETATM    2  C   HET A   1)   1.53236738 +1    0.0000000 +1    0.0000000 +1     1     0     0
  C(HETATM    3  C   HET A   1)   1.53668430 +1  112.6633909 +1    0.0000000 +1     2     1     0
  C(HETATM    4  C   HET A   1)   1.53725423 +1  112.9164855 +1   28.5454668 +1     3     2     1
  C(HETATM    5  C   HET A   1)   1.53210700 +1  112.1533416 +1   29.2274663 +1     4     3     2
  C(HETATM    6  C   HET A   1)   1.53662475 +1  112.3015309 +1  -60.7515682 +1     5     4     3
  H(HETATM    8  H   HET A   1)   1.10623047 +1  109.5159170 +1   62.9261117 +1     1     2     3
  H(HETATM    7  H   HET A   1)   1.10552496 +1  109.3455609 +1  178.7753045 +1     1     2     3
  H(HETATM    9  H   HET A   1)   1.10555213 +1  109.3443461 +1 -121.9913192 +1     2     1     3
  H(HETATM   10  H   HET A   1)   1.10619162 +1  109.4667308 +1  122.0408587 +1     2     1     3
  H(HETATM   11  H   HET A   1)   1.10679065 +1  109.9458151 +1  -93.2810611 +1     3     2     1
  H(HETATM   12  H   HET A   1)   1.10616778 +1  109.1487545 +1  151.1061081 +1     3     2     1
  H(HETATM   14  H   HET A   1)   1.10572471 +1  109.5499834 +1  151.0669219 +1     4     3     2
  H(HETATM   13  H   HET A   1)   1.10454948 +1  109.7169464 +1  -92.8582490 +1     4     3     2
  H(HETATM   15  H   HET A   1)   1.10510244 +1  109.4409247 +1   61.3390547 +1     5     4     3
  H(HETATM   16  H   HET A   1)   1.10691438 +1  109.5072118 +1  177.3423810 +1     5     4     3
  H(HETATM   17  H   HET A   1)   1.10673910 +1  108.7964946 +1  152.6486746 +1     6     5     4
  H(HETATM   18  H   HET A   1)   1.10565054 +1  109.7538183 +1  -91.9353189 +1     6     5     4
 
 *+*+*+*+*+*+*+*+*+*+*+*+*+*+*+*+*+*+*+*+*+*+*+*+*+*+*+*+*+*+*+*+*+*+*+*+*+*+*+*+
            BAR SHORTENED BY       1.000 PERCENT
 GRADIENT CRITERION IN FLEPO =     2.000


          FOR POINT   22 SECOND STRUCTURE
 DISTANCE A - B      7.548900
 HEAT              147.468344
 GRADIENT NORM      43.189061
 DIRECTION COSINE    0.992983
geo-ok geo_ref="Boat_1.arc" geo_dat="Boat_2.arc" saddle    HTML noswap precise
 Transition state for Cyclohexane boat 1 <=> Cyclohexane boat 2

  C(HETATM    1  C   HET A   1)   0.00000000 +1    0.0000000 +1    0.0000000 +1
  C(HETATM    2  C   HET A   1)   1.53215227 +1    0.0000000 +1    0.0000000 +1     1     0     0
  C(HETATM    3  C   HET A   1)   1.53780557 +1  112.9686577 +1    0.0000000 +1     2     1     0
  C(HETATM    4  C   HET A   1)   1.53459033 +1  112.7374796 +1   28.3053082 +1     3     2     1
  C(HETATM    5  C   HET A   1)   1.53285040 +1  112.6039260 +1   28.8514787 +1     4     3     2
  C(HETATM    6  C   HET A   1)   1.53474056 +1  112.5642529 +1  -60.2714796 +1     5     4     3
  H(HETATM    8  H   HET A   1)   1.10611016 +1  109.3238146 +1   63.6536674 +1     1     2     3
  H(HETATM    7  H   HET A   1)   1.10543743 +1  109.0827904 +1  179.3531272 +1     1     2     3
  H(HETATM    9  H   HET A   1)   1.10629639 +1  109.1139696 +1 -121.8509116 +1     2     1     3
  H(HETATM   10  H   HET A   1)   1.10598645 +1  109.3788818 +1  122.2265309 +1     2     1     3
  H(HETATM   11  H   HET A   1)   1.10398265 +1  110.1515181 +1  -93.7066651 +1     3     2     1
  H(HETATM   12  H   HET A   1)   1.10593568 +1  109.0788148 +1  150.7072553 +1     3     2     1
  H(HETATM   14  H   HET A   1)   1.10618110 +1  109.5634211 +1  150.6801404 +1     4     3     2
  H(HETATM   13  H   HET A   1)   1.10145276 +1  109.8355011 +1  -93.3899541 +1     4     3     2
  H(HETATM   15  H   HET A   1)   1.10566090 +1  109.3608234 +1   61.9459273 +1     5     4     3
  H(HETATM   16  H   HET A   1)   1.10639793 +1  109.2703197 +1  177.5715991 +1     5     4     3
  H(HETATM   17  H   HET A   1)   1.10743693 +1  108.9189762 +1  152.2127839 +1     6     5     4
  H(HETATM   18  H   HET A   1)   1.10493573 +1  109.9317330 +1  -92.2633537 +1     6     5     4
 
 *+*+*+*+*+*+*+*+*+*+*+*+*+*+*+*+*+*+*+*+*+*+*+*+*+*+*+*+*+*+*+*+*+*+*+*+*+*+*+*+
            BAR SHORTENED BY       1.000 PERCENT
 GRADIENT CRITERION IN FLEPO =     2.000


          FOR POINT   23 SECOND STRUCTURE
 DISTANCE A - B      7.473411
 HEAT              144.183753
 GRADIENT NORM      42.268997
 DIRECTION COSINE    0.993020
geo-ok geo_ref="Boat_1.arc" geo_dat="Boat_2.arc" saddle    HTML noswap precise
 Transition state for Cyclohexane boat 1 <=> Cyclohexane boat 2

  C(HETATM    1  C   HET A   1)   0.00000000 +1    0.0000000 +1    0.0000000 +1
  C(HETATM    2  C   HET A   1)   1.53137674 +1    0.0000000 +1    0.0000000 +1     1     0     0
  C(HETATM    3  C   HET A   1)   1.53670837 +1  113.2147643 +1    0.0000000 +1     2     1     0
  C(HETATM    4  C   HET A   1)   1.53429142 +1  112.8987304 +1   27.9312478 +1     3     2     1
  C(HETATM    5  C   HET A   1)   1.53010353 +1  112.6119706 +1   28.6863517 +1     4     3     2
  C(HETATM    6  C   HET A   1)   1.53406883 +1  112.8913681 +1  -59.7335148 +1     5     4     3
  H(HETATM    8  H   HET A   1)   1.10610432 +1  109.4565655 +1   64.2836335 +1     1     2     3
  H(HETATM    7  H   HET A   1)   1.10655022 +1  108.8487344 +1 -179.7416591 +1     1     2     3
  H(HETATM    9  H   HET A   1)   1.10624511 +1  108.9114051 +1 -121.8777738 +1     2     1     3
  H(HETATM   10  H   HET A   1)   1.10543482 +1  109.3470612 +1  122.3072905 +1     2     1     3
  H(HETATM   11  H   HET A   1)   1.10630756 +1  109.9608618 +1  -93.9929660 +1     3     2     1
  H(HETATM   12  H   HET A   1)   1.10675167 +1  109.0921454 +1  150.6643459 +1     3     2     1
  H(HETATM   14  H   HET A   1)   1.10820190 +1  109.3935948 +1  150.5099887 +1     4     3     2
  H(HETATM   13  H   HET A   1)   1.10293618 +1  109.7279464 +1  -93.6167141 +1     4     3     2
  H(HETATM   15  H   HET A   1)   1.10432916 +1  109.4059028 +1   62.7025340 +1     5     4     3
  H(HETATM   16  H   HET A   1)   1.10686168 +1  109.1677318 +1  178.3548112 +1     5     4     3
  H(HETATM   17  H   HET A   1)   1.10595118 +1  109.0842906 +1  152.2011255 +1     6     5     4
  H(HETATM   18  H   HET A   1)   1.10697394 +1  110.0120288 +1  -92.5197216 +1     6     5     4
 
 TIME=     0.11
  REACTANTS AND PRODUCTS SWAPPED AROUND
 *+*+*+*+*+*+*+*+*+*+*+*+*+*+*+*+*+*+*+*+*+*+*+*+*+*+*+*+*+*+*+*+*+*+*+*+*+*+*+*+
            BAR SHORTENED BY       0.000 PERCENT
 GRADIENT CRITERION IN FLEPO =     2.000


          FOR POINT   24 FIRST  STRUCTURE
 DISTANCE A - B      7.473411
 HEAT              143.954215
 GRADIENT NORM      43.173480
 DIRECTION COSINE    0.993381
geo-ok geo_ref="Boat_1.arc" geo_dat="Boat_2.arc" saddle    HTML noswap precise
 Transition state for Cyclohexane boat 1 <=> Cyclohexane boat 2

  C(HETATM    1  C   HET A   1)   0.00000000 +1    0.0000000 +1    0.0000000 +1
  C(HETATM    2  C   HET A   1)   1.53255761 +1    0.0000000 +1    0.0000000 +1     1     0     0
  C(HETATM    3  C   HET A   1)   1.53564561 +1  112.4856967 +1    0.0000000 +1     2     1     0
  C(HETATM    4  C   HET A   1)   1.53638368 +1  112.7534111 +1  -29.7080632 +1     3     2     1
  C(HETATM    5  C   HET A   1)   1.53189644 +1  112.6011527 +1  -27.9734902 +1     4     3     2
  C(HETATM    6  C   HET A   1)   1.53573873 +1  112.3124531 +1   60.5824190 +1     1     2     3
  H(HETATM    8  H   HET A   1)   1.10690975 +1  109.4441937 +1 -177.5254055 +1     1     2     3
  H(HETATM    7  H   HET A   1)   1.10371500 +1  109.5437712 +1  -61.6120893 +1     1     2     3
  H(HETATM    9  H   HET A   1)   1.10542494 +1  109.3399170 +1 -122.0963570 +1     2     1     3
  H(HETATM   10  H   HET A   1)   1.10855426 +1  109.4046523 +1  122.3039760 +1     2     1     3
  H(HETATM   11  H   HET A   1)   1.10629407 +1  109.1711624 +1 -152.1385035 +1     3     2     1
  H(HETATM   12  H   HET A   1)   1.10535060 +1  109.7996354 +1   92.3682523 +1     3     2     1
  H(HETATM   14  H   HET A   1)   1.10638344 +1  109.4820104 +1   94.1378917 +1     4     3     2
  H(HETATM   13  H   HET A   1)   1.10551623 +1  109.4983031 +1 -149.7457005 +1     4     3     2
  H(HETATM   15  H   HET A   1)   1.10560701 +1  109.2064780 +1 -178.6656415 +1     5     4     3
  H(HETATM   16  H   HET A   1)   1.10524500 +1  109.4128408 +1  -62.7532184 +1     5     4     3
  H(HETATM   17  H   HET A   1)   1.10644962 +1  109.1069117 +1 -151.6410687 +1     6     1     2
  H(HETATM   18  H   HET A   1)   1.10560812 +1  110.0258181 +1   92.8986619 +1     6     1     2
 
 *+*+*+*+*+*+*+*+*+*+*+*+*+*+*+*+*+*+*+*+*+*+*+*+*+*+*+*+*+*+*+*+*+*+*+*+*+*+*+*+
            BAR SHORTENED BY       1.000 PERCENT
 GRADIENT CRITERION IN FLEPO =     2.000


          FOR POINT   25 FIRST  STRUCTURE
 DISTANCE A - B      7.398677
 HEAT              140.638948
 GRADIENT NORM      43.427947
 DIRECTION COSINE    0.994261
geo-ok geo_ref="Boat_1.arc" geo_dat="Boat_2.arc" saddle    HTML noswap precise
 Transition state for Cyclohexane boat 1 <=> Cyclohexane boat 2

  C(HETATM    1  C   HET A   1)   0.00000000 +1    0.0000000 +1    0.0000000 +1
  C(HETATM    2  C   HET A   1)   1.53203232 +1    0.0000000 +1    0.0000000 +1     1     0     0
  C(HETATM    3  C   HET A   1)   1.53665638 +1  112.1061112 +1    0.0000000 +1     2     1     0
  C(HETATM    4  C   HET A   1)   1.53792608 +1  113.2191525 +1  -29.9816540 +1     3     2     1
  C(HETATM    5  C   HET A   1)   1.53158107 +1  112.5449916 +1  -27.7304730 +1     4     3     2
  C(HETATM    6  C   HET A   1)   1.53638916 +1  112.4385888 +1   58.9278270 +1     5     4     3
  H(HETATM    8  H   HET A   1)   1.10708880 +1  109.6591591 +1 -177.6732322 +1     1     2     3
  H(HETATM    7  H   HET A   1)   1.10517080 +1  109.8731976 +1  -61.8643539 +1     1     2     3
  H(HETATM    9  H   HET A   1)   1.10522782 +1  109.6217271 +1 -122.0876149 +1     2     1     3
  H(HETATM   10  H   HET A   1)   1.10706796 +1  109.7427364 +1  122.2417975 +1     2     1     3
  H(HETATM   11  H   HET A   1)   1.10607116 +1  109.2626675 +1 -152.5018896 +1     3     2     1
  H(HETATM   12  H   HET A   1)   1.10594440 +1  109.7008988 +1   92.0076640 +1     3     2     1
  H(HETATM   14  H   HET A   1)   1.10534363 +1  109.6014524 +1   94.6178413 +1     4     3     2
  H(HETATM   13  H   HET A   1)   1.10701359 +1  109.3834334 +1 -149.6144818 +1     4     3     2
  H(HETATM   15  H   HET A   1)   1.10748322 +1  109.4497780 +1 -179.2668167 +1     5     4     3
  H(HETATM   16  H   HET A   1)   1.10593805 +1  109.7453865 +1  -63.1098071 +1     5     4     3
  H(HETATM   17  H   HET A   1)   1.10646406 +1  109.6444351 +1   93.7508171 +1     6     5     4
  H(HETATM   18  H   HET A   1)   1.10599407 +1  109.1361358 +1 -150.9086361 +1     6     5     4
 
 *+*+*+*+*+*+*+*+*+*+*+*+*+*+*+*+*+*+*+*+*+*+*+*+*+*+*+*+*+*+*+*+*+*+*+*+*+*+*+*+
            BAR SHORTENED BY       1.000 PERCENT
 GRADIENT CRITERION IN FLEPO =     2.000


          FOR POINT   26 FIRST  STRUCTURE
 DISTANCE A - B      7.324691
 HEAT              137.472017
 GRADIENT NORM      41.808456
 DIRECTION COSINE    0.994847
geo-ok geo_ref="Boat_1.arc" geo_dat="Boat_2.arc" saddle    HTML noswap precise
 Transition state for Cyclohexane boat 1 <=> Cyclohexane boat 2

  C(HETATM    1  C   HET A   1)   0.00000000 +1    0.0000000 +1    0.0000000 +1
  C(HETATM    2  C   HET A   1)   1.53225904 +1    0.0000000 +1    0.0000000 +1     1     0     0
  C(HETATM    3  C   HET A   1)   1.53508768 +1  112.4741688 +1    0.0000000 +1     2     1     0
  C(HETATM    4  C   HET A   1)   1.53623231 +1  112.9951172 +1  -29.9375209 +1     3     2     1
  C(HETATM    5  C   HET A   1)   1.53217035 +1  112.9067933 +1  -27.1076067 +1     4     3     2
  C(HETATM    6  C   HET A   1)   1.53481988 +1  112.4849201 +1   60.1884394 +1     1     2     3
  H(HETATM    8  H   HET A   1)   1.10629593 +1  109.2635875 +1 -177.7430438 +1     1     2     3
  H(HETATM    7  H   HET A   1)   1.10408333 +1  109.4712494 +1  -62.2643755 +1     1     2     3
  H(HETATM    9  H   HET A   1)   1.10676667 +1  109.3202518 +1 -122.2343965 +1     2     1     3
  H(HETATM   10  H   HET A   1)   1.10524805 +1  109.3891670 +1  121.9751801 +1     2     1     3
  H(HETATM   11  H   HET A   1)   1.10606168 +1  108.9799504 +1 -152.5494670 +1     3     2     1
  H(HETATM   12  H   HET A   1)   1.10591802 +1  109.7583599 +1   92.0853940 +1     3     2     1
  H(HETATM   14  H   HET A   1)   1.10504684 +1  109.6482597 +1   95.1434683 +1     4     3     2
  H(HETATM   13  H   HET A   1)   1.10602667 +1  109.4173456 +1 -148.8581517 +1     4     3     2
  H(HETATM   15  H   HET A   1)   1.10660965 +1  109.1046743 +1 -179.8211536 +1     5     4     3
  H(HETATM   16  H   HET A   1)   1.10592327 +1  109.4197330 +1  -64.0487845 +1     5     4     3
  H(HETATM   17  H   HET A   1)   1.10573082 +1  108.9788845 +1 -151.6035283 +1     6     1     2
  H(HETATM   18  H   HET A   1)   1.10711275 +1  109.9070363 +1   93.2630662 +1     6     1     2
 
 TIME=     0.12
  REACTANTS AND PRODUCTS SWAPPED AROUND
 *+*+*+*+*+*+*+*+*+*+*+*+*+*+*+*+*+*+*+*+*+*+*+*+*+*+*+*+*+*+*+*+*+*+*+*+*+*+*+*+
            BAR SHORTENED BY       0.000 PERCENT
 GRADIENT CRITERION IN FLEPO =     2.000


          FOR POINT   27 SECOND STRUCTURE
 DISTANCE A - B      7.324691
 HEAT              136.998184
 GRADIENT NORM      43.405719
 DIRECTION COSINE    0.987386
geo-ok geo_ref="Boat_1.arc" geo_dat="Boat_2.arc" saddle    HTML noswap precise
 Transition state for Cyclohexane boat 1 <=> Cyclohexane boat 2

  C(HETATM    1  C   HET A   1)   0.00000000 +1    0.0000000 +1    0.0000000 +1
  C(HETATM    2  C   HET A   1)   1.53294351 +1    0.0000000 +1    0.0000000 +1     1     0     0
  C(HETATM    3  C   HET A   1)   1.53726161 +1  111.0035208 +1    0.0000000 +1     2     1     0
  C(HETATM    4  C   HET A   1)   1.53643965 +1  112.2317159 +1   32.0429840 +1     3     2     1
  C(HETATM    5  C   HET A   1)   1.53291221 +1  111.4814671 +1   28.7157222 +1     4     3     2
  C(HETATM    6  C   HET A   1)   1.53656571 +1  111.3806981 +1  -63.9777929 +1     1     2     3
  H(HETATM    8  H   HET A   1)   1.10664011 +1  109.3352310 +1   57.3315602 +1     1     2     3
  H(HETATM    7  H   HET A   1)   1.10420586 +1  110.0919409 +1  173.6330390 +1     1     2     3
  H(HETATM    9  H   HET A   1)   1.10274006 +1  109.6671184 +1 -121.6485275 +1     2     1     3
  H(HETATM   10  H   HET A   1)   1.10549157 +1  109.6979303 +1  122.3991655 +1     2     1     3
  H(HETATM   11  H   HET A   1)   1.10523865 +1  109.4999546 +1  -89.7697294 +1     3     2     1
  H(HETATM   12  H   HET A   1)   1.10555393 +1  109.4857745 +1  154.5034503 +1     3     2     1
  H(HETATM   14  H   HET A   1)   1.10509232 +1  109.9064970 +1  151.7798872 +1     4     3     2
  H(HETATM   13  H   HET A   1)   1.10637787 +1  110.0366502 +1  -92.5634689 +1     4     3     2
  H(HETATM   15  H   HET A   1)   1.10504101 +1  109.4325197 +1   58.8388202 +1     5     4     3
  H(HETATM   16  H   HET A   1)   1.10523483 +1  109.9764650 +1  175.1654340 +1     5     4     3
  H(HETATM   17  H   HET A   1)   1.10509903 +1  110.1138078 +1  -92.1613731 +1     6     1     2
  H(HETATM   18  H   HET A   1)   1.10556568 +1  109.4374089 +1  151.8259174 +1     6     1     2
 
 *+*+*+*+*+*+*+*+*+*+*+*+*+*+*+*+*+*+*+*+*+*+*+*+*+*+*+*+*+*+*+*+*+*+*+*+*+*+*+*+
            BAR SHORTENED BY       1.000 PERCENT
 GRADIENT CRITERION IN FLEPO =     2.000


          FOR POINT   28 SECOND STRUCTURE
 DISTANCE A - B      7.251444
 HEAT              133.831036
 GRADIENT NORM      42.791753
 DIRECTION COSINE    0.989777
geo-ok geo_ref="Boat_1.arc" geo_dat="Boat_2.arc" saddle    HTML noswap precise
 Transition state for Cyclohexane boat 1 <=> Cyclohexane boat 2

  C(HETATM    1  C   HET A   1)   0.00000000 +1    0.0000000 +1    0.0000000 +1
  C(HETATM    2  C   HET A   1)   1.53265323 +1    0.0000000 +1    0.0000000 +1     1     0     0
  C(HETATM    3  C   HET A   1)   1.53871272 +1  111.5740534 +1    0.0000000 +1     2     1     0
  C(HETATM    4  C   HET A   1)   1.53720751 +1  111.9266189 +1   31.1926672 +1     3     2     1
  C(HETATM    5  C   HET A   1)   1.53279192 +1  111.8884311 +1   28.9416718 +1     4     3     2
  C(HETATM    6  C   HET A   1)   1.53691811 +1  111.8094790 +1  -63.1174032 +1     1     2     3
  H(HETATM    8  H   HET A   1)   1.10667548 +1  109.2224391 +1   58.4782174 +1     1     2     3
  H(HETATM    7  H   HET A   1)   1.10434977 +1  109.7179035 +1  174.5835143 +1     1     2     3
  H(HETATM    9  H   HET A   1)   1.10559972 +1  109.6434964 +1 -121.8701426 +1     2     1     3
  H(HETATM   10  H   HET A   1)   1.10604591 +1  109.6337034 +1  121.9868411 +1     2     1     3
  H(HETATM   11  H   HET A   1)   1.10589670 +1  109.7522453 +1  -90.2223629 +1     3     2     1
  H(HETATM   12  H   HET A   1)   1.10493279 +1  109.4172427 +1  153.5691781 +1     3     2     1
  H(HETATM   14  H   HET A   1)   1.10483866 +1  109.5808171 +1  151.0046425 +1     4     3     2
  H(HETATM   13  H   HET A   1)   1.10418985 +1  109.9033491 +1  -92.9594927 +1     4     3     2
  H(HETATM   15  H   HET A   1)   1.10647218 +1  109.5272886 +1   59.1082129 +1     5     4     3
  H(HETATM   16  H   HET A   1)   1.10668082 +1  109.6687319 +1  175.0457746 +1     5     4     3
  H(HETATM   17  H   HET A   1)   1.10466302 +1  110.1359778 +1  -92.3752138 +1     6     1     2
  H(HETATM   18  H   HET A   1)   1.10414397 +1  109.3612377 +1  151.5415444 +1     6     1     2
 
 *+*+*+*+*+*+*+*+*+*+*+*+*+*+*+*+*+*+*+*+*+*+*+*+*+*+*+*+*+*+*+*+*+*+*+*+*+*+*+*+
            BAR SHORTENED BY       1.000 PERCENT
 GRADIENT CRITERION IN FLEPO =     2.000


          FOR POINT   29 SECOND STRUCTURE
 DISTANCE A - B      7.178929
 HEAT              130.764131
 GRADIENT NORM      41.382960
 DIRECTION COSINE    0.991579
geo-ok geo_ref="Boat_1.arc" geo_dat="Boat_2.arc" saddle    HTML noswap precise
 Transition state for Cyclohexane boat 1 <=> Cyclohexane boat 2

  C(HETATM    1  C   HET A   1)   0.00000000 +1    0.0000000 +1    0.0000000 +1
  C(HETATM    2  C   HET A   1)   1.53306300 +1    0.0000000 +1    0.0000000 +1     1     0     0
  C(HETATM    3  C   HET A   1)   1.53655004 +1  111.8125695 +1    0.0000000 +1     2     1     0
  C(HETATM    4  C   HET A   1)   1.53595779 +1  112.2383144 +1   30.9580659 +1     3     2     1
  C(HETATM    5  C   HET A   1)   1.53300014 +1  112.1065002 +1   28.3495963 +1     4     3     2
  C(HETATM    6  C   HET A   1)   1.53606404 +1  112.0305196 +1  -62.3200465 +1     1     2     3
  H(HETATM    8  H   HET A   1)   1.10559432 +1  109.2696322 +1   59.4347158 +1     1     2     3
  H(HETATM    7  H   HET A   1)   1.10330262 +1  109.4975481 +1  175.5729038 +1     1     2     3
  H(HETATM    9  H   HET A   1)   1.10507024 +1  109.4854663 +1 -121.8270092 +1     2     1     3
  H(HETATM   10  H   HET A   1)   1.10449198 +1  109.5894696 +1  121.9568498 +1     2     1     3
  H(HETATM   11  H   HET A   1)   1.10644053 +1  110.0669127 +1  -91.0085963 +1     3     2     1
  H(HETATM   12  H   HET A   1)   1.10611493 +1  109.3153122 +1  153.4052766 +1     3     2     1
  H(HETATM   14  H   HET A   1)   1.10670717 +1  109.7335961 +1  150.5919015 +1     4     3     2
  H(HETATM   13  H   HET A   1)   1.10452207 +1  109.6860091 +1  -93.3761078 +1     4     3     2
  H(HETATM   15  H   HET A   1)   1.10557188 +1  109.3086503 +1   60.1491959 +1     5     4     3
  H(HETATM   16  H   HET A   1)   1.10430072 +1  109.5098691 +1  176.0583054 +1     5     4     3
  H(HETATM   17  H   HET A   1)   1.10537404 +1  110.2204354 +1  -92.8442369 +1     6     1     2
  H(HETATM   18  H   HET A   1)   1.10768979 +1  109.3679340 +1  151.2997768 +1     6     1     2
 
 TIME=     0.16
  REACTANTS AND PRODUCTS SWAPPED AROUND
 *+*+*+*+*+*+*+*+*+*+*+*+*+*+*+*+*+*+*+*+*+*+*+*+*+*+*+*+*+*+*+*+*+*+*+*+*+*+*+*+
            BAR SHORTENED BY       0.000 PERCENT
 GRADIENT CRITERION IN FLEPO =     2.000


          FOR POINT   30 FIRST  STRUCTURE
 DISTANCE A - B      7.178929
 HEAT              131.126997
 GRADIENT NORM      40.756611
 DIRECTION COSINE    0.992354
geo-ok geo_ref="Boat_1.arc" geo_dat="Boat_2.arc" saddle    HTML noswap precise
 Transition state for Cyclohexane boat 1 <=> Cyclohexane boat 2

  C(HETATM    1  C   HET A   1)   0.00000000 +1    0.0000000 +1    0.0000000 +1
  C(HETATM    2  C   HET A   1)   1.53206258 +1    0.0000000 +1    0.0000000 +1     1     0     0
  C(HETATM    3  C   HET A   1)   1.53507035 +1  112.4554312 +1    0.0000000 +1     2     1     0
  C(HETATM    4  C   HET A   1)   1.53731345 +1  112.9514131 +1  -29.9221904 +1     3     2     1
  C(HETATM    5  C   HET A   1)   1.53068740 +1  112.9063201 +1  -27.2140134 +1     4     3     2
  C(HETATM    6  C   HET A   1)   1.53521159 +1  112.4716184 +1   60.2057520 +1     1     2     3
  H(HETATM    8  H   HET A   1)   1.10622366 +1  109.2757760 +1 -177.7574857 +1     1     2     3
  H(HETATM    7  H   HET A   1)   1.10417834 +1  109.4938043 +1  -62.2301818 +1     1     2     3
  H(HETATM    9  H   HET A   1)   1.10645338 +1  109.3434859 +1 -122.2372206 +1     2     1     3
  H(HETATM   10  H   HET A   1)   1.10537588 +1  109.3875232 +1  121.9501974 +1     2     1     3
  H(HETATM   11  H   HET A   1)   1.10640233 +1  108.9807649 +1 -152.5814212 +1     3     2     1
  H(HETATM   12  H   HET A   1)   1.10610163 +1  109.7763262 +1   92.0906851 +1     3     2     1
  H(HETATM   14  H   HET A   1)   1.10403730 +1  109.6177569 +1   95.2578170 +1     4     3     2
  H(HETATM   13  H   HET A   1)   1.10762738 +1  109.2515245 +1 -148.8754736 +1     4     3     2
  H(HETATM   15  H   HET A   1)   1.10579872 +1  109.1203319 +1 -179.7470381 +1     5     4     3
  H(HETATM   16  H   HET A   1)   1.10574062 +1  109.4913205 +1  -63.9567475 +1     5     4     3
  H(HETATM   17  H   HET A   1)   1.10576198 +1  108.9786289 +1 -151.6096322 +1     6     1     2
  H(HETATM   18  H   HET A   1)   1.10695467 +1  109.9043132 +1   93.2439417 +1     6     1     2
 
 TIME=     0.02
  REACTANTS AND PRODUCTS SWAPPED AROUND
 *+*+*+*+*+*+*+*+*+*+*+*+*+*+*+*+*+*+*+*+*+*+*+*+*+*+*+*+*+*+*+*+*+*+*+*+*+*+*+*+
            BAR SHORTENED BY       1.000 PERCENT
 GRADIENT CRITERION IN FLEPO =     2.000


          FOR POINT   31 SECOND STRUCTURE
 DISTANCE A - B      7.107140
 HEAT              127.749424
 GRADIENT NORM      41.590474
 DIRECTION COSINE    0.991785
geo-ok geo_ref="Boat_1.arc" geo_dat="Boat_2.arc" saddle    HTML noswap precise
 Transition state for Cyclohexane boat 1 <=> Cyclohexane boat 2

  C(HETATM    1  C   HET A   1)   0.00000000 +1    0.0000000 +1    0.0000000 +1
  C(HETATM    2  C   HET A   1)   1.53209720 +1    0.0000000 +1    0.0000000 +1     1     0     0
  C(HETATM    3  C   HET A   1)   1.53544887 +1  112.0886314 +1    0.0000000 +1     2     1     0
  C(HETATM    4  C   HET A   1)   1.53762620 +1  112.6078631 +1   30.4494429 +1     3     2     1
  C(HETATM    5  C   HET A   1)   1.53180165 +1  112.0743465 +1   28.3379231 +1     4     3     2
[...]
  C(HETATM    5  C   HET A   1)   1.53353532 +1  112.2924672 +1    0.1363240 +1     4     3     2
  C(HETATM    6  C   HET A   1)   1.53354443 +1  110.8922157 +1  -53.5213832 +1     5     4     3
  H(HETATM    8  H   HET A   1)   1.10585426 +1  109.3673932 +1   68.7486870 +1     1     2     3
  H(HETATM    7  H   HET A   1)   1.10499434 +1  109.5314763 +1 -175.6622352 +1     1     2     3
  H(HETATM    9  H   HET A   1)   1.10553769 +1  109.9264980 +1 -121.8486416 +1     2     1     3
  H(HETATM   10  H   HET A   1)   1.10613218 +1  109.9855193 +1  121.9657227 +1     2     1     3
  H(HETATM   11  H   HET A   1)   1.10585464 +1  109.3694274 +1  -68.6841440 +1     3     2     1
  H(HETATM   12  H   HET A   1)   1.10498757 +1  109.5395104 +1  175.7223981 +1     3     2     1
  H(HETATM   14  H   HET A   1)   1.10488890 +1  110.0007982 +1  122.4572634 +1     4     3     2
  H(HETATM   13  H   HET A   1)   1.10589235 +1  109.5573473 +1 -121.5856872 +1     4     3     2
  H(HETATM   15  H   HET A   1)   1.10607305 +1  110.0145431 +1   68.4125646 +1     5     4     3
  H(HETATM   16  H   HET A   1)   1.10549112 +1  109.9630126 +1 -175.3561147 +1     5     4     3
  H(HETATM   17  H   HET A   1)   1.10488698 +1  109.5800014 +1  176.1565242 +1     6     5     4
  H(HETATM   18  H   HET A   1)   1.10595998 +1  109.3569589 +1  -68.2419374 +1     6     5     4
 
 TIME=     0.00
  REACTANTS AND PRODUCTS SWAPPED AROUND
 *+*+*+*+*+*+*+*+*+*+*+*+*+*+*+*+*+*+*+*+*+*+*+*+*+*+*+*+*+*+*+*+*+*+*+*+*+*+*+*+
            BAR SHORTENED BY       1.000 PERCENT
 GRADIENT CRITERION IN FLEPO =     0.221


          FOR POINT  915 SECOND STRUCTURE
 DISTANCE A - B      0.010341
 HEAT              -23.461790
 GRADIENT NORM       0.199361
 DIRECTION COSINE   -0.804975
geo-ok geo_ref="Boat_1.arc" geo_dat="Boat_2.arc" saddle    HTML noswap precise
 Transition state for Cyclohexane boat 1 <=> Cyclohexane boat 2

  C(HETATM    1  C   HET A   1)   0.00000000 +1    0.0000000 +1    0.0000000 +1
  C(HETATM    2  C   HET A   1)   1.53361668 +1    0.0000000 +1    0.0000000 +1     1     0     0
  C(HETATM    3  C   HET A   1)   1.53363092 +1  111.0248145 +1    0.0000000 +1     2     1     0
  C(HETATM    4  C   HET A   1)   1.54029029 +1  112.3452506 +1   53.0878615 +1     3     2     1
  C(HETATM    5  C   HET A   1)   1.53351639 +1  112.2902051 +1    0.3231747 +1     4     3     2
  C(HETATM    6  C   HET A   1)   1.53355900 +1  110.8910337 +1  -53.6270077 +1     5     4     3
  H(HETATM    8  H   HET A   1)   1.10584425 +1  109.3652769 +1   68.6503191 +1     1     2     3
  H(HETATM    7  H   HET A   1)   1.10498929 +1  109.5354659 +1 -175.7609237 +1     1     2     3
  H(HETATM    9  H   HET A   1)   1.10554883 +1  109.9287913 +1 -121.8476980 +1     2     1     3
  H(HETATM   10  H   HET A   1)   1.10614176 +1  109.9845807 +1  121.9662618 +1     2     1     3
  H(HETATM   11  H   HET A   1)   1.10584393 +1  109.3711052 +1  -68.7907760 +1     3     2     1
  H(HETATM   12  H   HET A   1)   1.10496621 +1  109.5362219 +1  175.6175226 +1     3     2     1
  H(HETATM   14  H   HET A   1)   1.10487678 +1  109.9997716 +1  122.6455914 +1     4     3     2
  H(HETATM   13  H   HET A   1)   1.10588774 +1  109.5596723 +1 -121.3957704 +1     4     3     2
  H(HETATM   15  H   HET A   1)   1.10607512 +1  110.0137377 +1   68.3070408 +1     5     4     3
  H(HETATM   16  H   HET A   1)   1.10549613 +1  109.9647949 +1 -175.4600404 +1     5     4     3
  H(HETATM   17  H   HET A   1)   1.10488172 +1  109.5775574 +1  176.0568959 +1     6     5     4
  H(HETATM   18  H   HET A   1)   1.10595637 +1  109.3599598 +1  -68.3426274 +1     6     5     4
 
 TIME=     0.02
  REACTANTS AND PRODUCTS SWAPPED AROUND
 *+*+*+*+*+*+*+*+*+*+*+*+*+*+*+*+*+*+*+*+*+*+*+*+*+*+*+*+*+*+*+*+*+*+*+*+*+*+*+*+
            BAR SHORTENED BY       1.000 PERCENT
 GRADIENT CRITERION IN FLEPO =     0.221


          FOR POINT  916 FIRST  STRUCTURE
 DISTANCE A - B      0.010238
 HEAT              -23.461798
 GRADIENT NORM       0.181486
 DIRECTION COSINE   -0.808889
geo-ok geo_ref="Boat_1.arc" geo_dat="Boat_2.arc" saddle    HTML noswap precise
 Transition state for Cyclohexane boat 1 <=> Cyclohexane boat 2

  C(HETATM    1  C   HET A   1)   0.00000000 +1    0.0000000 +1    0.0000000 +1
  C(HETATM    2  C   HET A   1)   1.53363741 +1    0.0000000 +1    0.0000000 +1     1     0     0
  C(HETATM    3  C   HET A   1)   1.53361092 +1  111.0244000 +1    0.0000000 +1     2     1     0
  C(HETATM    4  C   HET A   1)   1.54030142 +1  112.3427950 +1   53.1933313 +1     3     2     1
  C(HETATM    5  C   HET A   1)   1.53353512 +1  112.2924459 +1    0.1381925 +1     4     3     2
  C(HETATM    6  C   HET A   1)   1.53354457 +1  110.8922038 +1  -53.5224394 +1     5     4     3
  H(HETATM    8  H   HET A   1)   1.10585413 +1  109.3673719 +1   68.7477035 +1     1     2     3
  H(HETATM    7  H   HET A   1)   1.10499426 +1  109.5315162 +1 -175.6632221 +1     1     2     3
  H(HETATM    9  H   HET A   1)   1.10553780 +1  109.9265211 +1 -121.8486323 +1     2     1     3
  H(HETATM   10  H   HET A   1)   1.10613227 +1  109.9855098 +1  121.9657280 +1     2     1     3
  H(HETATM   11  H   HET A   1)   1.10585451 +1  109.3694441 +1  -68.6852106 +1     3     2     1
  H(HETATM   12  H   HET A   1)   1.10498733 +1  109.5394773 +1  175.7213494 +1     3     2     1
  H(HETATM   14  H   HET A   1)   1.10488875 +1  110.0007875 +1  122.4591470 +1     4     3     2
  H(HETATM   13  H   HET A   1)   1.10589228 +1  109.5573701 +1 -121.5837884 +1     4     3     2
  H(HETATM   15  H   HET A   1)   1.10607306 +1  110.0145350 +1   68.4115092 +1     5     4     3
  H(HETATM   16  H   HET A   1)   1.10549117 +1  109.9630304 +1 -175.3571540 +1     5     4     3
  H(HETATM   17  H   HET A   1)   1.10488689 +1  109.5799769 +1  176.1555279 +1     6     5     4
  H(HETATM   18  H   HET A   1)   1.10595991 +1  109.3569887 +1  -68.2429444 +1     6     5     4
 
 TIME=     0.00
  REACTANTS AND PRODUCTS SWAPPED AROUND
 *+*+*+*+*+*+*+*+*+*+*+*+*+*+*+*+*+*+*+*+*+*+*+*+*+*+*+*+*+*+*+*+*+*+*+*+*+*+*+*+
            BAR SHORTENED BY       1.000 PERCENT
 GRADIENT CRITERION IN FLEPO =     0.221


          FOR POINT  917 SECOND STRUCTURE
 DISTANCE A - B      0.010135
 HEAT              -23.461803
 GRADIENT NORM       0.198886
 DIRECTION COSINE   -0.812065
geo-ok geo_ref="Boat_1.arc" geo_dat="Boat_2.arc" saddle    HTML noswap precise
 Transition state for Cyclohexane boat 1 <=> Cyclohexane boat 2

  C(HETATM    1  C   HET A   1)   0.00000000 +1    0.0000000 +1    0.0000000 +1
  C(HETATM    2  C   HET A   1)   1.53361689 +1    0.0000000 +1    0.0000000 +1     1     0     0
  C(HETATM    3  C   HET A   1)   1.53363071 +1  111.0248103 +1    0.0000000 +1     2     1     0
  C(HETATM    4  C   HET A   1)   1.54029038 +1  112.3452273 +1   53.0889161 +1     3     2     1
  C(HETATM    5  C   HET A   1)   1.53351657 +1  112.2902287 +1    0.3213249 +1     4     3     2
  C(HETATM    6  C   HET A   1)   1.53355885 +1  110.8910453 +1  -53.6259620 +1     5     4     3
  H(HETATM    8  H   HET A   1)   1.10584432 +1  109.3652977 +1   68.6512931 +1     1     2     3
  H(HETATM    7  H   HET A   1)   1.10498931 +1  109.5354264 +1 -175.7599467 +1     1     2     3
  H(HETATM    9  H   HET A   1)   1.10554872 +1  109.9287688 +1 -121.8477075 +1     2     1     3
  H(HETATM   10  H   HET A   1)   1.10614166 +1  109.9845899 +1  121.9662563 +1     2     1     3
  H(HETATM   11  H   HET A   1)   1.10584400 +1  109.3710884 +1  -68.7897206 +1     3     2     1
  H(HETATM   12  H   HET A   1)   1.10496640 +1  109.5362543 +1  175.6185609 +1     3     2     1
  H(HETATM   14  H   HET A   1)   1.10487687 +1  109.9997812 +1  122.6437272 +1     4     3     2
  H(HETATM   13  H   HET A   1)   1.10588775 +1  109.5596488 +1 -121.3976509 +1     4     3     2
  H(HETATM   15  H   HET A   1)   1.10607509 +1  110.0137456 +1   68.3080854 +1     5     4     3
  H(HETATM   16  H   HET A   1)   1.10549608 +1  109.9647773 +1 -175.4590116 +1     5     4     3
  H(HETATM   17  H   HET A   1)   1.10488174 +1  109.5775816 +1  176.0578822 +1     6     5     4
  H(HETATM   18  H   HET A   1)   1.10595638 +1  109.3599300 +1  -68.3416307 +1     6     5     4
 
 TIME=     0.02
  REACTANTS AND PRODUCTS SWAPPED AROUND
 *+*+*+*+*+*+*+*+*+*+*+*+*+*+*+*+*+*+*+*+*+*+*+*+*+*+*+*+*+*+*+*+*+*+*+*+*+*+*+*+
            BAR SHORTENED BY       1.000 PERCENT
 GRADIENT CRITERION IN FLEPO =     0.221


          FOR POINT  918 FIRST  STRUCTURE
 DISTANCE A - B      0.010034
 HEAT              -23.461810
 GRADIENT NORM       0.181335
 DIRECTION COSINE   -0.815843
geo-ok geo_ref="Boat_1.arc" geo_dat="Boat_2.arc" saddle    HTML noswap precise
 Transition state for Cyclohexane boat 1 <=> Cyclohexane boat 2

  C(HETATM    1  C   HET A   1)   0.00000000 +1    0.0000000 +1    0.0000000 +1
  C(HETATM    2  C   HET A   1)   1.53363720 +1    0.0000000 +1    0.0000000 +1     1     0     0
  C(HETATM    3  C   HET A   1)   1.53361111 +1  111.0244041 +1    0.0000000 +1     2     1     0
  C(HETATM    4  C   HET A   1)   1.54030129 +1  112.3428205 +1   53.1922870 +1     3     2     1
  C(HETATM    5  C   HET A   1)   1.53353493 +1  112.2924249 +1    0.1400238 +1     4     3     2
  C(HETATM    6  C   HET A   1)   1.53354470 +1  110.8921922 +1  -53.5234745 +1     5     4     3
  H(HETATM    8  H   HET A   1)   1.10585400 +1  109.3673510 +1   68.7467396 +1     1     2     3
  H(HETATM    7  H   HET A   1)   1.10499419 +1  109.5315553 +1 -175.6641893 +1     1     2     3
  H(HETATM    9  H   HET A   1)   1.10553791 +1  109.9265437 +1 -121.8486231 +1     2     1     3
  H(HETATM   10  H   HET A   1)   1.10613236 +1  109.9855005 +1  121.9657331 +1     2     1     3
  H(HETATM   11  H   HET A   1)   1.10585437 +1  109.3694604 +1  -68.6862559 +1     3     2     1
  H(HETATM   12  H   HET A   1)   1.10498709 +1  109.5394449 +1  175.7203215 +1     3     2     1
  H(HETATM   14  H   HET A   1)   1.10488861 +1  110.0007769 +1  122.4609930 +1     4     3     2
  H(HETATM   13  H   HET A   1)   1.10589221 +1  109.5573924 +1 -121.5819273 +1     4     3     2
  H(HETATM   15  H   HET A   1)   1.10607308 +1  110.0145271 +1   68.4104749 +1     5     4     3
  H(HETATM   16  H   HET A   1)   1.10549122 +1  109.9630480 +1 -175.3581727 +1     5     4     3
  H(HETATM   17  H   HET A   1)   1.10488681 +1  109.5799530 +1  176.1545514 +1     6     5     4
  H(HETATM   18  H   HET A   1)   1.10595985 +1  109.3570180 +1  -68.2439314 +1     6     5     4
 
 TIME=     0.00
  REACTANTS AND PRODUCTS SWAPPED AROUND
 *+*+*+*+*+*+*+*+*+*+*+*+*+*+*+*+*+*+*+*+*+*+*+*+*+*+*+*+*+*+*+*+*+*+*+*+*+*+*+*+
            BAR SHORTENED BY       1.000 PERCENT
 AT END OF REACTION

 -------------------------------------------------------------------------------
geo-ok geo_ref="Boat_1.arc" geo_dat="Boat_2.arc" saddle    HTML noswap precise
 Transition state for Cyclohexane boat 1 <=> Cyclohexane boat 2



     GRADIENTS WERE INITIALLY ACCEPTABLY SMALL                
     SCF FIELD WAS ACHIEVED                                   


                              PM7 CALCULATION
                                                       MOPAC2012 (Version: 15.312W)
                                                       Mon Nov 09 14:05:45 2015
                                                       No. of days left = 364




          FINAL H.O.F PLUS STRESS =        -23.46181 KCAL/MOL =     -98.16421 KJ/MOL
          FINAL STRESS            =          0.00000 KCAL/MOL =       0.00000 KJ/MOL
          FINAL HEAT OF FORMATION =        -23.46181 KCAL/MOL =     -98.16421 KJ/MOL
          TOTAL DISTORTION        =          0.00036 Angstroms
          AVERAGE DISTORTION      =          0.00002 Angstroms per atom (all atoms)
          RMS DISTORTION          =          0.00002 Angstroms per atom (all atoms)


          TOTAL ENERGY            =       -899.53496 EV
          ELECTRONIC ENERGY       =      -4338.98984 EV  POINT GROUP:     C2v 
          CORE-CORE REPULSION     =       3439.45488 EV
          COSMO AREA              =        134.37 SQUARE ANGSTROMS
          COSMO VOLUME            =        127.84 CUBIC ANGSTROMS

          GRADIENT NORM           =          0.17103
          IONIZATION POTENTIAL    =         10.596228 EV
          HOMO LUMO ENERGIES (EV) =        -10.596  4.034
          NO. OF FILLED LEVELS    =         18
          MOLECULAR WEIGHT        =         84.161

          MOLECULAR DIMENSIONS (Angstroms)

            Atom       Atom       Distance
            H    16    H     9     4.90741
            H    17    H    13     4.31409
            H    14    H    10     2.77417


          SCF CALCULATIONS        =       5320
 
          WALL-CLOCK TIME         =         16.004 SECONDS
          COMPUTATION TIME        =  1 MINUTE AND  3.664 SECONDS




   ATOM                 CHEMICAL                   X               Y               Z
  NUMBER                 SYMBOL               (ANGSTROMS)     (ANGSTROMS)     (ANGSTROMS)
 
     1       C(HETATM    1  C   HET A   1)   -0.27572085  *  -0.74815382  *   0.10152714  *
     2       C(HETATM    2  C   HET A   1)    0.68198588  *   0.01444871  *   1.02525742  *
     3       C(HETATM    3  C   HET A   1)    1.80491657  *   0.68290049  *   0.22266008  *
     4       C(HETATM    4  C   HET A   1)    1.26402130  *   1.56468509  *  -0.91857431  *
     5       C(HETATM    5  C   HET A   1)   -0.26841307  *   1.56566200  *  -0.97664981  *
     6       C(HETATM    6  C   HET A   1)   -0.81417428  *   0.13394316  *  -1.04056890  *
     7       H(HETATM    8  H   HET A   1)    0.24570342  *  -1.62600702  *  -0.32321195  *
     8       H(HETATM    7  H   HET A   1)   -1.11584263  *  -1.15353684  *   0.69387162  *
     9       H(HETATM    9  H   HET A   1)    1.11313949  *  -0.67571550  *   1.77358505  *
    10       H(HETATM   10  H   HET A   1)    0.12455968  *   0.77607386  *   1.60208682  *
    11       H(HETATM   11  H   HET A   1)    2.47081919  *  -0.09519921  *  -0.19453073  *
    12       H(HETATM   12  H   HET A   1)    2.43446574  *   1.28715170  *   0.90055702  *
    13       H(HETATM   14  H   HET A   1)    1.63080838  *   2.60040051  *  -0.80221577  *
    14       H(HETATM   13  H   HET A   1)    1.66721789  *   1.20827817  *  -1.88470268  *
    15       H(HETATM   15  H   HET A   1)   -0.68038502  *   2.08877014  *  -0.09345410  *
    16       H(HETATM   16  H   HET A   1)   -0.61241769  *   2.14034967  *  -1.85614161  *
    17       H(HETATM   17  H   HET A   1)   -1.91844658  *   0.15699535  *  -1.01182909  *
    18       H(HETATM   18  H   HET A   1)   -0.54680411  *  -0.31714979  *  -2.01431188  *

                             CARTESIAN COORDINATES

   1    C       -0.275720848    -0.748153823     0.101527142
   2    C        0.681985884     0.014448707     1.025257420
   3    C        1.804916570     0.682900490     0.222660075
   4    C        1.264021298     1.564685088    -0.918574309
   5    C       -0.268413066     1.565661999    -0.976649810
   6    C       -0.814174281     0.133943162    -1.040568902
   7    H        0.245703420    -1.626007022    -0.323211951
   8    H       -1.115842631    -1.153536844     0.693871623
   9    H        1.113139493    -0.675715505     1.773585048
  10    H        0.124559679     0.776073859     1.602086818
  11    H        2.470819192    -0.095199211    -0.194530726
  12    H        2.434465740     1.287151697     0.900557021
  13    H        1.630808383     2.600400514    -0.802215769
  14    H        1.667217885     1.208278165    -1.884702684
  15    H       -0.680385023     2.088770145    -0.093454096
  16    H       -0.612417689     2.140349673    -1.856141615
  17    H       -1.918446584     0.156995345    -1.011829086
  18    H       -0.546804110    -0.317149790    -2.014311876


           Empirical Formula: C6 H12  =    18 atoms



      MOLECULAR POINT GROUP   :   C2v 


                  EIGENVALUES  
 -29.96878 -25.69276 -25.65154 -21.20747 -20.65399 -17.42737 -16.70697 -16.39012
 -14.91106 -13.56842 -13.00927 -12.75109 -12.65961 -12.32824 -11.97868 -10.92761
 -10.73756 -10.59623   4.03445   4.17008   4.46675   4.58460   4.83945   5.34031
   5.50056   5.66981   5.89209   6.04536   6.27613   6.34893   6.48992   6.70337
   6.75880   6.80646   6.84768   6.88233


              NET ATOMIC CHARGES AND DIPOLE CONTRIBUTIONS

  ATOM NO.                 TYPE                        CHARGE      No. of ELECS.   s-Pop       p-Pop       
    1          C(HETATM    1  C   HET A   1)          -0.261695        4.2617     1.05845     3.20324
    2          C(HETATM    2  C   HET A   1)          -0.256682        4.2567     1.05748     3.19920
    3          C(HETATM    3  C   HET A   1)          -0.261683        4.2617     1.05845     3.20323
    4          C(HETATM    4  C   HET A   1)          -0.261709        4.2617     1.05845     3.20326
    5          C(HETATM    5  C   HET A   1)          -0.256677        4.2567     1.05746     3.19921
    6          C(HETATM    6  C   HET A   1)          -0.261686        4.2617     1.05845     3.20324
    7          H(HETATM    8  H   HET A   1)           0.131545        0.8685     0.86846
    8          H(HETATM    7  H   HET A   1)           0.127359        0.8726     0.87264
    9          H(HETATM    9  H   HET A   1)           0.126256        0.8737     0.87374
   10          H(HETATM   10  H   HET A   1)           0.135915        0.8641     0.86409
   11          H(HETATM   11  H   HET A   1)           0.131557        0.8684     0.86844
   12          H(HETATM   12  H   HET A   1)           0.127350        0.8726     0.87265
   13          H(HETATM   14  H   HET A   1)           0.127335        0.8727     0.87266
   14          H(HETATM   13  H   HET A   1)           0.131589        0.8684     0.86841
   15          H(HETATM   15  H   HET A   1)           0.136038        0.8640     0.86396
   16          H(HETATM   16  H   HET A   1)           0.126255        0.8737     0.87374
   17          H(HETATM   17  H   HET A   1)           0.127329        0.8727     0.87267
   18          H(HETATM   18  H   HET A   1)           0.131604        0.8684     0.86840
 DIPOLE           X         Y         Z       TOTAL
 POINT-CHG.    -0.002     0.002     0.004     0.005
 HYBRID         0.010    -0.013    -0.014     0.021
 SUM            0.008    -0.010    -0.010     0.016


          ATOMIC ORBITAL ELECTRON POPULATIONS

                   Atom                  s        px        py        pz   
   C(HETATM    1  C   HET A   1)   1.05845   1.09003   1.06506   1.04816
   C(HETATM    2  C   HET A   1)   1.05748   1.04526   1.10197   1.05197
   C(HETATM    3  C   HET A   1)   1.05845   1.05345   1.09268   1.05711
   C(HETATM    4  C   HET A   1)   1.05845   1.01780   1.10392   1.08153
   C(HETATM    5  C   HET A   1)   1.05746   1.01385   1.03377   1.15160
   C(HETATM    6  C   HET A   1)   1.05845   1.10841   1.01571   1.07911
   H(HETATM    8  H   HET A   1)   0.86846
   H(HETATM    7  H   HET A   1)   0.87264
   H(HETATM    9  H   HET A   1)   0.87374
   H(HETATM   10  H   HET A   1)   0.86409
   H(HETATM   11  H   HET A   1)   0.86844
   H(HETATM   12  H   HET A   1)   0.87265
   H(HETATM   14  H   HET A   1)   0.87266
   H(HETATM   13  H   HET A   1)   0.86841
   H(HETATM   15  H   HET A   1)   0.86396
   H(HETATM   16  H   HET A   1)   0.87374
   H(HETATM   17  H   HET A   1)   0.87267
   H(HETATM   18  H   HET A   1)   0.86840

 **********************
 *                    *
 * JOB ENDED NORMALLY *
 *                    *
 **********************



 TOTAL JOB TIME:            16.02 SECONDS

 == MOPAC DONE ==
