 *******************************************************************************
 ** Site#: 29054        For non-commercial use only    Version 18.018W 64BITS **
 *******************************************************************************
 ** Cite this program as: MOPAC2016, Version: 18.018W, James J. P. Stewart,   **
 ** Stewart Computational Chemistry, web: HTTP://OpenMOPAC.net. Days left: 365**
 *******************************************************************************
 **                                                                           **
 **                                MOPAC2016                                  **
 **                                                                           **
 *******************************************************************************

                              PM7 CALCULATION RESULTS


 *******************************************************************************
 *  CALCULATION DONE:                                Thu Jan 18 12:13:59 2018  *
 *  OPT        - OPTIMIZE COORDINATES OF ALL ATOMS
 *  XYZ        - CARTESIAN COORDINATE SYSTEM TO BE USED
 *  TS         - USE EF ROUTINE FOR TS SEARCH
 *  T=         - A TIME OF 172800.0 SECONDS REQUESTED
 *  DUMP=N     - RESTART FILE WRITTEN EVERY  7200.000 SECONDS
 *******************************************************************************
 TS opt xyz
 Refine transition state for hydrogen migration in propyl radical, and verify using FORCE

   ATOM                 CHEMICAL                   X               Y               Z
  NUMBER                 SYMBOL               (ANGSTROMS)     (ANGSTROMS)     (ANGSTROMS)
 
     1       C(HETATM    1  C1  HET A   1)   -0.01454486  *   0.13889070  *   0.04625270  *
     2       C(HETATM    3  C3  HET A   1)    2.14000580  *   1.51060250  *  -0.03641260  *
     3       H(HETATM    4 1H1  HET A   1)   -0.67741506  *  -0.47693280  *   0.62052640  *
     4       H(HETATM    5 2H1  HET A   1)   -0.51200640  *   0.82227920  *  -0.61241460  *
     5       H(HETATM    7  H2  HET A   1)    1.73276933  *  -0.14981220  *   1.33307850  *
     6       H(HETATM    8 1H3  HET A   1)    1.78334920  *   1.89624490  *  -0.99975130  *
     7       H(HETATM    9 2H3  HET A   1)    2.06412385  *   2.34122920  *   0.68281710  *
     8       H(HETATM   10 3H3  HET A   1)    3.20667280  *   1.27486190  *  -0.14643680  *
     9       C(HETATM    2  C2  HET A   1)    1.35821663  *   0.33485110  *   0.44051946  *
    10       H(HETATM    6 3H1  HET A   1)    1.04489625  *  -0.57946426  *  -0.55314218  *
 

 General Reference for PM7:
 "Optimization of Parameters for Semiempirical Methods VI: More Modifications to the 
 NDDO Approximations and Re-optimization of Parameters", J. J. P. Stewart, J. Mol. Mod., 1:32, 19 (2013)
 http://www.springerlink.com/openurl.asp?genre=article&id=doi:10.1007/s00894-012-1667-x

           Empirical Formula: C3 H7  =    10 atoms



      MOLECULAR POINT GROUP   :   C1  


          UHF CALCULATION, NO. OF ALPHA ELECTRONS =   10
                           NO. OF BETA  ELECTRONS =    9

          Transition state refinement using EF

          HESSIAN CALCULATED NUMERICALLY

 CYCLE:     1 TIME:   0.059 TIME LEFT:  2.00D  GRAD.:     3.848 HEAT:  47.35620
 CYCLE:     2 TIME:   0.000 TIME LEFT:  2.00D  GRAD.:     0.130 HEAT:  47.36245

     GRADIENT =  0.13030  IS LESS THAN CUTOFF =  1.00000



 -------------------------------------------------------------------------------
 TS opt xyz
 Refine transition state for hydrogen migration in propyl radical, and verify using FORCE



     GEOMETRY OPTIMISED USING EIGENVECTOR FOLLOWING (TS).     
     SCF FIELD WAS ACHIEVED                                   


                              PM7 CALCULATION
                                                       MOPAC2016 (Version: 18.018W)
                                                       Thu Jan 18 12:13:59 2018
                                                       No. of days remaining = 365




          FINAL HEAT OF FORMATION =         47.36245 KCAL/MOL =     198.16448 KJ/MOL


          TOTAL ENERGY            =       -460.54852 EV
          ELECTRONIC ENERGY       =      -1511.40736 EV  POINT GROUP:     C1  
          CORE-CORE REPULSION     =       1050.85885 EV
          COSMO AREA              =         93.61 SQUARE ANGSTROMS
          COSMO VOLUME            =         76.23 CUBIC ANGSTROMS

          GRADIENT NORM           =          0.13030
          IONIZATION POTENTIAL    =          7.740097 EV
          ALPHA SOMO LUMO (EV)    =         -7.740  3.490
          BETA  SOMO LUMO (EV)    =        -11.035  1.231
          NO. OF ALPHA ELECTRONS  =         10
          NO. OF BETA  ELECTRONS  =          9
          MOLECULAR WEIGHT        =         43.0883

          MOLECULAR DIMENSIONS (Angstroms)

            Atom       Atom       Distance
            H     8    H     3     4.32971
            H     5    H     4     2.85351
            H     7    H    10     2.74588


          SCF CALCULATIONS        =         33
 
          WALL-CLOCK TIME         =          0.059 SECONDS
          COMPUTATION TIME        =          0.234 SECONDS




   ATOM                 CHEMICAL                   X               Y               Z
  NUMBER                 SYMBOL               (ANGSTROMS)     (ANGSTROMS)     (ANGSTROMS)
 
     1       C(HETATM    1  C1  HET A   1)   -0.01406794  *   0.13795929  *   0.04539768  *
     2       C(HETATM    3  C3  HET A   1)    2.14041476  *   1.51071231  *  -0.03622826  *
     3       H(HETATM    4 1H1  HET A   1)   -0.67764726  *  -0.47713534  *   0.61931709  *
     4       H(HETATM    5 2H1  HET A   1)   -0.51227277  *   0.82184483  *  -0.61196877  *
     5       H(HETATM    7  H2  HET A   1)    1.73314432  *  -0.14956801  *   1.33384708  *
     6       H(HETATM    8 1H3  HET A   1)    1.78291423  *   1.89648574  *  -0.99924615  *
     7       H(HETATM    9 2H3  HET A   1)    2.06540917  *   2.34148881  *   0.68337842  *
     8       H(HETATM   10 3H3  HET A   1)    3.20670026  *   1.27469588  *  -0.14835162  *
     9       C(HETATM    2  C2  HET A   1)    1.35811013  *   0.33595225  *   0.44148895  *
    10       H(HETATM    6 3H1  HET A   1)    1.04145156  *  -0.58037100  *  -0.55333044  *

                             CARTESIAN COORDINATES

   1    C       -0.014067940     0.137959295     0.045397683
   2    C        2.140414755     1.510712308    -0.036228263
   3    H       -0.677647258    -0.477135339     0.619317089
   4    H       -0.512272769     0.821844825    -0.611968767
   5    H        1.733144324    -0.149568015     1.333847077
   6    H        1.782914229     1.896485738    -0.999246151
   7    H        2.065409172     2.341488811     0.683378422
   8    H        3.206700260     1.274695884    -0.148351623
   9    C        1.358110129     0.335952249     0.441488953
  10    H        1.041451558    -0.580371002    -0.553330443


           Empirical Formula: C3 H7  =    10 atoms



      MOLECULAR POINT GROUP   :   C1  


          ALPHA EIGENVALUES  
 -28.14701 -23.92736 -19.16794 -16.03970 -14.96315 -14.29623 -12.89438 -12.19994
 -11.70307  -7.74010   3.48993   4.55613   4.93815   5.77149   5.86895   6.17228
   6.54434   6.87432   7.02032


           BETA EIGENVALUES 
 -28.02891 -23.82029 -18.93961 -15.84788 -14.69499 -14.12905 -12.75265 -12.07129
 -11.03467   1.23068   3.59706   4.75317   5.25972   5.85572   5.94411   6.28032
   6.67701   6.99905   7.08411


              NET ATOMIC CHARGES AND DIPOLE CONTRIBUTIONS

  ATOM NO.                 TYPE                        CHARGE      No. of ELECS.   s-Pop       p-Pop       
    1          C(HETATM    1  C1  HET A   1)          -0.493716        4.4937     1.07295     3.42076
    2          C(HETATM    3  C3  HET A   1)          -0.423084        4.4231     1.04428     3.37880
    3          H(HETATM    4 1H1  HET A   1)           0.152370        0.8476     0.84763
    4          H(HETATM    5 2H1  HET A   1)           0.154508        0.8455     0.84549
    5          H(HETATM    7  H2  HET A   1)           0.148647        0.8514     0.85135
    6          H(HETATM    8 1H3  HET A   1)           0.142934        0.8571     0.85707
    7          H(HETATM    9 2H3  HET A   1)           0.154380        0.8456     0.84562
    8          H(HETATM   10 3H3  HET A   1)           0.141127        0.8589     0.85887
    9          C(HETATM    2  C2  HET A   1)          -0.284664        4.2847     1.06086     3.22380
   10          H(HETATM    6 3H1  HET A   1)           0.307498        0.6925     0.69250

          NET CHARGE ON RESIDUES

      Residue         Charge  Anion or
                              Cation?
      HET A   1       +0.000
 


 DIPOLE           X         Y         Z       TOTAL
 POINT-CHG.     0.656    -0.657    -0.783     1.215
 HYBRID         0.004     0.024    -0.071     0.075
 SUM            0.660    -0.633    -0.855     1.252


          ATOMIC ORBITAL ELECTRON POPULATIONS

                   Atom                  s        px        py        pz   
   C(HETATM    1  C1  HET A   1)   1.07295   1.00143   1.20663   1.21271
   C(HETATM    3  C3  HET A   1)   1.04428   1.12751   1.09035   1.16094
   H(HETATM    4 1H1  HET A   1)   0.84763
   H(HETATM    5 2H1  HET A   1)   0.84549
   H(HETATM    7  H2  HET A   1)   0.85135
   H(HETATM    8 1H3  HET A   1)   0.85707
   H(HETATM    9 2H3  HET A   1)   0.84562
   H(HETATM   10 3H3  HET A   1)   0.85887
   C(HETATM    2  C2  HET A   1)   1.06086   1.04874   1.06999   1.10508
   H(HETATM    6 3H1  HET A   1)   0.69250


                    (SZ)    =    0.500000
                    (S**2)  =    0.768069


          ATOMIC ORBITAL SPIN POPULATIONS

    Atom   Total    s     px     py     pz   
         Atomic
    1  C  0.5888  0.025  0.056  0.255  0.252
    2  C -0.0205 -0.003 -0.006 -0.007 -0.004
    3  H -0.0136 -0.014
    4  H -0.0142 -0.014
    5  H -0.0124 -0.012
    6  H  0.0022  0.002
    7  H  0.0161  0.016
    8  H  0.0046  0.005
    9  C  0.5564  0.023  0.051  0.232  0.251
   10  H -0.1075 -0.107
 *******************************************************************************
 ** Site#: 29054        For non-commercial use only    Version 18.018W 64BITS **
 *******************************************************************************
 ** Cite this program as: MOPAC2016, Version: 18.018W, James J. P. Stewart,   **
 ** Stewart Computational Chemistry, web: HTTP://OpenMOPAC.net. Days left: 365**
 *******************************************************************************
 **                                                                           **
 **                                MOPAC2016                                  **
 **                                                                           **
 *******************************************************************************

                              PM7 CALCULATION RESULTS


 *******************************************************************************
 *  CALCULATION DONE:                                Thu Jan 18 12:13:59 2018  *
 *  OLDGEO     - PREVIOUS GEOMETRY TO BE USED
 *  FORCE      - FORCE CALCULATION SPECIFIED
 *  T=         - A TIME OF 172800.0 SECONDS REQUESTED
 *  DUMP=N     - RESTART FILE WRITTEN EVERY  7200.000 SECONDS
 *  ISOTOPE    - FORCE MATRIX WRITTEN TO DISK (CHAN. 9 )
 *******************************************************************************
oldgeo force isotope
 Refine transition state for hydrogen migration in propyl radical, and verify using FORCE

   ATOM                 CHEMICAL                   X               Y               Z
  NUMBER                 SYMBOL               (ANGSTROMS)     (ANGSTROMS)     (ANGSTROMS)
 
     1       C(HETATM    1  C1  HET A   1)   -0.01406794  *   0.13795929  *   0.04539768  *
     2       C(HETATM    3  C3  HET A   1)    2.14041476  *   1.51071231  *  -0.03622826  *
     3       H(HETATM    4 1H1  HET A   1)   -0.67764726  *  -0.47713534  *   0.61931709  *
     4       H(HETATM    5 2H1  HET A   1)   -0.51227277  *   0.82184483  *  -0.61196877  *
     5       H(HETATM    7  H2  HET A   1)    1.73314432  *  -0.14956801  *   1.33384708  *
     6       H(HETATM    8 1H3  HET A   1)    1.78291423  *   1.89648574  *  -0.99924615  *
     7       H(HETATM    9 2H3  HET A   1)    2.06540917  *   2.34148881  *   0.68337842  *
     8       H(HETATM   10 3H3  HET A   1)    3.20670026  *   1.27469588  *  -0.14835162  *
     9       C(HETATM    2  C2  HET A   1)    1.35811013  *   0.33595225  *   0.44148895  *
    10       H(HETATM    6 3H1  HET A   1)    1.04145156  *  -0.58037100  *  -0.55333044  *
 

 General Reference for PM7:
 "Optimization of Parameters for Semiempirical Methods VI: More Modifications to the 
 NDDO Approximations and Re-optimization of Parameters", J. J. P. Stewart, J. Mol. Mod., 1:32, 19 (2013)
 http://www.springerlink.com/openurl.asp?genre=article&id=doi:10.1007/s00894-012-1667-x

           Empirical Formula: C3 H7  =    10 atoms



      MOLECULAR POINT GROUP   :   C1  


          UHF CALCULATION, NO. OF ALPHA ELECTRONS =   10
                           NO. OF BETA  ELECTRONS =    9


          HEAT OF FORMATION =      47.362448 KCALS/MOLE


          CARTESIAN COORDINATE DERIVATIVES

   NUMBER  ATOM         X            Y            Z

     1       C      0.049718     0.007621    -0.050648
     2       C      0.043556     0.033141    -0.037400
     3       H     -0.018917    -0.029291     0.022672
     4       H     -0.024956    -0.007213     0.025103
     5       H     -0.009827    -0.012644     0.010719
     6       H     -0.018550    -0.010087     0.011246
     7       H     -0.014026    -0.002586    -0.001620
     8       H     -0.022790    -0.015546     0.010814
     9       C      0.062493     0.028548     0.020234
    10       H     -0.046703     0.008057    -0.011120
 


          GRADIENT NORM =   0.14850

          MOLECULAR WEIGHT =   43.09



          ROTATIONAL CONSTANTS IN CM(-1)

          A =    1.26988282   B =    0.29069412   C =    0.25971973



           PRINCIPAL MOMENTS OF INERTIA IN UNITS OF 10**(-40)*GRAM-CM**2

          A =       22.0436   B =       96.2963   C =      107.7807


          ORIENTATION OF MOLECULE IN FORCE CALCULATION

    NO.       ATOM         X         Y         Z

     1          C      -1.2856   -0.1768   -0.1422
     2          C       1.2704   -0.1768   -0.1422
     3          H      -2.1936    0.3920   -0.1422
     4          H      -1.3172   -1.0489   -0.7638
     5          H      -0.0084    1.4347    0.6109
     6          H       1.2070   -1.2498   -0.3629
     7          H       1.6304    0.3131   -1.0610
     8          H       2.0460   -0.0405    0.6227
     9          C      -0.0353    0.4039    0.2801
    10          H      -0.7625   -0.4005    1.1481


    FIRST DERIVATIVES WILL BE USED IN THE CALCULATION OF SECOND DERIVATIVES

    FOR POINT-GROUP C1   THERE ARE   1 UNIQUE SYMMETRY FUNCTIONS.

 STEP:   1 TIME =     0.00 SECS, INTEGRAL =      0.00 TIME LEFT: 172800.00
 STEP:   2 TIME =     0.00 SECS, INTEGRAL =      0.00 TIME LEFT: 172800.00
 STEP:   3 TIME =     0.02 SECS, INTEGRAL =      0.02 TIME LEFT: 172799.98
 STEP:   4 TIME =     0.00 SECS, INTEGRAL =      0.02 TIME LEFT: 172799.98
 STEP:   5 TIME =     0.00 SECS, INTEGRAL =      0.02 TIME LEFT: 172799.98
 STEP:   6 TIME =     0.00 SECS, INTEGRAL =      0.02 TIME LEFT: 172799.98
 STEP:   7 TIME =     0.02 SECS, INTEGRAL =      0.03 TIME LEFT: 172799.97
 STEP:   8 TIME =     0.00 SECS, INTEGRAL =      0.03 TIME LEFT: 172799.97
 STEP:   9 TIME =     0.00 SECS, INTEGRAL =      0.03 TIME LEFT: 172799.97
 STEP:  10 TIME =     0.00 SECS, INTEGRAL =      0.03 TIME LEFT: 172799.97
 STEP:  11 TIME =     0.00 SECS, INTEGRAL =      0.03 TIME LEFT: 172799.97
 STEP:  12 TIME =     0.02 SECS, INTEGRAL =      0.05 TIME LEFT: 172799.95
 STEP:  13 TIME =     0.00 SECS, INTEGRAL =      0.05 TIME LEFT: 172799.95
 STEP:  14 TIME =     0.00 SECS, INTEGRAL =      0.05 TIME LEFT: 172799.95
 STEP:  15 TIME =     0.00 SECS, INTEGRAL =      0.05 TIME LEFT: 172799.95
 STEP:  16 TIME =     0.00 SECS, INTEGRAL =      0.05 TIME LEFT: 172799.95
 STEP:  17 TIME =     0.01 SECS, INTEGRAL =      0.06 TIME LEFT: 172799.94
 STEP:  18 TIME =     0.00 SECS, INTEGRAL =      0.06 TIME LEFT: 172799.94
 STEP:  19 TIME =     0.00 SECS, INTEGRAL =      0.06 TIME LEFT: 172799.94
 STEP:  20 TIME =     0.00 SECS, INTEGRAL =      0.06 TIME LEFT: 172799.94
 STEP:  21 TIME =     0.02 SECS, INTEGRAL =      0.08 TIME LEFT: 172799.92
 STEP:  22 TIME =     0.00 SECS, INTEGRAL =      0.08 TIME LEFT: 172799.92
 STEP:  23 TIME =     0.00 SECS, INTEGRAL =      0.08 TIME LEFT: 172799.92
 STEP:  24 TIME =     0.00 SECS, INTEGRAL =      0.08 TIME LEFT: 172799.92
 STEP:  25 TIME =     0.00 SECS, INTEGRAL =      0.08 TIME LEFT: 172799.92
 STEP:  26 TIME =     0.02 SECS, INTEGRAL =      0.09 TIME LEFT: 172799.91
 STEP:  27 TIME =     0.00 SECS, INTEGRAL =      0.09 TIME LEFT: 172799.91
 STEP:  28 TIME =     0.00 SECS, INTEGRAL =      0.09 TIME LEFT: 172799.91
 STEP:  29 TIME =     0.00 SECS, INTEGRAL =      0.09 TIME LEFT: 172799.91
 STEP:  30 TIME =     0.01 SECS, INTEGRAL =      0.11 TIME LEFT: 172799.89

(To convert to Hartree/Bohr^2, multiply by (10^(-21) x N x a0^2)/(4.184 x 627.51) =  0.0642)


           FORCE MATRIX IN MILLIDYNES/ANGSTROM


                  C  1       C  2       H  3       H  4       H  5       H  6
 ------------------------------------------------------------------------------
     C    1  11.155267
     C    2   0.665901  11.666702
     H    3   3.616732   0.049942   4.339883
     H    4   3.621400   0.024487   0.459332   4.343792
     H    5   0.662037   0.673025   0.019359   0.057705   4.386094
     H    6   0.009359   3.419654   0.002970   0.016841   0.045385   4.226878
     H    7   0.016806   3.373831   0.005003   0.006747   0.015083   0.464426
     H    8   0.043471   3.406800   0.008669   0.003209   0.017567   0.465440
     C    9   7.310675   3.909148   0.657013   0.656730   3.490279   0.709425
     H   10   3.107432   0.366478   0.253615   0.241880   0.259161   0.021331


                  H  7       H  8       C  9       H 10
 ------------------------------------------------------
     H    7   4.188607
     H    8   0.467766   4.217861
     C    9   0.724037   0.716901  12.156818
     H   10   0.032195   0.013907   3.250986   3.600607


          HEAT OF FORMATION =      47.362448 KCALS/MOLE

          ZERO POINT ENERGY      49.911 KCAL/MOL

         NOTE: SYSTEM IS NOT A GROUND STATE, THEREFORE ZERO POINT
         ENERGY IS NOT MEANINGFULL. ZERO POINT ENERGY PRINTED
         DOES NOT INCLUDE THE  1 IMAGINARY FREQUENCIES


           NORMAL COORDINATE ANALYSIS (Total motion = 1 Angstrom)


   Root No.       1         2         3         4         5         6         7         8

                 1 A       2 A       3 A       4 A       5 A       6 A       7 A       8 A   

               -2139.9     113.6     393.3     480.5     857.6     929.0    1010.1    1025.0
  
           1   -0.0183    0.0023    0.0545    0.0154   -0.0033   -0.0327   -0.0184    0.0354
           2    0.0160    0.0139   -0.0179   -0.0113    0.0033    0.0240    0.0031    0.0212
           3   -0.0642   -0.0192   -0.0170    0.0021   -0.0001    0.0090   -0.0348   -0.0211
           4    0.0018   -0.0016   -0.0501   -0.0160   -0.0017    0.0254    0.0382   -0.0425
           5    0.0001    0.0020   -0.0151   -0.0150    0.0058   -0.0177    0.0048   -0.0251
           6   -0.0024   -0.0029   -0.0185    0.0118   -0.0070   -0.0144    0.0281    0.0165
           7   -0.0149    0.0050    0.0236   -0.0606    0.0003   -0.1532   -0.0766   -0.0041
           8   -0.0131    0.0182   -0.0724   -0.1333    0.0023   -0.1967   -0.0914   -0.0424
           9    0.0283    0.0008   -0.1409    0.2328   -0.0618   -0.0273    0.1349    0.1398
          10   -0.0081    0.0066    0.1649    0.0565   -0.0189    0.1999   -0.0836   -0.0254
          11   -0.0225    0.0483   -0.0556    0.1124   -0.1052    0.0182   -0.0855   -0.0810
          12    0.0212   -0.0678    0.0249   -0.1731    0.1504   -0.0206    0.1009    0.1281
          13   -0.0033    0.0022    0.0028   -0.0093    0.0018    0.0877   -0.0307    0.0654
          14    0.0072   -0.0330    0.0416    0.0303   -0.0909   -0.0340    0.0016   -0.0114
          15   -0.0347    0.0813    0.0385    0.0020    0.3012    0.0822    0.0253    0.0177
          16    0.0031    0.0543   -0.1343   -0.0659   -0.0497    0.1024   -0.1092    0.1657
          17   -0.0003   -0.0430   -0.0079   -0.0216   -0.0075   -0.0146    0.0185   -0.0059
          18   -0.0022    0.2015   -0.0405    0.0495    0.0509   -0.0114   -0.0343   -0.0641
          19   -0.0046   -0.1363   -0.0832    0.0400    0.0936    0.0329   -0.0878   -0.1377
          20    0.0010   -0.1397   -0.0213   -0.0712   -0.0745    0.0174    0.0010    0.1273
          21    0.0016   -0.1318   -0.0354    0.0072   -0.0033    0.0093   -0.0322    0.0394
          22   -0.0001    0.0698    0.0079   -0.0333   -0.0466   -0.0102    0.1789   -0.0587
          23    0.0006    0.1990   -0.0866   -0.0325   -0.0062    0.0326   -0.1109    0.1017
          24   -0.0023   -0.1108   -0.0686    0.0330    0.0453    0.0167   -0.1218    0.0194
          25   -0.0349    0.0004    0.0006   -0.0034   -0.0018   -0.0073    0.0027    0.0066
          26   -0.0391   -0.0152    0.0450    0.0440    0.0208   -0.0020    0.0122   -0.0019
          27    0.0462    0.0265    0.0513   -0.0225   -0.0301   -0.0024    0.0030   -0.0174
          28    0.6402   -0.0150   -0.0407    0.1207    0.1003   -0.0860   -0.0595    0.0005
          29    0.3023   -0.0579    0.0594   -0.0953   -0.0753    0.1254    0.0268   -0.0185
          30    0.2323   -0.0251    0.0337   -0.0487   -0.0406    0.0443   -0.0280   -0.0181


   Root No.       9        10        11        12        13        14        15        16

                 9 A      10 A      11 A      12 A      13 A      14 A      15 A      16 A   

                1062.7    1084.8    1206.1    1283.4    1290.1    1293.0    1369.7    1391.7
  
           1    0.0244    0.0067   -0.0169   -0.0159   -0.0091    0.0069   -0.0291   -0.0168
           2   -0.0233    0.0234   -0.0437   -0.0209   -0.0139    0.0096   -0.0157   -0.0085
           3   -0.0135   -0.0252   -0.0191   -0.0083   -0.0045    0.0035   -0.0158   -0.0053
           4   -0.0141    0.0003    0.0489   -0.0155    0.0149    0.0031    0.0103   -0.0630
           5    0.0185    0.0143   -0.0604    0.0064    0.0311    0.0058    0.0001    0.0267
           6   -0.0106   -0.0355   -0.0370   -0.0086    0.0055   -0.0277    0.0004    0.0164
           7    0.0469   -0.0485    0.0374   -0.0089   -0.0046    0.0078    0.1496   -0.0120
           8    0.0342   -0.0712    0.0717   -0.0089   -0.0038    0.0106    0.2712   -0.0068
           9    0.1506    0.0977    0.0180   -0.0240   -0.0168    0.0163    0.2083   -0.0085
          10   -0.0968   -0.0110   -0.1843   -0.0611   -0.0452    0.0353    0.3417   -0.0158
          11    0.0313   -0.0810   -0.0089   -0.0136   -0.0056    0.0018   -0.0800   -0.0042
          12   -0.0636    0.1212   -0.0285   -0.0148   -0.0119    0.0113    0.0591   -0.0077
          13    0.0170   -0.0210   -0.0376    0.3245    0.2228   -0.1428    0.0717    0.0078
          14   -0.0531    0.0393    0.0639    0.0047    0.0075   -0.0047   -0.0039    0.0130
          15    0.1235   -0.1229    0.0598   -0.0270   -0.0169    0.0133   -0.0045    0.0016
          16   -0.0460   -0.0276    0.2101   -0.0816    0.0777    0.1067    0.0053    0.3043
          17    0.0047   -0.0084   -0.0433   -0.0205    0.0245   -0.0661    0.0039    0.0094
          18    0.0365    0.0658   -0.0292    0.1694   -0.0397    0.2769   -0.0117   -0.0372
          19    0.0601    0.1554    0.0494    0.0674   -0.1828   -0.0988    0.0221    0.1875
          20   -0.0363   -0.0848    0.0380    0.1564   -0.1336    0.1496   -0.0211   -0.1531
          21   -0.0043   -0.0050    0.0264    0.1073   -0.1514    0.0241   -0.0033    0.0111
          22   -0.0521   -0.0965   -0.0244    0.0568   -0.1180   -0.0059    0.0303    0.1471
          23    0.0070    0.0156    0.0604    0.0134   -0.1626   -0.2469   -0.0154   -0.1543
          24    0.0377    0.0795    0.0206   -0.0690    0.1630    0.0376   -0.0244   -0.1487
          25    0.0081    0.0019   -0.0340    0.0050   -0.0023   -0.0016   -0.0310    0.0271
          26   -0.0150   -0.0156    0.0868    0.0058    0.0071   -0.0031    0.0042    0.0056
          27   -0.0083    0.0436    0.0520    0.0076    0.0069   -0.0084   -0.0026    0.0063
          28   -0.1496   -0.0567   -0.0258    0.0170    0.0083   -0.0022   -0.0279    0.0096
          29    0.2480   -0.0731    0.0238   -0.0272   -0.0170    0.0097   -0.0184    0.0121
          30    0.1061   -0.0332   -0.0178   -0.0316   -0.0199    0.0095   -0.0084   -0.0173


   Root No.      17        18        19        20        21        22        23        24

                17 A      18 A      19 A      20 A      21 A      22 A      23 A      24 A   

                1452.6    2249.3    2669.5    2678.1    2730.8    2764.7    2781.1    2796.1
  
           1   -0.0898   -0.0264   -0.0003    0.0009   -0.0227    0.0074    0.0044   -0.0244
           2   -0.0357    0.0005   -0.0000    0.0006    0.0366   -0.0111   -0.0020   -0.0100
           3   -0.0238   -0.0390   -0.0004    0.0004    0.0161   -0.0036    0.0008   -0.0157
           4   -0.0254   -0.0005    0.0011   -0.0239    0.0000   -0.0070    0.0153    0.0031
           5   -0.0031   -0.0010    0.0299   -0.0332   -0.0019   -0.0023   -0.0090   -0.0022
           6    0.0004    0.0002   -0.0360   -0.0286   -0.0006    0.0001   -0.0052   -0.0014
           7   -0.0270   -0.0107   -0.0017    0.0007    0.3167   -0.1103   -0.0691    0.3073
           8    0.0364   -0.0037    0.0008   -0.0000   -0.1747    0.0625    0.0407   -0.1913
           9    0.0167   -0.0092    0.0002    0.0001    0.0116   -0.0025   -0.0004   -0.0040
          10    0.0679   -0.0110    0.0000    0.0001   -0.0333    0.0101    0.0018    0.0130
          11   -0.0379   -0.0032   -0.0011   -0.0015   -0.2974    0.0561   -0.0242    0.3146
          12   -0.0189   -0.0100   -0.0005   -0.0013   -0.2166    0.0422   -0.0161    0.2196
          13   -0.1244    0.0097    0.0018   -0.0048    0.0029    0.0140    0.0026    0.0037
          14    0.0247    0.0033    0.0231   -0.0634    0.1604    0.4080    0.1312    0.0645
          15    0.0178   -0.0053    0.0074   -0.0205    0.0531    0.1354    0.0438    0.0212
          16   -0.0587    0.0047   -0.0076    0.0030   -0.0005   -0.0083    0.0142    0.0018
          17   -0.0047    0.0053   -0.2194    0.4075    0.0065   -0.0642    0.2504    0.0488
          18    0.0084    0.0017   -0.0682    0.0736    0.0012   -0.0127    0.0513    0.0103
          19   -0.0921   -0.0021   -0.1727   -0.0169    0.0036    0.0356   -0.0723   -0.0130
          20    0.0697    0.0110   -0.1963   -0.0227    0.0043    0.0479   -0.0997   -0.0178
          21   -0.0034   -0.0112    0.3934   -0.0047   -0.0103   -0.0937    0.1850    0.0329
          22   -0.1120   -0.0021    0.1613    0.3123    0.0118    0.0917   -0.1640   -0.0260
          23    0.0858    0.0015    0.0406    0.0331    0.0011    0.0141   -0.0299   -0.0052
          24    0.1022    0.0061    0.1324    0.2923    0.0111    0.0899   -0.1629   -0.0262
          25    0.1408    0.0356    0.0009   -0.0018   -0.0022   -0.0027    0.0045   -0.0017
          26    0.0185    0.0296   -0.0001    0.0027   -0.0097   -0.0296   -0.0112   -0.0054
          27    0.0213   -0.0210   -0.0031   -0.0001   -0.0031   -0.0101   -0.0044   -0.0031
          28    0.0411   -0.0917   -0.0016    0.0016   -0.0060   -0.0057   -0.0002   -0.0128
          29    0.0690   -0.3611   -0.0030    0.0030    0.0010   -0.0115   -0.0034   -0.0033
          30   -0.0965    0.7415    0.0063   -0.0028    0.0031    0.0034    0.0036   -0.0126


           MASS-WEIGHTED COORDINATE ANALYSIS (NORMAL COORDINATES)


   Root No.       1         2         3         4         5         6         7         8

                 1 A       2 A       3 A       4 A       5 A       6 A       7 A       8 A   

               -2139.9     113.6     393.3     480.5     857.6     929.0    1010.1    1025.0
  
           1   -0.0768    0.0181    0.3827    0.1171   -0.0261   -0.2571   -0.1447    0.2769
           2    0.0673    0.1089   -0.1259   -0.0860    0.0258    0.1888    0.0242    0.1658
           3   -0.2703   -0.1505   -0.1193    0.0159   -0.0005    0.0707   -0.2740   -0.1647
           4    0.0076   -0.0123   -0.3520   -0.1217   -0.0131    0.1997    0.3005   -0.3326
           5    0.0002    0.0153   -0.1061   -0.1138    0.0456   -0.1391    0.0380   -0.1966
           6   -0.0102   -0.0230   -0.1297    0.0894   -0.0543   -0.1129    0.2212    0.1288
           7   -0.0182    0.0113    0.0481   -0.1334    0.0006   -0.3483   -0.1746   -0.0093
           8   -0.0160    0.0411   -0.1472   -0.2931    0.0052   -0.4474   -0.2084   -0.0960
           9    0.0345    0.0018   -0.2867    0.5120   -0.1400   -0.0622    0.3074    0.3166
          10   -0.0099    0.0149    0.3355    0.1241   -0.0428    0.4545   -0.1905   -0.0574
          11   -0.0274    0.1094   -0.1131    0.2473   -0.2381    0.0413   -0.1949   -0.1835
          12    0.0258   -0.1535    0.0507   -0.3806    0.3403   -0.0469    0.2299    0.2902
          13   -0.0040    0.0050    0.0057   -0.0205    0.0040    0.1996   -0.0699    0.1482
          14    0.0088   -0.0747    0.0847    0.0667   -0.2056   -0.0773    0.0037   -0.0258
          15   -0.0423    0.1841    0.0784    0.0045    0.6818    0.1869    0.0577    0.0400
          16    0.0037    0.1229   -0.2733   -0.1449   -0.1126    0.2328   -0.2489    0.3752
          17   -0.0003   -0.0975   -0.0160   -0.0474   -0.0170   -0.0332    0.0422   -0.0134
          18   -0.0027    0.4563   -0.0824    0.1088    0.1151   -0.0259   -0.0781   -0.1451
          19   -0.0056   -0.3087   -0.1693    0.0879    0.2119    0.0749   -0.2000   -0.3118
          20    0.0013   -0.3163   -0.0434   -0.1566   -0.1686    0.0395    0.0023    0.2882
          21    0.0019   -0.2986   -0.0721    0.0158   -0.0076    0.0212   -0.0735    0.0893
          22   -0.0001    0.1580    0.0161   -0.0731   -0.1054   -0.0233    0.4077   -0.1329
          23    0.0008    0.4507   -0.1762   -0.0714   -0.0139    0.0742   -0.2529    0.2304
          24   -0.0028   -0.2509   -0.1396    0.0725    0.1025    0.0381   -0.2776    0.0439
          25   -0.1469    0.0030    0.0042   -0.0260   -0.0138   -0.0570    0.0214    0.0520
          26   -0.1647   -0.1189    0.3160    0.3342    0.1628   -0.0157    0.0961   -0.0150
          27    0.1943    0.2075    0.3600   -0.1708   -0.2349   -0.0192    0.0233   -0.1362
          28    0.7803   -0.0340   -0.0828    0.2655    0.2271   -0.1955   -0.1356    0.0011
          29    0.3685   -0.1311    0.1209   -0.2097   -0.1705    0.2853    0.0612   -0.0419
          30    0.2830   -0.0569    0.0686   -0.1071   -0.0918    0.1007   -0.0639   -0.0410


   Root No.       9        10        11        12        13        14        15        16

                 9 A      10 A      11 A      12 A      13 A      14 A      15 A      16 A   

                1062.7    1084.8    1206.1    1283.4    1290.1    1293.0    1369.7    1391.7
  
           1    0.1914    0.0552   -0.0968   -0.1189   -0.0665    0.0502   -0.1819   -0.1070
           2   -0.1825    0.1931   -0.2502   -0.1568   -0.1018    0.0700   -0.0983   -0.0542
           3   -0.1059   -0.2077   -0.1093   -0.0623   -0.0329    0.0257   -0.0989   -0.0338
           4   -0.1101    0.0021    0.2799   -0.1165    0.1091    0.0230    0.0644   -0.4006
           5    0.1450    0.1183   -0.3461    0.0479    0.2282    0.0427    0.0006    0.1700
           6   -0.0829   -0.2924   -0.2121   -0.0641    0.0403   -0.2030    0.0025    0.1041
           7    0.1063   -0.1159    0.0620   -0.0193   -0.0097    0.0165    0.2712   -0.0221
           8    0.0776   -0.1702    0.1190   -0.0194   -0.0080    0.0224    0.4917   -0.0125
           9    0.3417    0.2333    0.0299   -0.0520   -0.0357    0.0345    0.3776   -0.0157
          10   -0.2195   -0.0262   -0.3059   -0.1327   -0.0960    0.0748    0.6196   -0.0291
          11    0.0710   -0.1936   -0.0148   -0.0294   -0.0120    0.0038   -0.1451   -0.0078
          12   -0.1442    0.2897   -0.0473   -0.0321   -0.0252    0.0240    0.1072   -0.0142
          13    0.0386   -0.0501   -0.0624    0.7047    0.4729   -0.3027    0.1300    0.0144
          14   -0.1204    0.0939    0.1060    0.0103    0.0160   -0.0100   -0.0072    0.0240
          15    0.2801   -0.2937    0.0993   -0.0587   -0.0359    0.0281   -0.0081    0.0029
          16   -0.1043   -0.0659    0.3486   -0.1772    0.1649    0.2261    0.0095    0.5604
          17    0.0107   -0.0200   -0.0718   -0.0445    0.0520   -0.1400    0.0070    0.0174
          18    0.0828    0.1572   -0.0485    0.3678   -0.0843    0.5869   -0.0213   -0.0686
          19    0.1363    0.3713    0.0820    0.1463   -0.3880   -0.2094    0.0401    0.3452
          20   -0.0823   -0.2027    0.0631    0.3397   -0.2836    0.3170   -0.0383   -0.2819
          21   -0.0097   -0.0119    0.0438    0.2330   -0.3215    0.0510   -0.0060    0.0204
          22   -0.1181   -0.2307   -0.0405    0.1233   -0.2505   -0.0124    0.0550    0.2709
          23    0.0160    0.0374    0.1003    0.0291   -0.3451   -0.5233   -0.0279   -0.2841
          24    0.0855    0.1899    0.0342   -0.1498    0.3461    0.0796   -0.0443   -0.2738
          25    0.0635    0.0160   -0.1951    0.0378   -0.0169   -0.0118   -0.1939    0.1724
          26   -0.1175   -0.1290    0.4975    0.0432    0.0523   -0.0230    0.0262    0.0357
          27   -0.0652    0.3596    0.2978    0.0571    0.0502   -0.0614   -0.0166    0.0400
          28   -0.3393   -0.1355   -0.0429    0.0369    0.0177   -0.0047   -0.0506    0.0176
          29    0.5625   -0.1747    0.0395   -0.0591   -0.0361    0.0206   -0.0334    0.0223
          30    0.2406   -0.0792   -0.0296   -0.0687   -0.0423    0.0201   -0.0151   -0.0318


   Root No.      17        18        19        20        21        22        23        24

                17 A      18 A      19 A      20 A      21 A      22 A      23 A      24 A   

                1452.6    2249.3    2669.5    2678.1    2730.8    2764.7    2781.1    2796.1
  
           1   -0.4570   -0.1056   -0.0016    0.0051   -0.1376    0.0508    0.0335   -0.1535
           2   -0.1818    0.0022   -0.0003    0.0032    0.2225   -0.0762   -0.0155   -0.0630
           3   -0.1214   -0.1560   -0.0024    0.0025    0.0976   -0.0247    0.0061   -0.0987
           4   -0.1295   -0.0019    0.0062   -0.1321    0.0002   -0.0480    0.1172    0.0193
           5   -0.0159   -0.0039    0.1752   -0.1832   -0.0115   -0.0156   -0.0695   -0.0137
           6    0.0020    0.0007   -0.2108   -0.1582   -0.0038    0.0005   -0.0396   -0.0089
           7   -0.0398   -0.0124   -0.0029    0.0011    0.5573   -0.2187   -0.1537    0.5604
           8    0.0536   -0.0042    0.0014   -0.0000   -0.3074    0.1239    0.0905   -0.3489
           9    0.0247   -0.0107    0.0003    0.0001    0.0205   -0.0050   -0.0008   -0.0073
          10    0.1002   -0.0127    0.0000    0.0002   -0.0585    0.0201    0.0040    0.0237
          11   -0.0559   -0.0037   -0.0019   -0.0023   -0.5233    0.1112   -0.0537    0.5737
          12   -0.0279   -0.0116   -0.0009   -0.0021   -0.3811    0.0837   -0.0359    0.4004
          13   -0.1834    0.0112    0.0030   -0.0076    0.0051    0.0277    0.0058    0.0067
          14    0.0364    0.0038    0.0392   -0.1015    0.2823    0.8090    0.2920    0.1176
          15    0.0263   -0.0062    0.0125   -0.0328    0.0934    0.2684    0.0975    0.0386
          16   -0.0865    0.0054   -0.0129    0.0048   -0.0009   -0.0165    0.0317    0.0032
          17   -0.0069    0.0061   -0.3718    0.6519    0.0114   -0.1273    0.5572    0.0889
          18    0.0123    0.0020   -0.1155    0.1177    0.0021   -0.0251    0.1142    0.0187
          19   -0.1358   -0.0025   -0.2928   -0.0270    0.0064    0.0706   -0.1608   -0.0237
          20    0.1028    0.0128   -0.3327   -0.0363    0.0075    0.0949   -0.2217   -0.0325
          21   -0.0051   -0.0129    0.6668   -0.0075   -0.0181   -0.1858    0.4115    0.0600
          22   -0.1652   -0.0024    0.2734    0.4996    0.0208    0.1819   -0.3648   -0.0474
          23    0.1266    0.0017    0.0689    0.0529    0.0019    0.0280   -0.0665   -0.0095
          24    0.1508    0.0070    0.2244    0.4676    0.0196    0.1782   -0.3624   -0.0478
          25    0.7170    0.1421    0.0054   -0.0102   -0.0131   -0.0184    0.0343   -0.0105
          26    0.0939    0.1181   -0.0005    0.0150   -0.0587   -0.2028   -0.0860   -0.0343
          27    0.1082   -0.0839   -0.0180   -0.0003   -0.0191   -0.0689   -0.0337   -0.0198
          28    0.0605   -0.1061   -0.0027    0.0026   -0.0105   -0.0113   -0.0005   -0.0234
          29    0.1017   -0.4179   -0.0051    0.0048    0.0017   -0.0228   -0.0075   -0.0061
          30   -0.1423    0.8580    0.0107   -0.0045    0.0054    0.0068    0.0080   -0.0229


          DESCRIPTION OF VIBRATIONS


 VIBRATION    1    1A       ATOM PAIR        ENERGY CONTRIBUTION    RADIAL
 FREQ.     -2139.88        C  9 --  H 10          -50.4% (-90.4%)    47.4%
 T-DIPOLE    0.7908        C  1 --  H 10          -49.9% (-90.0%)    53.3%
 TRAVEL      0.1276        C  1 --  C  9           -0.9% (-12.1%)     0.1%
 RED. MASS   0.8589        H  5 --  C  9           -0.4% ( -8.1%)     8.7%
 EFF. MASS   1.9368

 VIBRATION    2    2A       ATOM PAIR        ENERGY CONTRIBUTION    RADIAL
 FREQ.       113.61        C  2 --  H  8          +33.2% (456.1%)     0.1%
 T-DIPOLE    0.1064        C  2 --  H  7          +32.4% (450.8%)     0.1%
 TRAVEL      0.3144        C  2 --  H  6          +28.1% (420.2%)     0.0%
 RED. MASS   0.2788        C  9 --  H 10           +3.5% (148.9%)    27.0%
 EFF. MASS   6.0031

 VIBRATION    3    3A       ATOM PAIR        ENERGY CONTRIBUTION    RADIAL
 FREQ.       393.34        C  2 --  C  9          +16.1% (151.2%)     0.0%
 T-DIPOLE    0.2375        C  1 --  C  9          +15.9% (150.1%)     0.0%
 TRAVEL      0.0852        C  1 --  H  4          +11.2% (126.0%)    37.0%
 RED. MASS   1.3236        C  9 --  H 10          +10.8% (123.7%)     0.4%
 EFF. MASS  23.5910

 VIBRATION    4    4A       ATOM PAIR        ENERGY CONTRIBUTION    RADIAL
 FREQ.       480.47        C  1 --  H  3          +22.2% ( 97.3%)     3.0%
 T-DIPOLE    0.3214        C  9 --  H 10          +20.3% ( 93.1%)    10.6%
 TRAVEL      0.1763        C  1 --  H  4          +15.5% ( 81.3%)     0.6%
 RED. MASS   0.4643        C  2 --  C  9           +9.6% ( 64.0%)     0.1%
 EFF. MASS   4.5142

 VIBRATION    5    5A       ATOM PAIR        ENERGY CONTRIBUTION    RADIAL
 FREQ.       857.58        H  5 --  C  9          +48.5% ( 76.3%)     0.5%
 T-DIPOLE    0.7545        C  1 --  H  4          +12.2% ( 38.3%)     0.2%
 TRAVEL      0.2250        C  9 --  H 10          +11.6% ( 37.2%)    12.9%
 RED. MASS   0.3857        C  2 --  H  7          +11.4% ( 37.0%)     3.7%
 EFF. MASS   1.5526

 VIBRATION    6    6A       ATOM PAIR        ENERGY CONTRIBUTION    RADIAL
 FREQ.       928.97        C  1 --  H  3          +26.5% ( 73.5%)    15.7%
 T-DIPOLE    0.2053        C  1 --  H  4          +24.0% ( 69.9%)     5.2%
 TRAVEL      0.1497        C  1 --  H 10          +10.6% ( 46.5%)     8.7%
 RED. MASS   0.3774        C  2 --  H  6           +6.6% ( 36.8%)    76.1%
 EFF. MASS   3.2381

 VIBRATION    7    7A       ATOM PAIR        ENERGY CONTRIBUTION    RADIAL
 FREQ.      1010.15        C  2 --  H  8          +30.0% ( 68.4%)    27.5%
 T-DIPOLE    0.5516        C  2 --  H  6          +17.1% ( 51.6%)     2.0%
 TRAVEL      0.1365        C  2 --  H  7          +14.1% ( 47.0%)     1.3%
 RED. MASS   0.4989        C  1 --  H  3          +10.6% ( 40.6%)     2.5%
 EFF. MASS   3.5833

 VIBRATION    8    8A       ATOM PAIR        ENERGY CONTRIBUTION    RADIAL
 FREQ.      1025.04        C  2 --  H  6          +23.8% ( 65.4%)     4.5%
 T-DIPOLE    0.4680        C  2 --  H  7          +18.1% ( 57.0%)    27.5%
 TRAVEL      0.1228        C  2 --  H  8          +12.7% ( 47.7%)     7.9%
 RED. MASS   0.6380        C  1 --  H  4          +11.5% ( 45.5%)     0.2%
 EFF. MASS   4.3646        C  1 --  H  3          +10.4% ( 43.1%)     2.8%
                           C  2 --  C  9          +10.1% ( 42.6%)    46.4%

 VIBRATION    9    9A       ATOM PAIR        ENERGY CONTRIBUTION    RADIAL
 FREQ.      1062.70        C  1 --  H 10          +28.6% ( 66.9%)     0.0%
 T-DIPOLE    0.7872        C  9 --  H 10          +24.5% ( 61.9%)     0.0%
 TRAVEL      0.1584        C  1 --  H  3          +11.9% ( 43.1%)    16.0%
 RED. MASS   0.3797        C  1 --  H  4           +9.9% ( 39.4%)    12.6%
 EFF. MASS   2.5278

 VIBRATION   10   10A       ATOM PAIR        ENERGY CONTRIBUTION    RADIAL
 FREQ.      1084.77        C  2 --  H  7          +25.7% ( 50.6%)    20.6%
 T-DIPOLE    0.7866        C  2 --  H  8          +18.7% ( 43.1%)     8.9%
 TRAVEL      0.1419        C  2 --  H  6          +12.1% ( 34.8%)     1.0%
 RED. MASS   0.5380        H  5 --  C  9          +12.0% ( 34.6%)     0.0%
 EFF. MASS   3.0862        C  2 --  C  9          +11.3% ( 33.6%)     1.2%
                           C  1 --  H  4          +11.3% ( 33.5%)     0.2%

 VIBRATION   11   11A       ATOM PAIR        ENERGY CONTRIBUTION    RADIAL
 FREQ.      1206.10        C  2 --  C  9          +25.9% ( 78.4%)    66.1%
 T-DIPOLE    0.4978        C  1 --  C  9          +16.3% ( 62.2%)    15.3%
 TRAVEL      0.0792        C  9 --  H 10          +11.6% ( 52.5%)     0.1%
 RED. MASS   2.5041        C  2 --  H  6           +9.4% ( 47.2%)    87.2%
 EFF. MASS   8.9069

 VIBRATION   12   12A       ATOM PAIR        ENERGY CONTRIBUTION    RADIAL
 FREQ.      1283.43        H  5 --  C  9          +49.6% ( 67.8%)     0.5%
 T-DIPOLE    0.3346        C  2 --  H  7          +13.6% ( 35.5%)     0.4%
 TRAVEL      0.1752        C  2 --  H  6          +13.5% ( 35.4%)     0.0%
 RED. MASS   0.3467        C  1 --  C  9           +5.2% ( 21.9%)    80.2%
 EFF. MASS   1.7117

 VIBRATION   13   13A       ATOM PAIR        ENERGY CONTRIBUTION    RADIAL
 FREQ.      1290.09        C  2 --  H  7          +30.8% ( 51.4%)     1.2%
 T-DIPOLE    0.4308        C  2 --  H  8          +28.0% ( 49.0%)     2.3%
 TRAVEL      0.1730        H  5 --  C  9          +24.7% ( 46.0%)     1.0%
 RED. MASS   0.3121        C  2 --  H  6           +4.8% ( 20.4%)    75.9%
 EFF. MASS   1.7461

 VIBRATION   14   14A       ATOM PAIR        ENERGY CONTRIBUTION    RADIAL
 FREQ.      1293.02        C  2 --  H  6          +39.5% ( 54.8%)     0.0%
 T-DIPOLE    0.5213        C  2 --  H  8          +26.2% ( 44.6%)     2.6%
 TRAVEL      0.1884        C  2 --  H  7          +15.6% ( 34.5%)    14.2%
 RED. MASS   0.3072        H  5 --  C  9          +11.3% ( 29.2%)     1.1%
 EFF. MASS   1.4699

 VIBRATION   15   15A       ATOM PAIR        ENERGY CONTRIBUTION    RADIAL
 FREQ.      1369.72        C  1 --  H  3          +41.7% ( 61.0%)     0.6%
 T-DIPOLE    0.4480        C  1 --  H  4          +37.7% ( 58.0%)     1.6%
 TRAVEL      0.1708        H  5 --  C  9           +5.4% ( 21.9%)     0.4%
 RED. MASS   0.4377        C  1 --  H 10           +4.3% ( 19.5%)    46.5%
 EFF. MASS   1.6879

 VIBRATION   16   16A       ATOM PAIR        ENERGY CONTRIBUTION    RADIAL
 FREQ.      1391.68        C  2 --  H  6          +30.4% ( 62.1%)     1.7%
 T-DIPOLE    0.8038        C  2 --  H  8          +24.1% ( 55.3%)     3.0%
 TRAVEL      0.1195        C  2 --  H  7          +22.4% ( 53.4%)     1.7%
 RED. MASS   0.6924        C  2 --  C  9          +12.9% ( 40.5%)    93.5%
 EFF. MASS   3.3950

 VIBRATION   17   17A       ATOM PAIR        ENERGY CONTRIBUTION    RADIAL
 FREQ.      1452.64        C  1 --  C  9          +31.7% ( 89.0%)    95.0%
 T-DIPOLE    0.7331        H  5 --  C  9          +15.7% ( 62.5%)     1.3%
 TRAVEL      0.0680        C  2 --  C  9          +15.2% ( 61.6%)    60.5%
 RED. MASS   4.2350        C  9 --  H 10          +15.2% ( 61.6%)     6.8%
 EFF. MASS  10.0308

 VIBRATION   18   18A       ATOM PAIR        ENERGY CONTRIBUTION    RADIAL
 FREQ.      2249.31        C  9 --  H 10          +49.1% ( 96.4%)    85.6%
 T-DIPOLE    0.7047        C  1 --  H 10          +48.7% ( 96.0%)    82.1%
 TRAVEL      0.1402        C  1 --  C  9           +1.2% ( 15.1%)    99.8%
 RED. MASS   0.8924        C  2 --  C  9           +0.3% (  7.4%)    24.6%
 EFF. MASS   1.5254

 VIBRATION   19   19A       ATOM PAIR        ENERGY CONTRIBUTION    RADIAL
 FREQ.      2669.45        C  2 --  H  7          +67.8% ( 84.8%)    99.7%
 T-DIPOLE    0.6133        C  2 --  H  6          +16.7% ( 42.1%)    86.5%
 TRAVEL      0.1327        C  2 --  H  8          +14.4% ( 39.1%)    84.3%
 RED. MASS   0.5222        C  2 --  C  9           +0.8% (  9.4%)     0.3%
 EFF. MASS   1.4350

 VIBRATION   20   20A       ATOM PAIR        ENERGY CONTRIBUTION    RADIAL
 FREQ.      2678.05        C  2 --  H  8          +50.2% ( 73.1%)    98.2%
 T-DIPOLE    0.4869        C  2 --  H  6          +46.9% ( 70.6%)    97.7%
 TRAVEL      0.1320        H  5 --  C  9           +1.1% ( 11.0%)    99.6%
 RED. MASS   0.4874        C  2 --  C  9           +0.9% (  9.9%)     0.3%
 EFF. MASS   1.4446

 VIBRATION   21   21A       ATOM PAIR        ENERGY CONTRIBUTION    RADIAL
 FREQ.      2730.78        C  1 --  H  4          +45.4% ( 69.7%)    98.4%
 T-DIPOLE    0.5469        C  1 --  H  3          +43.7% ( 68.4%)    98.4%
 TRAVEL      0.1292        H  5 --  C  9           +8.8% ( 30.7%)    99.9%
 RED. MASS   0.4267        C  1 --  C  9           +1.0% ( 10.3%)     1.4%
 EFF. MASS   1.4783

 VIBRATION   22   22A       ATOM PAIR        ENERGY CONTRIBUTION    RADIAL
 FREQ.      2764.71        H  5 --  C  9          +76.2% ( 87.8%)   100.0%
 T-DIPOLE    0.6972        C  1 --  H  3           +6.9% ( 26.4%)    99.0%
 TRAVEL      0.1349        C  2 --  H  8           +6.3% ( 25.2%)    98.5%
 RED. MASS   0.5712        C  2 --  H  7           +4.6% ( 21.5%)    97.0%
 EFF. MASS   1.3409

 VIBRATION   23   23A       ATOM PAIR        ENERGY CONTRIBUTION    RADIAL
 FREQ.      2781.15        C  2 --  H  6          +33.2% ( 55.7%)    96.3%
 T-DIPOLE    0.5081        C  2 --  H  8          +27.1% ( 50.3%)    94.9%
 TRAVEL      0.1434        C  2 --  H  7          +24.4% ( 47.7%)    94.1%
 RED. MASS   0.2553        H  5 --  C  9          +10.9% ( 31.9%)    99.0%
 EFF. MASS   1.1792

 VIBRATION   24   24A       ATOM PAIR        ENERGY CONTRIBUTION    RADIAL
 FREQ.      2796.14        C  1 --  H  4          +50.6% ( 70.0%)    96.4%
 T-DIPOLE    0.6542        C  1 --  H  3          +44.8% ( 65.8%)    95.5%
 TRAVEL      0.1399        H  5 --  C  9           +1.7% ( 12.8%)    99.0%
 RED. MASS   0.4505        C  2 --  H  6           +0.8% (  8.9%)    95.4%
 EFF. MASS   1.2316

           FORCE CONSTANT IN CARTESIAN COORDINATES (Millidynes/A)

    ATOM   CHEMICAL       X               Y               Z
   NUMBER   SYMBOL  FORCE CONSTANT  FORCE CONSTANT  FORCE CONSTANT

      1       C        8.401356        5.821936        1.350029
      2       C        7.374883        6.586220        6.130103
      3       H        3.347661        1.549234        0.455530
      4       H        0.749768        2.945672        1.671562
      5       H        0.906682        3.881335        0.769865
      6       H        0.769495        3.963814        0.718056
      7       H        1.111576        1.250682        3.004746
      8       H        2.518323        0.650317        2.255317
      9       C        9.200351        6.021176        2.367449
     10       H       -1.452015        0.479363        2.090348
 *******************************************************************************
 ** Site#: 29054        For non-commercial use only    Version 18.018W 64BITS **
 *******************************************************************************
 ** Cite this program as: MOPAC2016, Version: 18.018W, James J. P. Stewart,   **
 ** Stewart Computational Chemistry, web: HTTP://OpenMOPAC.net. Days left: 365**
 *******************************************************************************
 **                                                                           **
 **                                MOPAC2016                                  **
 **                                                                           **
 *******************************************************************************

                              PM7 CALCULATION RESULTS


 *******************************************************************************
 *  CALCULATION DONE:                                Thu Jan 18 12:13:59 2018  *
 *  IRC=N      - INTRINSIC REACTION COORDINATE  1 DEFINED
 *  OLDGEO     - PREVIOUS GEOMETRY TO BE USED
 *  RESTART    - CALCULATION RESTARTED
 *  T=         - A TIME OF 172800.0 SECONDS REQUESTED
 *  DUMP=N     - RESTART FILE WRITTEN EVERY  7200.000 SECONDS
 *  HTML       - WRITE HTML SCRIPT TO GENERATE ANIMATION USING JSMOL
 *             - TO DISPLAY IN PDB FORMAT, ADD "PDBOUT"
 *  X-PRIOR    - GEOMETRY CHANGES TAKE PRIORITY IN DRC
 *******************************************************************************
IRC=1* oldgeo restart html X-PRIORITY=0.1
 Refine transition state for hydrogen migration in propyl radical, and verify using FORCE

   ATOM                 CHEMICAL                   X               Y               Z
  NUMBER                 SYMBOL               (ANGSTROMS)     (ANGSTROMS)     (ANGSTROMS)
 
     1       C(HETATM    1  C1  HET A   1)   -0.01406794  *   0.13795929  *   0.04539768  *
     2       C(HETATM    3  C3  HET A   1)    2.14041476  *   1.51071231  *  -0.03622826  *
     3       H(HETATM    4 1H1  HET A   1)   -0.67764726  *  -0.47713534  *   0.61931709  *
     4       H(HETATM    5 2H1  HET A   1)   -0.51227277  *   0.82184483  *  -0.61196877  *
     5       H(HETATM    7  H2  HET A   1)    1.73314432  *  -0.14956801  *   1.33384708  *
     6       H(HETATM    8 1H3  HET A   1)    1.78291423  *   1.89648574  *  -0.99924615  *
     7       H(HETATM    9 2H3  HET A   1)    2.06540917  *   2.34148881  *   0.68337842  *
     8       H(HETATM   10 3H3  HET A   1)    3.20670026  *   1.27469588  *  -0.14835162  *
     9       C(HETATM    2  C2  HET A   1)    1.35811013  *   0.33595225  *   0.44148895  *
    10       H(HETATM    6 3H1  HET A   1)    1.04145156  *  -0.58037100  *  -0.55333044  *
 

 General Reference for PM7:
 "Optimization of Parameters for Semiempirical Methods VI: More Modifications to the 
 NDDO Approximations and Re-optimization of Parameters", J. J. P. Stewart, J. Mol. Mod., 1:32, 19 (2013)
 http://www.springerlink.com/openurl.asp?genre=article&id=doi:10.1007/s00894-012-1667-x

           Empirical Formula: C3 H7  =    10 atoms



      MOLECULAR POINT GROUP   :   C1  


          UHF CALCULATION, NO. OF ALPHA ELECTRONS =   10
                           NO. OF BETA  ELECTRONS =    9

          MOLECULAR WEIGHT =   43.09


          TIME USED UP TO RESTART =                  0.11

    FOR POINT-GROUP C1   THERE ARE   1 UNIQUE SYMMETRY FUNCTIONS.

           INITIAL VELOCITY IN DRC (Angstroms/Femtosecond)
        -0.01826         0.01599        -0.06424
         0.00180         0.00005        -0.00242
        -0.01490        -0.01313         0.02832
        -0.00808        -0.02247         0.02118
        -0.00327         0.00718        -0.03473
         0.00307        -0.00026        -0.00219
        -0.00458         0.00103         0.00157
        -0.00005         0.00063        -0.00232
        -0.03493        -0.03914         0.04618
         0.64024         0.30234         0.23225

 GEOMETRY PRIORITY, STEP = 0.1000 ANGSTROMS



     POINT   POTENTIAL  +  ENERGY LOST   =   TOTAL      ERROR    REF%   MOVEMENT
       1      47.36246      0.00000         47.36246   0.00000     1   %  0.0000
      11      46.31793      1.03777         47.35570   0.02777     2   %  0.0911
      21      42.98086      4.40360         47.38446   0.05653     3   %  0.1996
      30      38.93675      8.46354         47.40029   0.07236     4   %  0.2996
      38      35.08290     12.32272         47.40561   0.07769     5   %  0.3904
      46      30.93217     16.47301         47.40518   0.07726     6   %  0.4923
      54      26.97077     20.42856         47.39934   0.07141     7   %  0.5995
      62      23.76040     23.63103         47.39143   0.06350     8   %  0.6990
      70      21.14433     26.23979         47.38412   0.05619     9   %  0.7936
      77      18.75112     28.62272         47.37383   0.04591    10   %  0.8974
      84      16.90472     30.45946         47.36418   0.03625    11   %  0.9958
      91      15.43976     31.91553         47.35530   0.02737    12   %  1.0932
      97      14.31469     33.03290         47.34758   0.01966    13   %  1.1878
     103      13.48408     33.85714         47.34123   0.01330    14   %  1.2770
     108      12.89039     34.44572         47.33611   0.00819    15   %  1.3590
     113      12.47457     34.85752         47.33209   0.00417    16   %  1.4332
     118      12.18446     35.14453         47.32899   0.00107    17   %  1.5014
     122      11.97831     35.34826         47.32657  -0.00135    18   %  1.5674
     127      11.82227     35.50263         47.32490  -0.00302    19   %  1.6356
     131      11.73265     35.61878         47.35142   0.02350    20   %  1.6893
     135      11.67974     35.86703         47.54677   0.21884    21   %  1.7219
     140      11.64669     36.07105         47.71773   0.38981    22   %  1.7467
     145      11.61758     36.33213         47.94971   0.62179    23   %  1.7770
     150      11.58577     36.58784         48.17360   0.84568    24   %  1.8012
     155      11.56993     36.84831         48.41824   1.09031    25   %  1.8271
     160      11.54353     37.10748         48.65101   1.32308    26   %  1.8483
     165      11.53599     37.37168         48.90767   1.57974    27   %  1.8714
     171      11.51900     37.68647         49.20547   1.87754    28   %  1.8957
     176      11.49739     37.94297         49.44035   2.11243    29   %  1.9140
     181      11.49483     38.20449         49.69932   2.37139    30   %  1.9337
     187      11.48150     38.51640         49.99789   2.66997    31   %  1.9551
     192      11.46437     38.77086         50.23523   2.90730    32   %  1.9716
     197      11.46197     39.02888         50.49085   3.16293    33   %  1.9891
     203      11.45152     39.33458         50.78610   3.45817    34   %  2.0087
     208      11.43708     39.59093         51.02801   3.70008    35   %  2.0242
     214      11.42812     39.89544         51.32355   3.99563    36   %  2.0432
     219      11.42755     40.15323         51.58078   4.25285    37   %  2.0592
     224      11.41323     40.40818         51.82141   4.49348    38   %  2.0739
     230      11.40504     40.71758         52.12262   4.79470    39   %  2.0920
     235      11.40576     40.97781         52.38356   5.05564    40   %  2.1073
     240      11.39181     41.23433         52.62615   5.29822    41   %  2.1214
     246      11.38814     41.56506         52.95319   5.62527    42   %  2.1401
     251      11.37877     41.84413         53.22290   5.89497    43   %  2.1551
     257      11.37717     42.12114         53.49832   6.17039    44   %  2.1705
     262      11.37095     42.39619         53.76714   6.43921    45   %  2.1854
     267      11.36134     42.67640         54.03774   6.70981    46   %  2.1998
     273      11.36225     42.94018         54.30243   6.97450    47   %  2.2140
     278      11.35064     43.19898         54.54963   7.22170    48   %  2.2268
     284      11.34505     43.50936         54.85441   7.52648    49   %  2.2426
     289      11.34778     43.76707         55.11485   7.78692    50   %  2.2561
     294      11.34240     44.07428         55.41668   8.08875    51   %  2.2713
     300      11.33164     44.32997         55.66162   8.33369    52   %  2.2835
     305      11.33382     44.58784         55.92166   8.59373    53   %  2.2964
     311      11.33002     44.89902         56.22904   8.90112    54   %  2.3112
     316      11.32510     45.19511         56.52021   9.19228    55   %  2.3249
     322      11.31712     45.47745         56.79457   9.46664    56   %  2.3374
     327      11.31278     45.75874         57.07152   9.74359    57   %  2.3500
     333      11.31255     46.03975         57.35230  10.02438    58   %  2.3629
     338      11.30868     46.31978         57.62847  10.30054    59   %  2.3752
     344      11.30293     46.60015         57.90307  10.57515    60   %  2.3870
     349      11.30370     46.85271         58.15641  10.82848    61   %  2.3983
     355      11.30040     47.16424         58.46465  11.13672    62   %  2.4114
     360      11.29714     47.44862         58.74576  11.41784    63   %  2.4229
     366      11.29054     47.73183         59.02236  11.69444    64   %  2.4340
     371      11.28852     48.01758         59.30611  11.97818    65   %  2.4453
     377      11.28952     48.30187         59.59139  12.26346    66   %  2.4568
     382      11.28574     48.58632         59.87206  12.54413    67   %  2.4676
     388      11.28071     48.86931         60.15002  12.82210    68   %  2.4779
     393      11.27875     49.15455         60.43330  13.10537    69   %  2.4885
     399      11.27905     49.44068         60.71973  13.39180    70   %  2.4993
     404      11.27716     49.72519         61.00235  13.67443    71   %  2.5096
     410      11.27300     50.00933         61.28233  13.95441    72   %  2.5193
     415      11.26990     50.29700         61.56690  14.23898    73   %  2.5290
     421      11.26989     50.58280         61.85269  14.52476    74   %  2.5391
     426      11.26995     50.86987         62.13982  14.81189    75   %  2.5489
     432      11.26644     51.15687         62.42331  15.09538    76   %  2.5580
     437      11.26258     51.44522         62.70780  15.37987    77   %  2.5669
     443      11.26227     51.73198         62.99425  15.66632    78   %  2.5762
     448      11.26321     52.01689         63.28009  15.95217    79   %  2.5857
     454      11.26056     52.30335         63.56391  16.23598    80   %  2.5944
     460      11.25750     52.58900         63.84649  16.51857    81   %  2.6027
     465      11.25539     52.87473         64.13012  16.80219    82   %  2.6111
     471      11.25521     53.16121         64.41641  17.08849    83   %  2.6198
     476      11.25758     53.44926         64.70684  17.37891    84   %  2.6286
     482      11.25433     53.73930         64.99362  17.66570    85   %  2.6364
     488      11.24993     54.02602         65.27596  17.94803    86   %  2.6439
     493      11.24875     54.31591         65.56466  18.23674    87   %  2.6517
     499      11.25341     54.59551         65.84892  18.52100    88   %  2.6600
     504      11.25190     54.89396         66.14585  18.81793    89   %  2.6678
     510      11.24406     55.17012         66.41418  19.08626    90   %  2.6739
     515      11.25189     55.43378         66.68566  19.35774    91   %  2.6817
     521      11.25114     55.74951         67.00066  19.67273    92   %  2.6895
     526      11.24073     56.01181         67.25254  19.92461    93   %  2.6948
     532      11.23950     56.32940         67.56890  20.24097    94   %  2.7024
     537      11.24927     56.59865         67.84792  20.51999    95   %  2.7098
     543      11.24807     56.91768         68.16575  20.83783    96   %  2.7171
     548      11.23708     57.18091         68.41799  21.09006    97   %  2.7219
     554      11.23626     57.49812         68.73438  21.40645    98   %  2.7290
     559      11.24677     57.76798         69.01475  21.68683    99   %  2.7360
     565      11.24691     58.09121         69.33812  22.01020   100   %  2.7429
     570      11.23360     58.35818         69.59178  22.26385   101   %  2.7473
     576      11.23264     58.68227         69.91491  22.58698   102   %  2.7539
     581      11.24650     58.95982         70.20632  22.87839   103   %  2.7607
     586      11.23097     59.23111         70.46208  23.13415   104   %  2.7649
     592      11.22988     59.56351         70.79339  23.46546   105   %  2.7714
     597      11.24826     59.85620         71.10446  23.77653   106   %  2.7781
     603      11.24962     60.20357         71.45319  24.12526   107   %  2.7846
     608      11.22777     60.49915         71.72692  24.39900   108   %  2.7885
     613      11.25292     60.81729         72.07021  24.74228   109   %  2.7954
     618      11.22685     61.12360         72.35045  25.02252   110   %  2.7993
     624      11.22634     61.50642         72.73276  25.40484   111   %  2.8056
     629      11.25597     61.84585         73.10182  25.77389   112   %  2.8126
     634      11.22617     62.18132         73.40750  26.07957   113   %  2.8163
     639      11.26264     62.56826         73.83090  26.50297   114   %  2.8235
     644      11.22732     62.94529         74.17261  26.84469   115   %  2.8274
     649      11.27131     63.39939         74.67070  27.34277   116   %  2.8350
     654      11.22845     63.81713         75.04558  27.71766   117   %  2.8389
     659      11.28006     64.31899         75.59906  28.27113   118   %  2.8467
     664      11.23407     64.84011         76.07417  28.74625   119   %  2.8509
     668      11.23534     65.33701         76.57235  29.24442   120   %  2.8560


           POTENTIAL ENERGY HAS STOPPED DROPPING

           INITIAL VELOCITY IN DRC (Angstroms/Femtosecond)
         0.01826        -0.01599         0.06424
        -0.00180        -0.00005         0.00242
         0.01490         0.01313        -0.02832
         0.00808         0.02247        -0.02118
         0.00327        -0.00718         0.03473
        -0.00307         0.00026         0.00219
         0.00458        -0.00103        -0.00157
         0.00005        -0.00063         0.00232
         0.03493         0.03914        -0.04618
        -0.64024        -0.30234        -0.23225

 GEOMETRY PRIORITY, STEP = 0.1000 ANGSTROMS



     POINT   POTENTIAL  +  ENERGY LOST   =   TOTAL      ERROR    REF%   MOVEMENT
       1      47.36246      0.00000         47.36246   0.00000     1   %  0.0000
      11      46.07181      1.27481         47.34662   0.01869     2   %  0.1000
      21      42.65079      4.72419         47.37497   0.04704     3   %  0.2000
      30      38.09537      9.30193         47.39730   0.06937     4   %  0.2999
      38      33.67565     13.73348         47.40914   0.08120     5   %  0.3906
      47      28.50289     18.91136         47.41424   0.08631     6   %  0.4998
      54      24.15639     23.25650         47.41289   0.08496     7   %  0.5996
      62      20.28495     27.12277         47.40772   0.07979     8   %  0.6993
      69      16.91715     30.48326         47.40041   0.07248     9   %  0.7986
      77      14.02992     33.36247         47.39239   0.06446    10   %  0.8982
      84      11.60714     35.77702         47.38416   0.05623    11   %  0.9977
      91       9.60805     37.76784         47.37588   0.04795    12   %  1.0972
      97       7.99367     39.37428         47.36796   0.04003    13   %  1.1966
     103       6.72416     40.63628         47.36045   0.03251    14   %  1.2959
     109       5.76644     41.58686         47.35330   0.02537    15   %  1.3949
     115       5.08665     42.25944         47.34609   0.01816    16   %  1.4938
     121       4.65910     42.68018         47.33928   0.01135    17   %  1.5925
     127       4.45837     42.87354         47.33191   0.00397    18   %  1.6905
     132       4.43845     42.99001         47.42846   0.10052    19   %  1.7342
     137       4.43829     43.25943         47.69772   0.36979    20   %  1.7377
     142       4.43886     43.54059         47.97945   0.65152    21   %  1.7402
     149       4.43758     43.89335         48.33093   1.00299    22   %  1.7396
     157       4.43992     44.30673         48.74665   1.41872    23   %  1.7422
     165       4.44151     44.74659         49.18810   1.86017    24   %  1.7430
     172       4.43332     45.13118         49.56451   2.23658    25   %  1.7419
     178       4.43284     45.46574         49.89858   2.57065    26   %  1.7427
     184       4.43166     45.80466         50.23633   2.90840    27   %  1.7436
     190       4.43105     46.14387         50.57493   3.24700    28   %  1.7445
     196       4.43055     46.48775         50.91830   3.59037    29   %  1.7453
     202       4.42978     46.84340         51.27318   3.94524    30   %  1.7462
     207       4.45101     47.14936         51.60037   4.27243    31   %  1.7481
     212       4.42914     47.45065         51.87978   4.55185    32   %  1.7478
     218       4.42901     47.84275         52.27176   4.94382    33   %  1.7487
     223       4.45883     48.18806         52.64690   5.31897    34   %  1.7505
     228       4.42902     48.52101         52.95003   5.62210    35   %  1.7504
     233       4.46310     48.89167         53.35477   6.02683    36   %  1.7521
     238       4.43002     49.25521         53.68523   6.35730    37   %  1.7523
     243       4.47330     49.68839         54.16169   6.83376    38   %  1.7540
     247       4.47617     50.04014         54.51631   7.18838    39   %  1.7548
     252       4.43383     50.48673         54.92056   7.59263    40   %  1.7555
     257       4.48938     51.04670         55.53607   8.20814    41   %  1.7572
     261       4.49394     51.50026         55.99419   8.66626    42   %  1.7583


           POTENTIAL ENERGY HAS STOPPED DROPPING


 **********************
 *                    *
 * JOB ENDED NORMALLY *
 *                    *
 **********************



 TOTAL JOB TIME:             1.98 SECONDS

 == MOPAC DONE ==
