 *******************************************************************************
 ** Site#: 37037        For non-commercial use only           Version 21.158W **
 *******************************************************************************
 ** Cite this program as: MOPAC2016, Version: 21.158W, James J. P. Stewart,   **
 ** Stewart Computational Chemistry, web: HTTP://OpenMOPAC.net. Days left: 363**
 *******************************************************************************
 **                                                                           **
 **                                MOPAC2016                                  **
 **                                                                           **
 *******************************************************************************

                              PM7 CALCULATION RESULTS

 *******************************************************************************
 *  CALCULATION DONE:                                Wed Jun  9 11:00:51 2021  *
 *  OPT        - OPTIMIZE COORDINATES OF ALL ATOMS
 *  XYZ        - CARTESIAN COORDINATE SYSTEM TO BE USED
 *  TS         - USE EF ROUTINE FOR TS SEARCH
 *  T=         - A TIME OF 172800.0 SECONDS REQUESTED
 *  DUMP=N     - RESTART FILE WRITTEN EVERY 7200.0 SECONDS REQUESTED
 *******************************************************************************
 TS xyz opt
 Refine transition state for hydrogen migration in propyl radical, and verify using FORCE

   ATOM                 CHEMICAL                   X               Y               Z
  NUMBER                 SYMBOL               (ANGSTROMS)     (ANGSTROMS)     (ANGSTROMS)
 
     1       C(HETATM    1  C1  HET A   1)   -0.01448554  *   0.13875970  *   0.04620370  *
     2       C(HETATM    3  C3  HET A   1)    2.14017594  *   1.51038180  *  -0.03657960  *
     3       H(HETATM    4 1H1  HET A   1)   -0.67781284  *  -0.47700230  *   0.61999150  *
     4       H(HETATM    5 2H1  HET A   1)   -0.51185278  *   0.82183200  *  -0.61245370  *
     5       H(HETATM    7  H2  HET A   1)    1.73252658  *  -0.14915290  *   1.33422440  *
     6       H(HETATM    8 1H3  HET A   1)    1.78352638  *   1.89585460  *  -1.00028470  *
     7       H(HETATM    9 2H3  HET A   1)    2.06407989  *   2.34177130  *   0.68303650  *
     8       H(HETATM   10 3H3  HET A   1)    3.20679703  *   1.27491920  *  -0.14647850  *
     9       C(HETATM    2  C2  HET A   1)    1.35803513  *   0.33534475  *   0.44098535  *
    10       H(HETATM    6 3H1  HET A   1)    1.04530929  *  -0.58029967  *  -0.55151197  *
 

 General Reference for PM7:
 "Optimization of Parameters for Semiempirical Methods VI: More Modifications to the 
 NDDO Approximations and Re-optimization of Parameters", J. J. P. Stewart, J. Mol. Mod., 1:32, 19 (2013)
 https://link.springer.com/article/10.1007/s00894-012-1667-x

           Empirical Formula: C3 H7  =    10 atoms



      MOLECULAR POINT GROUP   :   C1  


          UHF CALCULATION, NO. OF ALPHA ELECTRONS =   10
                           NO. OF BETA  ELECTRONS =    9

          Transition state refinement using EF

          HESSIAN CALCULATED NUMERICALLY

 CYCLE:     1 TIME:   0.070 TIME LEFT:  2.00D  GRAD.:     3.809 HEAT:  47.35608
 CYCLE:     2 TIME:   0.016 TIME LEFT:  2.00D  GRAD.:     0.144 HEAT:  47.36246

     GRADIENT =  0.14358 IS LESS THAN CUTOFF =  1.00000



 -------------------------------------------------------------------------------
 TS xyz opt
 Refine transition state for hydrogen migration in propyl radical, and verify using FORCE



     GEOMETRY OPTIMISED USING EIGENVECTOR FOLLOWING (TS).     
     SCF FIELD WAS ACHIEVED                                   


                              PM7 CALCULATION
                                                       MOPAC2016 (Version: 21.158W)
                                                       Wed Jun  9 11:00:51 2021
                                                       No. of days remaining = 363




          FINAL HEAT OF FORMATION =         47.36246 KCAL/MOL =     198.16453 KJ/MOL


          TOTAL ENERGY            =       -460.54852 EV
          ELECTRONIC ENERGY       =      -1511.40630 EV  POINT GROUP:     C1  
          CORE-CORE REPULSION     =       1050.85778 EV
          COSMO AREA              =         93.66 SQUARE ANGSTROMS
          COSMO VOLUME            =         76.24 CUBIC ANGSTROMS

          GRADIENT NORM           =          0.14358 = 0.04540 PER ATOM
          IONIZATION POTENTIAL    =          7.739992 EV
          ALPHA SOMO LUMO (EV)    =         -7.740  3.490
          BETA  SOMO LUMO (EV)    =        -11.035  1.231
          NO. OF ALPHA ELECTRONS  =         10
          NO. OF BETA  ELECTRONS  =          9
          MOLECULAR WEIGHT        =         43.0883

          MOLECULAR DIMENSIONS (Angstroms)

            Atom       Atom       Distance
            H     8    H     3     4.32971
            H     5    H     4     2.85359
            H     7    H    10     2.74616


          SCF CALCULATIONS        =         33
 
          WALL-CLOCK TIME         =          0.117 SECONDS
          COMPUTATION TIME        =          0.141 SECONDS




   ATOM                 CHEMICAL                   X               Y               Z
  NUMBER                 SYMBOL               (ANGSTROMS)     (ANGSTROMS)     (ANGSTROMS)
 
     1       C(HETATM    1  C1  HET A   1)   -0.01396746  *   0.13786866  *   0.04542773  *
     2       C(HETATM    3  C3  HET A   1)    2.14041625  *   1.51068825  *  -0.03623340  *
     3       H(HETATM    4 1H1  HET A   1)   -0.67782220  *  -0.47669763  *   0.61963087  *
     4       H(HETATM    5 2H1  HET A   1)   -0.51186810  *   0.82131894  *  -0.61265719  *
     5       H(HETATM    7  H2  HET A   1)    1.73283095  *  -0.14879431  *   1.33465850  *
     6       H(HETATM    8 1H3  HET A   1)    1.78313500  *   1.89599982  *  -0.99950281  *
     7       H(HETATM    9 2H3  HET A   1)    2.06520799  *   2.34178347  *   0.68299095  *
     8       H(HETATM   10 3H3  HET A   1)    3.20673944  *   1.27467436  *  -0.14798704  *
     9       C(HETATM    2  C2  HET A   1)    1.35804767  *   0.33614167  *   0.44190609  *
    10       H(HETATM    6 3H1  HET A   1)    1.04168917  *  -0.58109543  *  -0.55230461  *

                             CARTESIAN COORDINATES

   1    C       -0.013967456     0.137868661     0.045427732
   2    C        2.140416245     1.510688252    -0.036233400
   3    H       -0.677822204    -0.476697632     0.619630867
   4    H       -0.511868101     0.821318945    -0.612657191
   5    H        1.732830951    -0.148794314     1.334658500
   6    H        1.783135001     1.895999824    -0.999502814
   7    H        2.065207988     2.341783468     0.682990950
   8    H        3.206739444     1.274674365    -0.147987042
   9    C        1.358047673     0.336141674     0.441906092
  10    H        1.041689166    -0.581095427    -0.552304612


           Empirical Formula: C3 H7  =    10 atoms



      MOLECULAR POINT GROUP   :   C1  


          ALPHA EIGENVALUES  
 -28.14673 -23.92725 -19.16793 -16.03939 -14.96313 -14.29606 -12.89433 -12.19979
 -11.70304  -7.73999   3.48963   4.55616   4.93836   5.77163   5.86909   6.17233
   6.54442   6.87421   7.02043


           BETA EIGENVALUES 
 -28.02863 -23.82019 -18.93959 -15.84757 -14.69497 -14.12884 -12.75255 -12.07121
 -11.03465   1.23080   3.59672   4.75323   5.25993   5.85584   5.94429   6.28037
   6.67709   6.99907   7.08407


              NET ATOMIC CHARGES AND DIPOLE CONTRIBUTIONS

  ATOM NO.                 TYPE                        CHARGE      No. of ELECS.   s-Pop       p-Pop       
    1          C(HETATM    1  C1  HET A   1)          -0.493705        4.4937     1.07296     3.42075
    2          C(HETATM    3  C3  HET A   1)          -0.423073        4.4231     1.04428     3.37879
    3          H(HETATM    4 1H1  HET A   1)           0.152371        0.8476     0.84763
    4          H(HETATM    5 2H1  HET A   1)           0.154509        0.8455     0.84549
    5          H(HETATM    7  H2  HET A   1)           0.148636        0.8514     0.85136
    6          H(HETATM    8 1H3  HET A   1)           0.142934        0.8571     0.85707
    7          H(HETATM    9 2H3  HET A   1)           0.154378        0.8456     0.84562
    8          H(HETATM   10 3H3  HET A   1)           0.141123        0.8589     0.85888
    9          C(HETATM    2  C2  HET A   1)          -0.284680        4.2847     1.06087     3.22382
   10          H(HETATM    6 3H1  HET A   1)           0.307508        0.6925     0.69249

          NET CHARGE ON RESIDUES

      Residue         Charge  Anion or
                              Cation?
      HET A   1       +0.000
 


 DIPOLE           X         Y         Z       TOTAL
 POINT-CHG.     0.656    -0.658    -0.783     1.215
 HYBRID         0.004     0.024    -0.071     0.075
 SUM            0.660    -0.634    -0.854     1.252


          ATOMIC ORBITAL ELECTRON POPULATIONS

                   Atom                  s        px        py        pz   
   C(HETATM    1  C1  HET A   1)   1.07296   1.00144   1.20668   1.21263
   C(HETATM    3  C3  HET A   1)   1.04428   1.12750   1.09038   1.16091
   H(HETATM    4 1H1  HET A   1)   0.84763
   H(HETATM    5 2H1  HET A   1)   0.84549
   H(HETATM    7  H2  HET A   1)   0.85136
   H(HETATM    8 1H3  HET A   1)   0.85707
   H(HETATM    9 2H3  HET A   1)   0.84562
   H(HETATM   10 3H3  HET A   1)   0.85888
   C(HETATM    2  C2  HET A   1)   1.06087   1.04879   1.06998   1.10504
   H(HETATM    6 3H1  HET A   1)   0.69249


                    (SZ)    =    0.500000
                    (S**2)  =    0.768073


          ATOMIC ORBITAL SPIN POPULATIONS

    Atom   Total    s     px     py     pz   
         Atomic
    1  C  0.5887  0.025  0.056  0.256  0.252
    2  C -0.0205 -0.003 -0.006 -0.007 -0.004
    3  H -0.0136 -0.014
    4  H -0.0142 -0.014
    5  H -0.0124 -0.012
    6  H  0.0022  0.002
    7  H  0.0162  0.016
    8  H  0.0046  0.005
    9  C  0.5565  0.023  0.051  0.232  0.250
   10  H -0.1075 -0.108
 *******************************************************************************
 ** Site#: 37037        For non-commercial use only           Version 21.158W **
 *******************************************************************************
 ** Cite this program as: MOPAC2016, Version: 21.158W, James J. P. Stewart,   **
 ** Stewart Computational Chemistry, web: HTTP://OpenMOPAC.net. Days left: 363**
 *******************************************************************************
 **                                                                           **
 **                                MOPAC2016                                  **
 **                                                                           **
 *******************************************************************************

                              PM7 CALCULATION RESULTS

 *******************************************************************************
 *  CALCULATION DONE:                                Wed Jun  9 11:00:51 2021  *
 *  OLDGEO     - PREVIOUS GEOMETRY TO BE USED
 *  FORCE      - FORCE CALCULATION SPECIFIED
 *  T=         - A TIME OF 172800.0 SECONDS REQUESTED
 *  DUMP=N     - RESTART FILE WRITTEN EVERY 7200.0 SECONDS REQUESTED
 *  ISOTOPE    - SAVE THE FORCE MATRIX FOR USE LATER
 *******************************************************************************
oldgeo force isotope
 Refine transition state for hydrogen migration in propyl radical, and verify using FORCE

   ATOM                 CHEMICAL                   X               Y               Z
  NUMBER                 SYMBOL               (ANGSTROMS)     (ANGSTROMS)     (ANGSTROMS)
 
     1       C(HETATM    1  C1  HET A   1)   -0.01396746  *   0.13786866  *   0.04542773  *
     2       C(HETATM    3  C3  HET A   1)    2.14041625  *   1.51068825  *  -0.03623340  *
     3       H(HETATM    4 1H1  HET A   1)   -0.67782220  *  -0.47669763  *   0.61963087  *
     4       H(HETATM    5 2H1  HET A   1)   -0.51186810  *   0.82131894  *  -0.61265719  *
     5       H(HETATM    7  H2  HET A   1)    1.73283095  *  -0.14879431  *   1.33465850  *
     6       H(HETATM    8 1H3  HET A   1)    1.78313500  *   1.89599982  *  -0.99950281  *
     7       H(HETATM    9 2H3  HET A   1)    2.06520799  *   2.34178347  *   0.68299095  *
     8       H(HETATM   10 3H3  HET A   1)    3.20673944  *   1.27467436  *  -0.14798704  *
     9       C(HETATM    2  C2  HET A   1)    1.35804767  *   0.33614167  *   0.44190609  *
    10       H(HETATM    6 3H1  HET A   1)    1.04168917  *  -0.58109543  *  -0.55230461  *
 

 General Reference for PM7:
 "Optimization of Parameters for Semiempirical Methods VI: More Modifications to the 
 NDDO Approximations and Re-optimization of Parameters", J. J. P. Stewart, J. Mol. Mod., 1:32, 19 (2013)
 https://link.springer.com/article/10.1007/s00894-012-1667-x

           Empirical Formula: C3 H7  =    10 atoms



      MOLECULAR POINT GROUP   :   C1  


          UHF CALCULATION, NO. OF ALPHA ELECTRONS =   10
                           NO. OF BETA  ELECTRONS =    9


          HEAT OF FORMATION =      47.362459 KCALS/MOLE


          CARTESIAN COORDINATE DERIVATIVES

   NUMBER  ATOM         X            Y            Z

     1       C      0.053184     0.011782    -0.081478
     2       C      0.043765     0.024666    -0.046270
     3       H     -0.026827    -0.020407     0.021822
     4       H     -0.020756    -0.016078     0.016033
     5       H     -0.005964    -0.027167     0.011088
     6       H     -0.015265    -0.004748     0.011167
     7       H     -0.015649     0.000837    -0.000688
     8       H     -0.022560    -0.014677     0.008887
     9       C      0.042271     0.023553     0.033365
    10       H     -0.032200     0.022239     0.026074
 


          GRADIENT NORM =   0.15755

          MOLECULAR WEIGHT =   43.09



          ROTATIONAL CONSTANTS IN CM(-1)

          A =    1.26981256   B =    0.29070195   C =    0.25972443



           PRINCIPAL MOMENTS OF INERTIA IN UNITS OF 10**(-40)*GRAM-CM**2

          A =       22.0448   B =       96.2937   C =      107.7787


          ORIENTATION OF MOLECULE IN FORCE CALCULATION

    NO.       ATOM         X         Y         Z

     1          C      -1.2856   -0.1767   -0.1423
     2          C       1.2703   -0.1767   -0.1423
     3          H      -2.1936    0.3921   -0.1423
     4          H      -1.3171   -1.0487   -0.7643
     5          H      -0.0083    1.4344    0.6117
     6          H       1.2069   -1.2496   -0.3638
     7          H       1.6304    0.3138   -1.0607
     8          H       2.0460   -0.0409    0.6227
     9          C      -0.0353    0.4038    0.2803
    10          H      -0.7628   -0.4009    1.1481


    FIRST DERIVATIVES WILL BE USED IN THE CALCULATION OF SECOND DERIVATIVES

          ESTIMATED TIME TO COMPLETE CALCULATION =        0.00 SECONDS

    FOR POINT-GROUP C1   THERE ARE   1 UNIQUE SYMMETRY FUNCTIONS.

 STEP:   1 TIME =     0.02 SECS, INTEGRAL =      0.02 TIME LEFT: 172799.98
 STEP:   2 TIME =     0.00 SECS, INTEGRAL =      0.02 TIME LEFT: 172799.98
 STEP:   3 TIME =     0.00 SECS, INTEGRAL =      0.02 TIME LEFT: 172799.98
 STEP:   4 TIME =     0.00 SECS, INTEGRAL =      0.02 TIME LEFT: 172799.98
 STEP:   5 TIME =     0.02 SECS, INTEGRAL =      0.04 TIME LEFT: 172799.96
 STEP:   6 TIME =     0.00 SECS, INTEGRAL =      0.04 TIME LEFT: 172799.96
 STEP:   7 TIME =     0.02 SECS, INTEGRAL =      0.05 TIME LEFT: 172799.95
 STEP:   8 TIME =     0.00 SECS, INTEGRAL =      0.05 TIME LEFT: 172799.95
 STEP:   9 TIME =     0.00 SECS, INTEGRAL =      0.05 TIME LEFT: 172799.95
 STEP:  10 TIME =     0.01 SECS, INTEGRAL =      0.07 TIME LEFT: 172799.93
 STEP:  11 TIME =     0.00 SECS, INTEGRAL =      0.07 TIME LEFT: 172799.93
 STEP:  12 TIME =     0.02 SECS, INTEGRAL =      0.09 TIME LEFT: 172799.91
 STEP:  13 TIME =     0.00 SECS, INTEGRAL =      0.09 TIME LEFT: 172799.91
 STEP:  14 TIME =     0.00 SECS, INTEGRAL =      0.09 TIME LEFT: 172799.91
 STEP:  15 TIME =     0.02 SECS, INTEGRAL =      0.11 TIME LEFT: 172799.89
 STEP:  16 TIME =     0.00 SECS, INTEGRAL =      0.11 TIME LEFT: 172799.89
 STEP:  17 TIME =     0.00 SECS, INTEGRAL =      0.11 TIME LEFT: 172799.89
 STEP:  18 TIME =     0.02 SECS, INTEGRAL =      0.12 TIME LEFT: 172799.88
 STEP:  19 TIME =     0.02 SECS, INTEGRAL =      0.14 TIME LEFT: 172799.86
 STEP:  20 TIME =     0.02 SECS, INTEGRAL =      0.16 TIME LEFT: 172799.84
 STEP:  21 TIME =     0.00 SECS, INTEGRAL =      0.16 TIME LEFT: 172799.84
 STEP:  22 TIME =     0.02 SECS, INTEGRAL =      0.17 TIME LEFT: 172799.83
 STEP:  23 TIME =     0.00 SECS, INTEGRAL =      0.17 TIME LEFT: 172799.83
 STEP:  24 TIME =     0.00 SECS, INTEGRAL =      0.17 TIME LEFT: 172799.83
 STEP:  25 TIME =     0.02 SECS, INTEGRAL =      0.19 TIME LEFT: 172799.81
 STEP:  26 TIME =     0.02 SECS, INTEGRAL =      0.20 TIME LEFT: 172799.80
 STEP:  27 TIME =     0.01 SECS, INTEGRAL =      0.21 TIME LEFT: 172799.79
 STEP:  28 TIME =     0.00 SECS, INTEGRAL =      0.21 TIME LEFT: 172799.79
 STEP:  29 TIME =     0.02 SECS, INTEGRAL =      0.23 TIME LEFT: 172799.77
 STEP:  30 TIME =     0.02 SECS, INTEGRAL =      0.24 TIME LEFT: 172799.76

(To convert to Hartree/Bohr^2, multiply by (10^(-21) x N x a0^2)/(4.184 x 627.51) =  0.0642)


           FORCE MATRIX IN MILLIDYNES/ANGSTROM


                  C  1       C  2       H  3       H  4       H  5       H  6
 ------------------------------------------------------------------------------
     C    1  11.154024
     C    2   0.665844  11.668481
     H    3   3.614235   0.047061   4.340698
     H    4   3.618609   0.022141   0.458535   4.344774
     H    5   0.660851   0.672640   0.018791   0.055432   4.386740
     H    6   0.010320   3.421299   0.002910   0.016831   0.045080   4.228862
     H    7   0.016933   3.374376   0.004004   0.006342   0.015428   0.462726
     H    8   0.043138   3.408157   0.007972   0.002860   0.018087   0.463130
     C    9   7.305548   3.910579   0.654448   0.655499   3.487662   0.709176
     H   10   3.097163   0.362889   0.254489   0.245733   0.261201   0.022636


                  H  7       H  8       C  9       H 10
 ------------------------------------------------------
     H    7   4.189464
     H    8   0.465978   4.219493
     C    9   0.722793   0.715380  12.158893
     H   10   0.031741   0.015812   3.235759   3.590391


          HEAT OF FORMATION =      47.362459 KCALS/MOLE

          ZERO POINT ENERGY      49.979 KCAL/MOL

         NOTE: SYSTEM IS NOT A GROUND STATE, THEREFORE ZERO POINT
         ENERGY IS NOT MEANINGFULL. ZERO POINT ENERGY PRINTED
         DOES NOT INCLUDE THE  1 IMAGINARY FREQUENCIES


           NORMAL COORDINATE ANALYSIS (Total motion = 1 Angstrom)


   Root No.       1         2         3         4         5         6         7         8

                 1 A       2 A       3 A       4 A       5 A       6 A       7 A       8 A   

               -2133.0     149.3     394.6     488.2     857.6     930.6    1011.2    1025.7
  
           1   -0.0182    0.0024    0.0550    0.0147   -0.0034   -0.0332   -0.0158    0.0367
           2    0.0159    0.0140   -0.0182   -0.0110    0.0033    0.0244    0.0038    0.0209
           3   -0.0643   -0.0194   -0.0169    0.0021   -0.0002    0.0086   -0.0360   -0.0194
           4    0.0017   -0.0017   -0.0507   -0.0154   -0.0016    0.0260    0.0355   -0.0448
           5    0.0001    0.0020   -0.0155   -0.0148    0.0058   -0.0180    0.0040   -0.0252
           6   -0.0023   -0.0031   -0.0184    0.0123   -0.0066   -0.0140    0.0285    0.0150
           7   -0.0141    0.0058    0.0225   -0.0601    0.0002   -0.1556   -0.0744    0.0005
           8   -0.0137    0.0193   -0.0754   -0.1308    0.0022   -0.1998   -0.0908   -0.0371
           9    0.0279   -0.0015   -0.1371    0.2355   -0.0606   -0.0249    0.1428    0.1348
          10   -0.0085    0.0066    0.1670    0.0526   -0.0197    0.2009   -0.0876   -0.0223
          11   -0.0222    0.0472   -0.0540    0.1137   -0.1056    0.0173   -0.0893   -0.0767
          12    0.0222   -0.0662    0.0222   -0.1740    0.1509   -0.0195    0.1067    0.1228
          13   -0.0031    0.0024    0.0028   -0.0094    0.0016    0.0883   -0.0284    0.0669
          14    0.0080   -0.0329    0.0423    0.0301   -0.0911   -0.0339    0.0018   -0.0119
          15   -0.0343    0.0809    0.0390    0.0003    0.3017    0.0827    0.0238    0.0167
          16    0.0031    0.0543   -0.1361   -0.0637   -0.0500    0.1019   -0.1019    0.1713
          17   -0.0004   -0.0431   -0.0082   -0.0217   -0.0075   -0.0147    0.0183   -0.0068
          18   -0.0031    0.2011   -0.0405    0.0514    0.0509   -0.0113   -0.0364   -0.0622
          19   -0.0049   -0.1374   -0.0818    0.0388    0.0928    0.0320   -0.0935   -0.1333
          20    0.0009   -0.1389   -0.0222   -0.0716   -0.0744    0.0171    0.0066    0.1276
          21    0.0014   -0.1321   -0.0348    0.0066   -0.0034    0.0090   -0.0304    0.0413
          22    0.0005    0.0702    0.0063   -0.0321   -0.0455   -0.0081    0.1736   -0.0682
          23    0.0004    0.1992   -0.0881   -0.0295   -0.0063    0.0317   -0.1056    0.1072
          24   -0.0027   -0.1114   -0.0673    0.0325    0.0445    0.0154   -0.1192    0.0259
          25   -0.0349    0.0004    0.0006   -0.0034   -0.0018   -0.0074    0.0032    0.0066
          26   -0.0391   -0.0154    0.0461    0.0433    0.0211   -0.0015    0.0118   -0.0029
          27    0.0462    0.0270    0.0509   -0.0230   -0.0303   -0.0026    0.0026   -0.0177
          28    0.6393   -0.0159   -0.0389    0.1225    0.1014   -0.0848   -0.0608    0.0016
          29    0.3020   -0.0573    0.0581   -0.0983   -0.0767    0.1234    0.0263   -0.0174
          30    0.2323   -0.0248    0.0330   -0.0501   -0.0414    0.0428   -0.0284   -0.0156


   Root No.       9        10        11        12        13        14        15        16

                 9 A      10 A      11 A      12 A      13 A      14 A      15 A      16 A   

                1063.9    1085.0    1206.2    1283.4    1290.3    1292.8    1369.7    1391.3
  
           1    0.0239    0.0068   -0.0167   -0.0164   -0.0078    0.0072   -0.0291   -0.0169
           2   -0.0233    0.0234   -0.0435   -0.0218   -0.0122    0.0102   -0.0158   -0.0086
           3   -0.0129   -0.0249   -0.0190   -0.0087   -0.0038    0.0037   -0.0159   -0.0053
           4   -0.0137   -0.0001    0.0487   -0.0149    0.0158    0.0009    0.0105   -0.0632
           5    0.0185    0.0143   -0.0603    0.0073    0.0320    0.0028    0.0001    0.0268
           6   -0.0110   -0.0356   -0.0370   -0.0078    0.0028   -0.0282    0.0004    0.0166
           7    0.0459   -0.0480    0.0374   -0.0093   -0.0034    0.0079    0.1500   -0.0117
           8    0.0332   -0.0706    0.0716   -0.0093   -0.0023    0.0105    0.2719   -0.0063
           9    0.1479    0.0968    0.0180   -0.0256   -0.0145    0.0172    0.2089   -0.0081
          10   -0.0942   -0.0108   -0.1840   -0.0647   -0.0396    0.0377    0.3417   -0.0151
          11    0.0331   -0.0804   -0.0089   -0.0143   -0.0051    0.0021   -0.0804   -0.0043
          12   -0.0660    0.1205   -0.0282   -0.0150   -0.0099    0.0116    0.0594   -0.0078
          13    0.0183   -0.0215   -0.0384    0.3384    0.1975   -0.1543    0.0718    0.0089
          14   -0.0532    0.0392    0.0638    0.0055    0.0069   -0.0053   -0.0039    0.0130
          15    0.1240   -0.1225    0.0597   -0.0289   -0.0148    0.0140   -0.0049    0.0016
          16   -0.0463   -0.0269    0.2112   -0.0821    0.0939    0.0945    0.0043    0.3032
          17    0.0044   -0.0084   -0.0432   -0.0182    0.0182   -0.0683    0.0039    0.0097
          18    0.0378    0.0658   -0.0298    0.1616   -0.0156    0.2818   -0.0116   -0.0378
          19    0.0626    0.1567    0.0493    0.0633   -0.1970   -0.0744    0.0219    0.1884
          20   -0.0376   -0.0854    0.0376    0.1491   -0.1244    0.1654   -0.0207   -0.1532
          21   -0.0042   -0.0048    0.0262    0.1019   -0.1541    0.0432   -0.0033    0.0114
          22   -0.0528   -0.0979   -0.0247    0.0526   -0.1218    0.0086    0.0300    0.1481
          23    0.0075    0.0167    0.0602    0.0141   -0.1923   -0.2254   -0.0151   -0.1533
          24    0.0385    0.0803    0.0209   -0.0641    0.1710    0.0171   -0.0241   -0.1500
          25    0.0079    0.0020   -0.0340    0.0049   -0.0027   -0.0011   -0.0310    0.0271
          26   -0.0148   -0.0157    0.0866    0.0063    0.0066   -0.0037    0.0042    0.0056
          27   -0.0083    0.0435    0.0519    0.0084    0.0057   -0.0087   -0.0026    0.0062
          28   -0.1483   -0.0558   -0.0259    0.0177    0.0075   -0.0024   -0.0279    0.0093
          29    0.2470   -0.0734    0.0237   -0.0290   -0.0154    0.0109   -0.0184    0.0120
          30    0.1060   -0.0331   -0.0178   -0.0332   -0.0180    0.0106   -0.0085   -0.0173


   Root No.      17        18        19        20        21        22        23        24

                17 A      18 A      19 A      20 A      21 A      22 A      23 A      24 A   

                1452.6    2248.6    2669.3    2678.3    2730.5    2764.7    2781.1    2795.9
  
           1   -0.0899   -0.0265   -0.0003    0.0009   -0.0227    0.0075    0.0044   -0.0242
           2   -0.0358    0.0005   -0.0000    0.0006    0.0367   -0.0111   -0.0020   -0.0101
           3   -0.0239   -0.0391   -0.0004    0.0004    0.0161   -0.0035    0.0008   -0.0156
           4   -0.0255   -0.0005    0.0011   -0.0239    0.0001   -0.0070    0.0152    0.0031
           5   -0.0031   -0.0010    0.0299   -0.0332   -0.0019   -0.0023   -0.0091   -0.0022
           6    0.0004    0.0002   -0.0361   -0.0286   -0.0006    0.0000   -0.0051   -0.0014
           7   -0.0272   -0.0105   -0.0014    0.0010    0.3178   -0.1110   -0.0694    0.3051
           8    0.0362   -0.0038    0.0007   -0.0002   -0.1753    0.0630    0.0409   -0.1900
           9    0.0166   -0.0092    0.0001    0.0001    0.0116   -0.0025   -0.0004   -0.0040
          10    0.0674   -0.0110   -0.0000    0.0001   -0.0333    0.0101    0.0017    0.0130
          11   -0.0379   -0.0031   -0.0013   -0.0015   -0.2971    0.0547   -0.0251    0.3140
          12   -0.0192   -0.0099   -0.0006   -0.0013   -0.2165    0.0413   -0.0168    0.2193
          13   -0.1239    0.0098    0.0018   -0.0048    0.0028    0.0140    0.0026    0.0037
          14    0.0247    0.0034    0.0230   -0.0636    0.1597    0.4091    0.1301    0.0658
          15    0.0181   -0.0053    0.0073   -0.0206    0.0529    0.1360    0.0435    0.0217
          16   -0.0582    0.0047   -0.0075    0.0031   -0.0005   -0.0083    0.0143    0.0018
          17   -0.0047    0.0052   -0.2184    0.4075    0.0065   -0.0640    0.2507    0.0492
          18    0.0084    0.0018   -0.0681    0.0740    0.0012   -0.0127    0.0516    0.0104
          19   -0.0922   -0.0021   -0.1732   -0.0165    0.0036    0.0353   -0.0721   -0.0130
          20    0.0697    0.0110   -0.1971   -0.0223    0.0043    0.0477   -0.0994   -0.0179
          21   -0.0035   -0.0112    0.3943   -0.0053   -0.0103   -0.0931    0.1843    0.0329
          22   -0.1124   -0.0021    0.1614    0.3122    0.0116    0.0918   -0.1641   -0.0263
          23    0.0857    0.0015    0.0405    0.0329    0.0010    0.0141   -0.0298   -0.0052
          24    0.1027    0.0061    0.1324    0.2921    0.0108    0.0899   -0.1629   -0.0265
          25    0.1410    0.0356    0.0009   -0.0019   -0.0021   -0.0027    0.0045   -0.0016
          26    0.0185    0.0296   -0.0001    0.0027   -0.0096   -0.0297   -0.0111   -0.0055
          27    0.0213   -0.0210   -0.0031   -0.0000   -0.0031   -0.0101   -0.0044   -0.0032
          28    0.0413   -0.0919   -0.0017    0.0018   -0.0061   -0.0060   -0.0001   -0.0135
          29    0.0694   -0.3615   -0.0030    0.0031    0.0010   -0.0117   -0.0033   -0.0036
          30   -0.0966    0.7415    0.0063   -0.0027    0.0030    0.0034    0.0037   -0.0129


           MASS-WEIGHTED COORDINATE ANALYSIS (NORMAL COORDINATES)


   Root No.       1         2         3         4         5         6         7         8

                 1 A       2 A       3 A       4 A       5 A       6 A       7 A       8 A   

               -2133.0     149.3     394.6     488.2     857.6     930.6    1011.2    1025.7
  
           1   -0.0767    0.0189    0.3847    0.1117   -0.0262   -0.2597   -0.1250    0.2860
           2    0.0671    0.1090   -0.1275   -0.0838    0.0258    0.1905    0.0298    0.1630
           3   -0.2708   -0.1514   -0.1181    0.0157   -0.0017    0.0675   -0.2852   -0.1513
           4    0.0073   -0.0130   -0.3544   -0.1165   -0.0127    0.2029    0.2806   -0.3486
           5    0.0003    0.0157   -0.1082   -0.1119    0.0448   -0.1402    0.0315   -0.1959
           6   -0.0097   -0.0239   -0.1290    0.0935   -0.0515   -0.1090    0.2252    0.1169
           7   -0.0172    0.0131    0.0456   -0.1321    0.0005   -0.3520   -0.1705    0.0011
           8   -0.0167    0.0436   -0.1527   -0.2874    0.0050   -0.4520   -0.2081   -0.0837
           9    0.0341   -0.0034   -0.2777    0.5174   -0.1369   -0.0563    0.3273    0.3040
          10   -0.0104    0.0148    0.3383    0.1156   -0.0444    0.4546   -0.2007   -0.0502
          11   -0.0270    0.1067   -0.1094    0.2498   -0.2386    0.0391   -0.2047   -0.1730
          12    0.0271   -0.1498    0.0450   -0.3823    0.3407   -0.0441    0.2446    0.2771
          13   -0.0037    0.0055    0.0056   -0.0207    0.0036    0.1997   -0.0652    0.1508
          14    0.0098   -0.0745    0.0857    0.0662   -0.2057   -0.0767    0.0041   -0.0269
          15   -0.0418    0.1831    0.0789    0.0007    0.6814    0.1872    0.0545    0.0377
          16    0.0038    0.1229   -0.2758   -0.1399   -0.1130    0.2305   -0.2335    0.3864
          17   -0.0005   -0.0975   -0.0165   -0.0477   -0.0169   -0.0333    0.0420   -0.0152
          18   -0.0038    0.4550   -0.0820    0.1130    0.1148   -0.0255   -0.0835   -0.1402
          19   -0.0060   -0.3110   -0.1658    0.0853    0.2095    0.0724   -0.2143   -0.3006
          20    0.0012   -0.3143   -0.0450   -0.1572   -0.1680    0.0386    0.0152    0.2879
          21    0.0017   -0.2990   -0.0705    0.0145   -0.0076    0.0205   -0.0697    0.0932
          22    0.0006    0.1589    0.0128   -0.0705   -0.1028   -0.0183    0.3979   -0.1538
          23    0.0005    0.4507   -0.1786   -0.0648   -0.0143    0.0717   -0.2420    0.2417
          24   -0.0033   -0.2521   -0.1364    0.0715    0.1005    0.0348   -0.2733    0.0584
          25   -0.1470    0.0032    0.0039   -0.0261   -0.0139   -0.0577    0.0257    0.0518
          26   -0.1646   -0.1204    0.3223    0.3281    0.1645   -0.0116    0.0932   -0.0226
          27    0.1944    0.2107    0.3559   -0.1743   -0.2363   -0.0202    0.0209   -0.1380
          28    0.7799   -0.0359   -0.0788    0.2691    0.2289   -0.1918   -0.1395    0.0035
          29    0.3685   -0.1296    0.1177   -0.2160   -0.1732    0.2791    0.0602   -0.0393
          30    0.2834   -0.0561    0.0669   -0.1101   -0.0934    0.0969   -0.0652   -0.0352


   Root No.       9        10        11        12        13        14        15        16

                 9 A      10 A      11 A      12 A      13 A      14 A      15 A      16 A   

                1063.9    1085.0    1206.2    1283.4    1290.3    1292.8    1369.7    1391.3
  
           1    0.1877    0.0564   -0.0960   -0.1224   -0.0560    0.0529   -0.1820   -0.1072
           2   -0.1835    0.1932   -0.2494   -0.1619   -0.0876    0.0754   -0.0986   -0.0548
           3   -0.1016   -0.2053   -0.1091   -0.0646   -0.0275    0.0271   -0.0995   -0.0339
           4   -0.1078   -0.0006    0.2791   -0.1112    0.1136    0.0064    0.0654   -0.4012
           5    0.1454    0.1182   -0.3461    0.0541    0.2304    0.0204    0.0006    0.1699
           6   -0.0865   -0.2935   -0.2121   -0.0579    0.0199   -0.2083    0.0022    0.1054
           7    0.1046   -0.1146    0.0622   -0.0200   -0.0071    0.0169    0.2716   -0.0216
           8    0.0757   -0.1687    0.1190   -0.0201   -0.0047    0.0225    0.4922   -0.0116
           9    0.3369    0.2312    0.0298   -0.0552   -0.0303    0.0369    0.3782   -0.0149
          10   -0.2146   -0.0257   -0.3057   -0.1393   -0.0827    0.0809    0.6186   -0.0278
          11    0.0754   -0.1920   -0.0149   -0.0309   -0.0107    0.0045   -0.1455   -0.0079
          12   -0.1503    0.2878   -0.0469   -0.0323   -0.0208    0.0249    0.1075   -0.0143
          13    0.0417   -0.0513   -0.0637    0.7293    0.4126   -0.3305    0.1299    0.0163
          14   -0.1213    0.0936    0.1060    0.0119    0.0145   -0.0113   -0.0070    0.0239
          15    0.2825   -0.2927    0.0992   -0.0624   -0.0308    0.0300   -0.0089    0.0029
          16   -0.1055   -0.0643    0.3510   -0.1769    0.1961    0.2025    0.0077    0.5580
          17    0.0099   -0.0202   -0.0718   -0.0391    0.0381   -0.1464    0.0071    0.0178
          18    0.0862    0.1571   -0.0496    0.3482   -0.0325    0.6038   -0.0211   -0.0695
          19    0.1426    0.3744    0.0819    0.1364   -0.4116   -0.1594    0.0396    0.3466
          20   -0.0857   -0.2041    0.0624    0.3213   -0.2599    0.3542   -0.0375   -0.2819
          21   -0.0096   -0.0115    0.0435    0.2197   -0.3220    0.0926   -0.0060    0.0210
          22   -0.1202   -0.2338   -0.0410    0.1134   -0.2544    0.0185    0.0544    0.2725
          23    0.0172    0.0400    0.1001    0.0304   -0.4016   -0.4829   -0.0273   -0.2820
          24    0.0876    0.1919    0.0346   -0.1381    0.3573    0.0366   -0.0436   -0.2761
          25    0.0618    0.0162   -0.1951    0.0363   -0.0196   -0.0083   -0.1936    0.1720
          26   -0.1167   -0.1298    0.4969    0.0466    0.0474   -0.0275    0.0260    0.0354
          27   -0.0654    0.3584    0.2977    0.0621    0.0414   -0.0643   -0.0159    0.0395
          28   -0.3378   -0.1333   -0.0431    0.0382    0.0156   -0.0050   -0.0505    0.0171
          29    0.5629   -0.1754    0.0393   -0.0625   -0.0323    0.0233   -0.0333    0.0221
          30    0.2416   -0.0790   -0.0296   -0.0715   -0.0376    0.0228   -0.0153   -0.0319


   Root No.      17        18        19        20        21        22        23        24

                17 A      18 A      19 A      20 A      21 A      22 A      23 A      24 A   

                1452.6    2248.6    2669.3    2678.3    2730.5    2764.7    2781.1    2795.9
  
           1   -0.4571   -0.1057   -0.0017    0.0049   -0.1380    0.0512    0.0337   -0.1529
           2   -0.1820    0.0021   -0.0001    0.0033    0.2225   -0.0757   -0.0150   -0.0637
           3   -0.1215   -0.1561   -0.0023    0.0024    0.0976   -0.0240    0.0064   -0.0985
           4   -0.1298   -0.0019    0.0064   -0.1322    0.0003   -0.0478    0.1171    0.0195
           5   -0.0157   -0.0039    0.1750   -0.1834   -0.0114   -0.0155   -0.0699   -0.0140
           6    0.0019    0.0007   -0.2110   -0.1580   -0.0036    0.0002   -0.0393   -0.0088
           7   -0.0401   -0.0122   -0.0023    0.0015    0.5587   -0.2196   -0.1545    0.5584
           8    0.0533   -0.0043    0.0011   -0.0003   -0.3083    0.1247    0.0911   -0.3477
           9    0.0245   -0.0106    0.0002    0.0001    0.0204   -0.0050   -0.0008   -0.0073
          10    0.0993   -0.0127   -0.0000    0.0002   -0.0585    0.0200    0.0038    0.0238
          11   -0.0558   -0.0036   -0.0021   -0.0023   -0.5223    0.1083   -0.0559    0.5746
          12   -0.0282   -0.0114   -0.0010   -0.0021   -0.3807    0.0818   -0.0373    0.4014
          13   -0.1825    0.0113    0.0030   -0.0076    0.0050    0.0278    0.0058    0.0068
          14    0.0363    0.0039    0.0389   -0.1017    0.2808    0.8097    0.2898    0.1203
          15    0.0267   -0.0062    0.0123   -0.0330    0.0931    0.2691    0.0969    0.0396
          16   -0.0857    0.0054   -0.0128    0.0050   -0.0009   -0.0165    0.0318    0.0033
          17   -0.0069    0.0060   -0.3697    0.6520    0.0115   -0.1266    0.5583    0.0901
          18    0.0124    0.0021   -0.1153    0.1183    0.0021   -0.0251    0.1148    0.0190
          19   -0.1358   -0.0024   -0.2932   -0.0265    0.0064    0.0700   -0.1605   -0.0239
          20    0.1026    0.0128   -0.3336   -0.0356    0.0076    0.0944   -0.2214   -0.0327
          21   -0.0051   -0.0129    0.6676   -0.0084   -0.0181   -0.1842    0.4104    0.0603
          22   -0.1656   -0.0024    0.2732    0.4995    0.0203    0.1817   -0.3654   -0.0482
          23    0.1262    0.0017    0.0685    0.0526    0.0018    0.0279   -0.0664   -0.0095
          24    0.1513    0.0071    0.2241    0.4674    0.0191    0.1779   -0.3628   -0.0485
          25    0.7171    0.1422    0.0054   -0.0103   -0.0130   -0.0182    0.0343   -0.0101
          26    0.0940    0.1181   -0.0005    0.0150   -0.0583   -0.2029   -0.0855   -0.0348
          27    0.1082   -0.0838   -0.0180   -0.0002   -0.0190   -0.0692   -0.0335   -0.0204
          28    0.0609   -0.1063   -0.0029    0.0028   -0.0107   -0.0119   -0.0002   -0.0246
          29    0.1022   -0.4182   -0.0051    0.0049    0.0017   -0.0232   -0.0073   -0.0066
          30   -0.1423    0.8578    0.0106   -0.0044    0.0052    0.0066    0.0082   -0.0237


          DESCRIPTION OF VIBRATIONS


 VIBRATION          1    1A           ATOM PAIR      ENERGY CONTRIBUTION    RADIAL
 FREQUENCY         -2133.02         C  9 -- H 10         -50.4% (-90.3%)     47.4%
 TRANSITION DIPOLE   0.8190         C  1 -- H 10         -50.0% (-90.0%)     53.3%
 TRAVEL (Ang.)       0.1918         C  1 -- C  9          -0.9% (-12.1%)      0.1%
 REDUCED MASS        0.8590         H  5 -- C  9          -0.4% ( -8.2%)      8.9%
 EFFECTIVE MASS      1.9376
 FORCE CONSTANT     -2.3028

 VIBRATION          2    2A           ATOM PAIR      ENERGY CONTRIBUTION    RADIAL
 FREQUENCY           149.35         C  2 -- H  8         +33.2% (348.0%)      0.1%
 TRANSITION DIPOLE   0.1068         C  2 -- H  7         +32.4% (343.9%)      0.1%
 TRAVEL (Ang.)       0.0000         C  2 -- H  6         +28.1% (319.8%)      0.0%
 REDUCED MASS        0.2815         C  9 -- H 10          +3.6% (114.0%)     27.2%
 EFFECTIVE MASS      2.8950
 FORCE CONSTANT      0.0037

 VIBRATION          3    3A           ATOM PAIR      ENERGY CONTRIBUTION    RADIAL
 FREQUENCY           394.60         C  2 -- C  9         +16.2% (151.8%)      0.0%
 TRANSITION DIPOLE   0.2355         C  1 -- C  9         +15.9% (150.6%)      0.0%
 TRAVEL (Ang.)       0.3567         C  1 -- H  4         +11.1% (126.0%)     40.1%
 REDUCED MASS        1.3432         C  9 -- H 10         +10.8% (123.8%)      0.3%
 EFFECTIVE MASS     23.7325
 FORCE CONSTANT      0.1232

 VIBRATION          4    4A           ATOM PAIR      ENERGY CONTRIBUTION    RADIAL
 FREQUENCY           488.24         C  1 -- H  3         +22.6% ( 96.3%)      2.7%
 TRANSITION DIPOLE   0.3225         C  9 -- H 10         +20.6% ( 91.8%)     10.4%
 TRAVEL (Ang.)       0.5503         C  1 -- H  4         +15.6% ( 80.1%)      0.6%
 REDUCED MASS        0.4561         C  2 -- C  9          +9.3% ( 61.9%)      0.1%
 EFFECTIVE MASS      4.2911
 FORCE CONSTANT      0.0641

 VIBRATION          5    5A           ATOM PAIR      ENERGY CONTRIBUTION    RADIAL
 FREQUENCY           857.65         H  5 -- C  9         +48.6% ( 76.5%)      0.5%
 TRANSITION DIPOLE   0.7555         C  1 -- H  4         +12.3% ( 38.5%)      0.2%
 TRAVEL (Ang.)       0.4502         C  9 -- H 10         +11.8% ( 37.7%)     12.9%
 REDUCED MASS        0.3879         C  2 -- H  7         +11.2% ( 36.7%)      3.6%
 EFFECTIVE MASS      1.5606
 FORCE CONSTANT      0.1681

 VIBRATION          6    6A           ATOM PAIR      ENERGY CONTRIBUTION    RADIAL
 FREQUENCY           930.63         C  1 -- H  3         +26.8% ( 73.9%)     15.8%
 TRANSITION DIPOLE   0.2070         C  1 -- H  4         +24.1% ( 70.0%)      5.1%
 TRAVEL (Ang.)       0.4339         C  1 -- H 10         +10.5% ( 46.2%)     10.8%
 REDUCED MASS        0.3849         C  2 -- H  6          +6.6% ( 36.6%)     78.9%
 EFFECTIVE MASS      3.2678
 FORCE CONSTANT      0.1964

 VIBRATION          7    7A           ATOM PAIR      ENERGY CONTRIBUTION    RADIAL
 FREQUENCY          1011.18         C  2 -- H  8         +29.8% ( 66.7%)     26.4%
 TRANSITION DIPOLE   0.5613         C  2 -- H  6         +16.2% ( 49.2%)      1.9%
 TRAVEL (Ang.)       0.3781         C  2 -- H  7         +14.5% ( 46.5%)      1.8%
 REDUCED MASS        0.4664         C  1 -- H  3         +11.5% ( 41.4%)      1.8%
 EFFECTIVE MASS      3.4085
 FORCE CONSTANT      0.2810

 VIBRATION          8    8A           ATOM PAIR      ENERGY CONTRIBUTION    RADIAL
 FREQUENCY          1025.65         C  2 -- H  6         +24.2% ( 66.9%)      4.4%
 TRANSITION DIPOLE   0.4687         C  2 -- H  7         +17.5% ( 57.0%)     26.6%
 TRAVEL (Ang.)       0.3140         C  2 -- H  8         +13.2% ( 49.5%)      9.8%
 REDUCED MASS        0.6668         C  1 -- H  4         +10.9% ( 45.0%)      0.3%
 EFFECTIVE MASS      4.5131         C  2 -- C  9         +10.3% ( 43.8%)     49.5%
 FORCE CONSTANT      0.4133

 VIBRATION          9    9A           ATOM PAIR      ENERGY CONTRIBUTION    RADIAL
 FREQUENCY          1063.91         C  1 -- H 10         +28.6% ( 66.7%)      0.0%
 TRANSITION DIPOLE   0.7838         C  9 -- H 10         +24.6% ( 61.8%)      0.0%
 TRAVEL (Ang.)       0.4109         C  1 -- H  3         +11.6% ( 42.5%)     16.2%
 REDUCED MASS        0.3754         C  1 -- H  4          +9.8% ( 39.0%)     12.6%
 EFFECTIVE MASS      2.5019
 FORCE CONSTANT      0.2503

 VIBRATION         10   10A           ATOM PAIR      ENERGY CONTRIBUTION    RADIAL
 FREQUENCY          1084.98         C  2 -- H  7         +25.8% ( 51.0%)     20.2%
 TRANSITION DIPOLE   0.7778         C  2 -- H  8         +18.8% ( 43.5%)      9.1%
 TRAVEL (Ang.)       0.3404         C  2 -- H  6         +12.0% ( 34.8%)      1.0%
 REDUCED MASS        0.5363         H  5 -- C  9         +11.8% ( 34.5%)      0.0%
 EFFECTIVE MASS      3.0928         C  2 -- C  9         +11.2% ( 33.7%)      1.1%
 FORCE CONSTANT      0.3720         C  1 -- H  4         +11.1% ( 33.4%)      0.2%

 VIBRATION         11   11A           ATOM PAIR      ENERGY CONTRIBUTION    RADIAL
 FREQUENCY          1206.17         C  2 -- C  9         +25.9% ( 78.4%)     66.0%
 TRANSITION DIPOLE   0.4953         C  1 -- C  9         +16.3% ( 62.1%)     15.2%
 TRAVEL (Ang.)       0.1497         C  9 -- H 10         +11.6% ( 52.5%)      0.1%
 REDUCED MASS        2.4955         C  2 -- H  6          +9.5% ( 47.3%)     87.2%
 EFFECTIVE MASS      8.8877
 FORCE CONSTANT      2.1391

 VIBRATION         12   12A           ATOM PAIR      ENERGY CONTRIBUTION    RADIAL
 FREQUENCY          1283.39         H  5 -- C  9         +52.3% ( 70.2%)      0.6%
 TRANSITION DIPOLE   0.3155         C  2 -- H  6         +12.2% ( 34.0%)      0.1%
 TRAVEL (Ang.)       0.3749         C  2 -- H  7         +11.9% ( 33.5%)      0.5%
 REDUCED MASS        0.3737         C  1 -- C  9          +5.4% ( 22.6%)     79.0%
 EFFECTIVE MASS      1.7348
 FORCE CONSTANT      0.3627

 VIBRATION         13   13A           ATOM PAIR      ENERGY CONTRIBUTION    RADIAL
 FREQUENCY          1290.31         C  2 -- H  8         +33.3% ( 52.7%)      1.6%
 TRANSITION DIPOLE   0.4443         C  2 -- H  7         +32.0% ( 51.7%)      1.7%
 TRAVEL (Ang.)       0.3985         H  5 -- C  9         +19.4% ( 40.2%)      0.9%
 REDUCED MASS        0.3291         C  2 -- H  6          +5.3% ( 21.1%)     80.7%
 EFFECTIVE MASS      1.7001
 FORCE CONSTANT      0.3228

 VIBRATION         14   14A           ATOM PAIR      ENERGY CONTRIBUTION    RADIAL
 FREQUENCY          1292.79         C  2 -- H  6         +40.3% ( 55.6%)      0.0%
 TRANSITION DIPOLE   0.5209         C  2 -- H  8         +21.8% ( 40.9%)      4.4%
 TRAVEL (Ang.)       0.4158         C  2 -- H  7         +16.8% ( 35.9%)     10.7%
 REDUCED MASS        0.3017         H  5 -- C  9         +13.3% ( 32.0%)      1.2%
 EFFECTIVE MASS      1.4863
 FORCE CONSTANT      0.2971

 VIBRATION         15   15A           ATOM PAIR      ENERGY CONTRIBUTION    RADIAL
 FREQUENCY          1369.68         C  1 -- H  3         +41.8% ( 61.1%)      0.6%
 TRANSITION DIPOLE   0.4466         C  1 -- H  4         +37.6% ( 57.9%)      1.6%
 TRAVEL (Ang.)       0.3352         H  5 -- C  9          +5.4% ( 21.9%)      0.4%
 REDUCED MASS        0.4381         C  1 -- H 10          +4.3% ( 19.5%)     46.5%
 EFFECTIVE MASS      1.6897
 FORCE CONSTANT      0.4842

 VIBRATION         16   16A           ATOM PAIR      ENERGY CONTRIBUTION    RADIAL
 FREQUENCY          1391.34         C  2 -- H  6         +30.2% ( 62.0%)      1.7%
 TRANSITION DIPOLE   0.8086         C  2 -- H  8         +24.2% ( 55.5%)      3.0%
 TRAVEL (Ang.)       0.2641         C  2 -- H  7         +22.5% ( 53.5%)      1.7%
 REDUCED MASS        0.6950         C  2 -- C  9         +12.9% ( 40.6%)     93.7%
 EFFECTIVE MASS      3.4014
 FORCE CONSTANT      0.7926

 VIBRATION         17   17A           ATOM PAIR      ENERGY CONTRIBUTION    RADIAL
 FREQUENCY          1452.58         C  1 -- C  9         +31.7% ( 89.1%)     95.0%
 TRANSITION DIPOLE   0.7273         H  5 -- C  9         +15.6% ( 62.5%)      1.3%
 TRAVEL (Ang.)       0.1047         C  2 -- C  9         +15.2% ( 61.6%)     60.5%
 REDUCED MASS        4.2383         C  9 -- H 10         +15.2% ( 61.6%)      6.7%
 EFFECTIVE MASS     10.0366
 FORCE CONSTANT      5.2689

 VIBRATION         18   18A           ATOM PAIR      ENERGY CONTRIBUTION    RADIAL
 FREQUENCY          2248.63         C  9 -- H 10         +49.1% ( 96.4%)     85.7%
 TRANSITION DIPOLE   0.7027         C  1 -- H 10         +48.7% ( 96.0%)     82.1%
 TRAVEL (Ang.)       0.1833         C  1 -- C  9          +1.2% ( 15.1%)     99.8%
 REDUCED MASS        0.8924         C  2 -- C  9          +0.3% (  7.4%)     24.6%
 EFFECTIVE MASS      1.5262
 FORCE CONSTANT      2.6585

 VIBRATION         19   19A           ATOM PAIR      ENERGY CONTRIBUTION    RADIAL
 FREQUENCY          2669.33         C  2 -- H  7         +68.0% ( 85.0%)     99.7%
 TRANSITION DIPOLE   0.6131         C  2 -- H  6         +16.6% ( 41.9%)     86.4%
 TRAVEL (Ang.)       0.2195         C  2 -- H  8         +14.4% ( 39.1%)     84.2%
 REDUCED MASS        0.5242         C  2 -- C  9          +0.8% (  9.4%)      0.2%
 EFFECTIVE MASS      1.4353
 FORCE CONSTANT      2.2005

 VIBRATION         20   20A           ATOM PAIR      ENERGY CONTRIBUTION    RADIAL
 FREQUENCY          2678.27         C  2 -- H  8         +50.1% ( 73.0%)     98.2%
 TRANSITION DIPOLE   0.4897         C  2 -- H  6         +46.9% ( 70.6%)     97.7%
 TRAVEL (Ang.)       0.2273         H  5 -- C  9          +1.2% ( 11.1%)     99.6%
 REDUCED MASS        0.4874         C  2 -- C  9          +0.9% (  9.9%)      0.3%
 EFFECTIVE MASS      1.4450
 FORCE CONSTANT      2.0601

 VIBRATION         21   21A           ATOM PAIR      ENERGY CONTRIBUTION    RADIAL
 FREQUENCY          2730.54         C  1 -- H  4         +45.2% ( 69.6%)     98.4%
 TRANSITION DIPOLE   0.5482         C  1 -- H  3         +43.9% ( 68.6%)     98.4%
 TRAVEL (Ang.)       0.2404         H  5 -- C  9          +8.7% ( 30.5%)     99.9%
 REDUCED MASS        0.4274         C  1 -- C  9          +1.0% ( 10.4%)      1.4%
 EFFECTIVE MASS      1.4787
 FORCE CONSTANT      1.8775

 VIBRATION         22   22A           ATOM PAIR      ENERGY CONTRIBUTION    RADIAL
 FREQUENCY          2764.70         H  5 -- C  9         +76.4% ( 87.9%)    100.0%
 TRANSITION DIPOLE   0.6939         C  1 -- H  3          +7.0% ( 26.5%)     99.1%
 TRAVEL (Ang.)       0.2062         C  2 -- H  8          +6.3% ( 25.2%)     98.5%
 REDUCED MASS        0.5735         C  2 -- H  7          +4.5% ( 21.3%)     97.0%
 EFFECTIVE MASS      1.3408
 FORCE CONSTANT      2.5827

 VIBRATION         23   23A           ATOM PAIR      ENERGY CONTRIBUTION    RADIAL
 FREQUENCY          2781.09         C  2 -- H  6         +33.3% ( 55.8%)     96.3%
 TRANSITION DIPOLE   0.5060         C  2 -- H  8         +27.1% ( 50.4%)     94.9%
 TRAVEL (Ang.)       0.3079         C  2 -- H  7         +24.3% ( 47.6%)     94.0%
 REDUCED MASS        0.2557         H  5 -- C  9         +10.7% ( 31.7%)     99.0%
 EFFECTIVE MASS      1.1789
 FORCE CONSTANT      1.1654

 VIBRATION         24   24A           ATOM PAIR      ENERGY CONTRIBUTION    RADIAL
 FREQUENCY          2795.93         C  1 -- H  4         +50.8% ( 70.1%)     96.4%
 TRANSITION DIPOLE   0.6419         C  1 -- H  3         +44.4% ( 65.6%)     95.4%
 TRAVEL (Ang.)       0.2316         H  5 -- C  9          +1.8% ( 13.1%)     99.1%
 REDUCED MASS        0.4496         C  2 -- H  6          +0.8% (  9.0%)     95.4%
 EFFECTIVE MASS      1.2312
 FORCE CONSTANT      2.0708

           FORCE CONSTANT IN CARTESIAN COORDINATES (Millidynes/A)

    ATOM   CHEMICAL       X               Y               Z
   NUMBER   SYMBOL  FORCE CONSTANT  FORCE CONSTANT  FORCE CONSTANT

      1       C        8.403106        5.827180        1.349840
      2       C        7.377388        6.590622        6.134163
      3       H        3.347140        1.550026        0.457848
      4       H        0.749474        2.945367        1.674434
      5       H        0.906084        3.880399        0.772610
      6       H        0.769352        3.963650        0.721542
      7       H        1.112255        1.253469        3.003499
      8       H        2.520595        0.651417        2.256979
      9       C        9.204339        6.025304        2.381327
     10       H       -1.439803        0.482396        2.088786
 *******************************************************************************
 ** Site#: 37037        For non-commercial use only           Version 21.158W **
 *******************************************************************************
 ** Cite this program as: MOPAC2016, Version: 21.158W, James J. P. Stewart,   **
 ** Stewart Computational Chemistry, web: HTTP://OpenMOPAC.net. Days left: 363**
 *******************************************************************************
 **                                                                           **
 **                                MOPAC2016                                  **
 **                                                                           **
 *******************************************************************************

                              PM7 CALCULATION RESULTS

 *******************************************************************************
 *  CALCULATION DONE:                                Wed Jun  9 11:00:52 2021  *
 *  IRC=N      - INTRINSIC REACTION COORDINATE  1 DEFINED
 *  OLDGEO     - PREVIOUS GEOMETRY TO BE USED
 *  RESTART    - CALCULATION RESTARTED
 *  T=         - A TIME OF 172800.0 SECONDS REQUESTED
 *  DUMP=N     - RESTART FILE WRITTEN EVERY 7200.0 SECONDS REQUESTED
 *  HTML       - WRITE HTML SCRIPT TO GENERATE ANIMATION USING JSMOL
 *             - TO DISPLAY IN PDB FORMAT, ADD "PDBOUT"
 *  X-PRIOR    - GEOMETRY CHANGES TAKE PRIORITY IN DRC
 *******************************************************************************
IRC=1* oldgeo restart html X-PRIORITY=0.05
 IRC Reaction path for hydrogen migration in propyl radical

   ATOM                 CHEMICAL                   X               Y               Z
  NUMBER                 SYMBOL               (ANGSTROMS)     (ANGSTROMS)     (ANGSTROMS)
 
     1       C(HETATM    1  C1  HET A   1)   -0.01396746  *   0.13786866  *   0.04542773  *
     2       C(HETATM    3  C3  HET A   1)    2.14041625  *   1.51068825  *  -0.03623340  *
     3       H(HETATM    4 1H1  HET A   1)   -0.67782220  *  -0.47669763  *   0.61963087  *
     4       H(HETATM    5 2H1  HET A   1)   -0.51186810  *   0.82131894  *  -0.61265719  *
     5       H(HETATM    7  H2  HET A   1)    1.73283095  *  -0.14879431  *   1.33465850  *
     6       H(HETATM    8 1H3  HET A   1)    1.78313500  *   1.89599982  *  -0.99950281  *
     7       H(HETATM    9 2H3  HET A   1)    2.06520799  *   2.34178347  *   0.68299095  *
     8       H(HETATM   10 3H3  HET A   1)    3.20673944  *   1.27467436  *  -0.14798704  *
     9       C(HETATM    2  C2  HET A   1)    1.35804767  *   0.33614167  *   0.44190609  *
    10       H(HETATM    6 3H1  HET A   1)    1.04168917  *  -0.58109543  *  -0.55230461  *
 

 General Reference for PM7:
 "Optimization of Parameters for Semiempirical Methods VI: More Modifications to the 
 NDDO Approximations and Re-optimization of Parameters", J. J. P. Stewart, J. Mol. Mod., 1:32, 19 (2013)
 https://link.springer.com/article/10.1007/s00894-012-1667-x

           Empirical Formula: C3 H7  =    10 atoms



      MOLECULAR POINT GROUP   :   C1  


          UHF CALCULATION, NO. OF ALPHA ELECTRONS =   10
                           NO. OF BETA  ELECTRONS =    9

          MOLECULAR WEIGHT =   43.09


          ESTIMATED TIME TO COMPLETE CALCULATION =        0.00 SECONDS

          TIME USED UP TO RESTART =                  0.24

    FOR POINT-GROUP C1   THERE ARE   1 UNIQUE SYMMETRY FUNCTIONS.

           INITIAL VELOCITY IN DRC (Angstroms/Femtosecond)
        -0.01820         0.01592        -0.06430
         0.00174         0.00006        -0.00231
        -0.01413        -0.01367         0.02792
        -0.00855        -0.02216         0.02221
        -0.00306         0.00804        -0.03430
         0.00311        -0.00038        -0.00312
        -0.00494         0.00094         0.00136
         0.00045         0.00039        -0.00269
        -0.03490        -0.03907         0.04617
         0.63925         0.30199         0.23226

 GEOMETRY PRIORITY, STEP = 0.0500 ANGSTROMS



     POINT   POTENTIAL  +  ENERGY LOST   =   TOTAL      ERROR    REF%   MOVEMENT
       1      47.36243      0.00000         47.36243   0.00000     1   %  0.0000
      23      47.04024      0.27061         47.31086  -0.04127     2   %  0.0498
      59      46.12973      1.17179         47.30152  -0.05060     3   %  0.0995
      92      44.75135      2.54234         47.29369  -0.05844     4   %  0.1489
     121      42.99738      4.28954         47.28693  -0.06520     5   %  0.1994
     145      41.07072      6.21117         47.28189  -0.07023     6   %  0.2485
     157      39.11555      8.16434         47.27989  -0.07223     7   %  0.2955
     163      37.12269     10.15653         47.27923  -0.07290     8   %  0.3424
     170      34.69627     12.58524         47.28151  -0.07061     9   %  0.3998
     183      32.63394     14.65020         47.28414  -0.06798    10   %  0.4497
     197      30.64923     16.63781         47.28704  -0.06509    11   %  0.4996
     213      28.75977     18.53032         47.29009  -0.06203    12   %  0.5495
     228      26.97805     20.31518         47.29323  -0.05889    13   %  0.5994
     244      25.31115     21.98526         47.29641  -0.05571    14   %  0.6492
     260      23.76300     23.53659         47.29959  -0.05253    15   %  0.6990
     276      22.33468     24.96807         47.30275  -0.04937    16   %  0.7487
     292      21.02511     26.28075         47.30586  -0.04627    17   %  0.7984
     307      19.83171     27.47721         47.30892  -0.04320    18   %  0.8479
     322      18.81210     28.49949         47.31159  -0.04053    19   %  0.8944
     336      17.78890     29.52578         47.31468  -0.03744    20   %  0.9460
     349      16.93152     30.38573         47.31725  -0.03487    21   %  0.9942
     361      16.19692     31.12285         47.31977  -0.03235    22   %  1.0400
     374      15.43882     31.88393         47.32275  -0.02938    23   %  1.0931
     386      14.83599     32.48925         47.32524  -0.02688    24   %  1.1410
     398      14.31266     33.01496         47.32761  -0.02451    25   %  1.1878
     408      13.87802     33.45184         47.32986  -0.02226    26   %  1.2318
     417      13.50407     33.82795         47.33202  -0.02010    27   %  1.2744
     426      13.15912     34.17559         47.33471  -0.01741    28   %  1.3191
     434      12.88867     34.44818         47.33684  -0.01528    29   %  1.3591
     443      12.66203     34.67677         47.33880  -0.01332    30   %  1.3971
     450      12.47317     34.86746         47.34063  -0.01149    31   %  1.4333
     458      12.33111     35.01079         47.34190  -0.01022    32   %  1.4642
     466      12.19049     35.15277         47.34327  -0.00886    33   %  1.4994
     473      12.08264     35.26205         47.34469  -0.00743    34   %  1.5310
     480      11.97726     35.36876         47.34602  -0.00610    35   %  1.5675
     487      11.89435     35.45292         47.34727  -0.00485    36   %  1.6014
     493      11.82202     35.52635         47.34837  -0.00375    37   %  1.6355
     500      11.75921     35.59018         47.34940  -0.00273    38   %  1.6694
     506      11.70108     35.64936         47.35045  -0.00168    39   %  1.7054
     512      11.65559     35.69592         47.35151  -0.00061    40   %  1.7379
     518      11.61123     35.74134         47.35257   0.00044    41   %  1.7749
     524      11.57782     35.77581         47.35363   0.00150    42   %  1.8077
     530      11.54527     35.80938         47.35466   0.00253    43   %  1.8451
     536      11.52108     35.83460         47.35568   0.00356    44   %  1.8773
     542      11.49542     35.86134         47.35675   0.00463    45   %  1.9160
     549      11.47412     35.88354         47.35766   0.00554    46   %  1.9517
     555      11.45447     35.90445         47.35892   0.00680    47   %  1.9875
     562      11.43607     35.92420         47.36027   0.00815    48   %  2.0233
     569      11.41858     35.94328         47.36186   0.00973    49   %  2.0595
     578      11.40195     35.96155         47.36350   0.01137    50   %  2.0958
     587      11.38605     35.97922         47.36527   0.01315    51   %  2.1326
     595      11.37103     35.99613         47.36717   0.01504    52   %  2.1697
     605      11.35640     36.01254         47.36895   0.01682    53   %  2.2078
     613      11.34293     36.02797         47.37090   0.01878    54   %  2.2460
     622      11.32965     36.04303         47.37268   0.02056    55   %  2.2854
     633      11.31770     36.05755         47.37526   0.02313    56   %  2.3237
     642      11.30618     36.07078         47.37696   0.02484    57   %  2.3636
     652      11.29491     36.08407         47.37898   0.02686    58   %  2.4060
     662      11.28490     36.09632         47.38123   0.02910    59   %  2.4474
     673      11.27528     36.10889         47.38417   0.03205    60   %  2.4899
     684      11.26665     36.12008         47.38673   0.03460    61   %  2.5322
     695      11.25930     36.13018         47.38948   0.03736    62   %  2.5726
     708      11.25201     36.14211         47.39412   0.04199    63   %  2.6175
     727      11.24426     36.15804         47.40229   0.05017    64   %  2.6655
     742      11.23807     36.17113         47.40919   0.05707    65   %  2.7116
     758      11.23319     36.18696         47.42016   0.06803    66   %  2.7563
     785      11.22795     36.22061         47.44856   0.09644    67   %  2.8018
     813      11.22389     36.26285         47.48674   0.13462    68   %  2.8462
     844      11.22048     36.29822         47.51870   0.16658    69   %  2.8907
     877      11.21732     36.35508         47.57240   0.22028    70   %  2.9327
     936      11.21442     36.43415         47.64856   0.29644    71   %  2.9792
    1000      11.21541     36.53335         47.74876   0.39664    72   %  3.0190
    1102      11.21057     36.73113         47.94170   0.58958    73   %  3.0615


 IRC CALCULATION COMPLETE 
           INITIAL VELOCITY IN DRC (Angstroms/Femtosecond)
         0.01820        -0.01592         0.06430
        -0.00174        -0.00006         0.00231
         0.01413         0.01367        -0.02792
         0.00855         0.02216        -0.02221
         0.00306        -0.00804         0.03430
        -0.00311         0.00038         0.00312
         0.00494        -0.00094        -0.00136
        -0.00045        -0.00039         0.00269
         0.03490         0.03907        -0.04617
        -0.63925        -0.30199        -0.23226

 GEOMETRY PRIORITY, STEP = 0.0500 ANGSTROMS



     POINT   POTENTIAL  +  ENERGY LOST   =   TOTAL      ERROR    REF%   MOVEMENT
       1      47.36243      0.00000         47.36243   0.00000     1   %  0.0000
      27      47.04842      0.25969         47.30811  -0.04419     2   %  0.0490
      69      46.09557      1.20238         47.29795  -0.05435     3   %  0.0990
     103      44.58022      2.70941         47.28963  -0.06267     4   %  0.1496
     132      42.69300      4.58987         47.28287  -0.06943     5   %  0.1989
     157      40.51629      6.76159         47.27788  -0.07442     6   %  0.2485
     176      38.13451      9.14009         47.27460  -0.07770     7   %  0.2990
     182      35.75390     11.52002         47.27392  -0.07838     8   %  0.3479
     188      33.34015     13.93662         47.27677  -0.07553     9   %  0.3973
     202      30.81957     16.46021         47.27978  -0.07252    10   %  0.4498
     217      28.49546     18.78742         47.28288  -0.06942    11   %  0.4998
     233      26.26753     21.01859         47.28611  -0.06619    12   %  0.5497
     250      24.15029     23.13913         47.28942  -0.06288    13   %  0.5996
     267      22.15256     25.14021         47.29277  -0.05953    14   %  0.6494
     284      20.27877     27.01734         47.29611  -0.05619    15   %  0.6992
     300      18.53021     28.76939         47.29961  -0.05269    16   %  0.7490
     317      16.90681     30.39609         47.30290  -0.04940    17   %  0.7987
     333      15.40591     31.90025         47.30616  -0.04614    18   %  0.8484
     349      14.02461     33.28478         47.30939  -0.04291    19   %  0.8982
     363      12.85547     34.45670         47.31217  -0.04013    20   %  0.9439
     378      11.62299     35.69249         47.31548  -0.03682    21   %  0.9967
     391      10.55310     36.76561         47.31870  -0.03360    22   %  1.0474
     405       9.64708     37.67439         47.32147  -0.03083    23   %  1.0948
     418       8.79831     38.52601         47.32432  -0.02798    24   %  1.1440
     430       8.05535     39.27160         47.32695  -0.02535    25   %  1.1921
     442       7.37342     39.95615         47.32957  -0.02273    26   %  1.2417
     454       6.73993     40.59254         47.33247  -0.01983    27   %  1.2942
     465       6.21678     41.11804         47.33482  -0.01748    28   %  1.3443
     475       5.78290     41.55442         47.33732  -0.01498    29   %  1.3926
     485       5.38912     41.95033         47.33945  -0.01285    30   %  1.4446
     495       5.09708     42.24436         47.34144  -0.01085    31   %  1.4916
     505       4.84019     42.50357         47.34376  -0.00854    32   %  1.5434
     513       4.67233     42.67294         47.34527  -0.00703    33   %  1.5878
     522       4.53054     42.81666         47.34720  -0.00510    34   %  1.6418
     531       4.45784     42.89144         47.34928  -0.00302    35   %  1.6905
     540       4.43351     42.91662         47.35013  -0.00217    36   %  1.7351
     571       4.43069     42.95599         47.38669   0.03439    37   %  1.7430
     615       4.42793     43.04051         47.46845   0.11615    38   %  1.7554
     663       4.42545     43.15187         47.57731   0.22502    39   %  1.7715
     707       4.42306     43.22654         47.64960   0.29730    40   %  1.7902
     751       4.42096     43.29581         47.71678   0.36448    41   %  1.8095
     807       4.41862     43.37936         47.79797   0.44567    42   %  1.8323
     855       4.41640     43.44682         47.86323   0.51093    43   %  1.8555
     909       4.41466     43.52560         47.94025   0.58795    44   %  1.8780
     967       4.41276     43.60911         48.02187   0.66957    45   %  1.9030
    1018       4.41234     43.67002         48.08236   0.73006    46   %  1.9269


 IRC CALCULATION COMPLETE 

 **********************
 *                    *
 * JOB ENDED NORMALLY *
 *                    *
 **********************



 TOTAL JOB TIME:             5.48 SECONDS

 == MOPAC DONE ==
