 *******************************************************************************
 ** Site#: 37037        For non-commercial use only           Version 21.158W **
 *******************************************************************************
 ** Cite this program as: MOPAC2016, Version: 21.158W, James J. P. Stewart,   **
 ** Stewart Computational Chemistry, web: HTTP://OpenMOPAC.net. Days left: 363**
 *******************************************************************************
 **                                                                           **
 **                                MOPAC2016                                  **
 **                                                                           **
 *******************************************************************************

                              PM7 CALCULATION RESULTS

 *******************************************************************************
 *  CALCULATION DONE:                                Wed Jun  9 11:02:03 2021  *
 *  OPT        - OPTIMIZE COORDINATES OF ALL ATOMS
 *  XYZ        - CARTESIAN COORDINATE SYSTEM TO BE USED
 *  TS         - USE EF ROUTINE FOR TS SEARCH
 *  T=         - A TIME OF 172800.0 SECONDS REQUESTED
 *  DUMP=N     - RESTART FILE WRITTEN EVERY 7200.0 SECONDS REQUESTED
 *******************************************************************************
 TS xyz opt
 Refine transition state for hydrogen migration in propyl radical, and verify using FORCE

   ATOM                 CHEMICAL                   X               Y               Z
  NUMBER                 SYMBOL               (ANGSTROMS)     (ANGSTROMS)     (ANGSTROMS)
 
     1       C(HETATM    1  C1  HET A   1)   -0.01448554  *   0.13875970  *   0.04620370  *
     2       C(HETATM    3  C3  HET A   1)    2.14017594  *   1.51038180  *  -0.03657960  *
     3       H(HETATM    4 1H1  HET A   1)   -0.67781284  *  -0.47700230  *   0.61999150  *
     4       H(HETATM    5 2H1  HET A   1)   -0.51185278  *   0.82183200  *  -0.61245370  *
     5       H(HETATM    7  H2  HET A   1)    1.73252658  *  -0.14915290  *   1.33422440  *
     6       H(HETATM    8 1H3  HET A   1)    1.78352638  *   1.89585460  *  -1.00028470  *
     7       H(HETATM    9 2H3  HET A   1)    2.06407989  *   2.34177130  *   0.68303650  *
     8       H(HETATM   10 3H3  HET A   1)    3.20679703  *   1.27491920  *  -0.14647850  *
     9       C(HETATM    2  C2  HET A   1)    1.35803513  *   0.33534475  *   0.44098535  *
    10       H(HETATM    6 3H1  HET A   1)    1.04530929  *  -0.58029967  *  -0.55151197  *
 

 General Reference for PM7:
 "Optimization of Parameters for Semiempirical Methods VI: More Modifications to the 
 NDDO Approximations and Re-optimization of Parameters", J. J. P. Stewart, J. Mol. Mod., 1:32, 19 (2013)
 https://link.springer.com/article/10.1007/s00894-012-1667-x

           Empirical Formula: C3 H7  =    10 atoms



      MOLECULAR POINT GROUP   :   C1  


          UHF CALCULATION, NO. OF ALPHA ELECTRONS =   10
                           NO. OF BETA  ELECTRONS =    9

          Transition state refinement using EF

          HESSIAN CALCULATED NUMERICALLY

 CYCLE:     1 TIME:   0.078 TIME LEFT:  2.00D  GRAD.:     3.809 HEAT:  47.35608
 CYCLE:     2 TIME:   0.016 TIME LEFT:  2.00D  GRAD.:     0.144 HEAT:  47.36246

     GRADIENT =  0.14358 IS LESS THAN CUTOFF =  1.00000



 -------------------------------------------------------------------------------
 TS xyz opt
 Refine transition state for hydrogen migration in propyl radical, and verify using FORCE



     GEOMETRY OPTIMISED USING EIGENVECTOR FOLLOWING (TS).     
     SCF FIELD WAS ACHIEVED                                   


                              PM7 CALCULATION
                                                       MOPAC2016 (Version: 21.158W)
                                                       Wed Jun  9 11:02:03 2021
                                                       No. of days remaining = 363




          FINAL HEAT OF FORMATION =         47.36246 KCAL/MOL =     198.16453 KJ/MOL


          TOTAL ENERGY            =       -460.54852 EV
          ELECTRONIC ENERGY       =      -1511.40630 EV  POINT GROUP:     C1  
          CORE-CORE REPULSION     =       1050.85778 EV
          COSMO AREA              =         93.66 SQUARE ANGSTROMS
          COSMO VOLUME            =         76.24 CUBIC ANGSTROMS

          GRADIENT NORM           =          0.14358 = 0.04540 PER ATOM
          IONIZATION POTENTIAL    =          7.739992 EV
          ALPHA SOMO LUMO (EV)    =         -7.740  3.490
          BETA  SOMO LUMO (EV)    =        -11.035  1.231
          NO. OF ALPHA ELECTRONS  =         10
          NO. OF BETA  ELECTRONS  =          9
          MOLECULAR WEIGHT        =         43.0883

          MOLECULAR DIMENSIONS (Angstroms)

            Atom       Atom       Distance
            H     8    H     3     4.32971
            H     5    H     4     2.85359
            H     7    H    10     2.74616


          SCF CALCULATIONS        =         33
 
          WALL-CLOCK TIME         =          0.109 SECONDS
          COMPUTATION TIME        =          0.156 SECONDS




   ATOM                 CHEMICAL                   X               Y               Z
  NUMBER                 SYMBOL               (ANGSTROMS)     (ANGSTROMS)     (ANGSTROMS)
 
     1       C(HETATM    1  C1  HET A   1)   -0.01396746  *   0.13786866  *   0.04542773  *
     2       C(HETATM    3  C3  HET A   1)    2.14041625  *   1.51068825  *  -0.03623340  *
     3       H(HETATM    4 1H1  HET A   1)   -0.67782220  *  -0.47669763  *   0.61963087  *
     4       H(HETATM    5 2H1  HET A   1)   -0.51186810  *   0.82131894  *  -0.61265719  *
     5       H(HETATM    7  H2  HET A   1)    1.73283095  *  -0.14879431  *   1.33465850  *
     6       H(HETATM    8 1H3  HET A   1)    1.78313500  *   1.89599982  *  -0.99950281  *
     7       H(HETATM    9 2H3  HET A   1)    2.06520799  *   2.34178347  *   0.68299095  *
     8       H(HETATM   10 3H3  HET A   1)    3.20673944  *   1.27467436  *  -0.14798704  *
     9       C(HETATM    2  C2  HET A   1)    1.35804767  *   0.33614167  *   0.44190609  *
    10       H(HETATM    6 3H1  HET A   1)    1.04168917  *  -0.58109543  *  -0.55230461  *

                             CARTESIAN COORDINATES

   1    C       -0.013967456     0.137868661     0.045427732
   2    C        2.140416245     1.510688252    -0.036233400
   3    H       -0.677822204    -0.476697632     0.619630867
   4    H       -0.511868101     0.821318945    -0.612657191
   5    H        1.732830951    -0.148794314     1.334658500
   6    H        1.783135001     1.895999824    -0.999502814
   7    H        2.065207988     2.341783468     0.682990950
   8    H        3.206739444     1.274674365    -0.147987042
   9    C        1.358047673     0.336141674     0.441906092
  10    H        1.041689166    -0.581095427    -0.552304612


           Empirical Formula: C3 H7  =    10 atoms



      MOLECULAR POINT GROUP   :   C1  


          ALPHA EIGENVALUES  
 -28.14673 -23.92725 -19.16793 -16.03939 -14.96313 -14.29606 -12.89433 -12.19979
 -11.70304  -7.73999   3.48963   4.55616   4.93836   5.77163   5.86909   6.17233
   6.54442   6.87421   7.02043


           BETA EIGENVALUES 
 -28.02863 -23.82019 -18.93959 -15.84757 -14.69497 -14.12884 -12.75255 -12.07121
 -11.03465   1.23080   3.59672   4.75323   5.25993   5.85584   5.94429   6.28037
   6.67709   6.99907   7.08407


              NET ATOMIC CHARGES AND DIPOLE CONTRIBUTIONS

  ATOM NO.                 TYPE                        CHARGE      No. of ELECS.   s-Pop       p-Pop       
    1          C(HETATM    1  C1  HET A   1)          -0.493705        4.4937     1.07296     3.42075
    2          C(HETATM    3  C3  HET A   1)          -0.423073        4.4231     1.04428     3.37879
    3          H(HETATM    4 1H1  HET A   1)           0.152371        0.8476     0.84763
    4          H(HETATM    5 2H1  HET A   1)           0.154509        0.8455     0.84549
    5          H(HETATM    7  H2  HET A   1)           0.148636        0.8514     0.85136
    6          H(HETATM    8 1H3  HET A   1)           0.142934        0.8571     0.85707
    7          H(HETATM    9 2H3  HET A   1)           0.154378        0.8456     0.84562
    8          H(HETATM   10 3H3  HET A   1)           0.141123        0.8589     0.85888
    9          C(HETATM    2  C2  HET A   1)          -0.284680        4.2847     1.06087     3.22382
   10          H(HETATM    6 3H1  HET A   1)           0.307508        0.6925     0.69249

          NET CHARGE ON RESIDUES

      Residue         Charge  Anion or
                              Cation?
      HET A   1       +0.000
 


 DIPOLE           X         Y         Z       TOTAL
 POINT-CHG.     0.656    -0.658    -0.783     1.215
 HYBRID         0.004     0.024    -0.071     0.075
 SUM            0.660    -0.634    -0.854     1.252


          ATOMIC ORBITAL ELECTRON POPULATIONS

                   Atom                  s        px        py        pz   
   C(HETATM    1  C1  HET A   1)   1.07296   1.00144   1.20668   1.21263
   C(HETATM    3  C3  HET A   1)   1.04428   1.12750   1.09038   1.16091
   H(HETATM    4 1H1  HET A   1)   0.84763
   H(HETATM    5 2H1  HET A   1)   0.84549
   H(HETATM    7  H2  HET A   1)   0.85136
   H(HETATM    8 1H3  HET A   1)   0.85707
   H(HETATM    9 2H3  HET A   1)   0.84562
   H(HETATM   10 3H3  HET A   1)   0.85888
   C(HETATM    2  C2  HET A   1)   1.06087   1.04879   1.06998   1.10504
   H(HETATM    6 3H1  HET A   1)   0.69249


                    (SZ)    =    0.500000
                    (S**2)  =    0.768073


          ATOMIC ORBITAL SPIN POPULATIONS

    Atom   Total    s     px     py     pz   
         Atomic
    1  C  0.5887  0.025  0.056  0.256  0.252
    2  C -0.0205 -0.003 -0.006 -0.007 -0.004
    3  H -0.0136 -0.014
    4  H -0.0142 -0.014
    5  H -0.0124 -0.012
    6  H  0.0022  0.002
    7  H  0.0162  0.016
    8  H  0.0046  0.005
    9  C  0.5565  0.023  0.051  0.232  0.250
   10  H -0.1075 -0.108
 *******************************************************************************
 ** Site#: 37037        For non-commercial use only           Version 21.158W **
 *******************************************************************************
 ** Cite this program as: MOPAC2016, Version: 21.158W, James J. P. Stewart,   **
 ** Stewart Computational Chemistry, web: HTTP://OpenMOPAC.net. Days left: 363**
 *******************************************************************************
 **                                                                           **
 **                                MOPAC2016                                  **
 **                                                                           **
 *******************************************************************************

                              PM7 CALCULATION RESULTS

 *******************************************************************************
 *  CALCULATION DONE:                                Wed Jun  9 11:02:04 2021  *
 *  OLDGEO     - PREVIOUS GEOMETRY TO BE USED
 *  FORCE      - FORCE CALCULATION SPECIFIED
 *  T=         - A TIME OF 172800.0 SECONDS REQUESTED
 *  DUMP=N     - RESTART FILE WRITTEN EVERY 7200.0 SECONDS REQUESTED
 *  ISOTOPE    - SAVE THE FORCE MATRIX FOR USE LATER
 *******************************************************************************
oldgeo force isotope
 Refine transition state for hydrogen migration in propyl radical, and verify using FORCE

   ATOM                 CHEMICAL                   X               Y               Z
  NUMBER                 SYMBOL               (ANGSTROMS)     (ANGSTROMS)     (ANGSTROMS)
 
     1       C(HETATM    1  C1  HET A   1)   -0.01396746  *   0.13786866  *   0.04542773  *
     2       C(HETATM    3  C3  HET A   1)    2.14041625  *   1.51068825  *  -0.03623340  *
     3       H(HETATM    4 1H1  HET A   1)   -0.67782220  *  -0.47669763  *   0.61963087  *
     4       H(HETATM    5 2H1  HET A   1)   -0.51186810  *   0.82131894  *  -0.61265719  *
     5       H(HETATM    7  H2  HET A   1)    1.73283095  *  -0.14879431  *   1.33465850  *
     6       H(HETATM    8 1H3  HET A   1)    1.78313500  *   1.89599982  *  -0.99950281  *
     7       H(HETATM    9 2H3  HET A   1)    2.06520799  *   2.34178347  *   0.68299095  *
     8       H(HETATM   10 3H3  HET A   1)    3.20673944  *   1.27467436  *  -0.14798704  *
     9       C(HETATM    2  C2  HET A   1)    1.35804767  *   0.33614167  *   0.44190609  *
    10       H(HETATM    6 3H1  HET A   1)    1.04168917  *  -0.58109543  *  -0.55230461  *
 

 General Reference for PM7:
 "Optimization of Parameters for Semiempirical Methods VI: More Modifications to the 
 NDDO Approximations and Re-optimization of Parameters", J. J. P. Stewart, J. Mol. Mod., 1:32, 19 (2013)
 https://link.springer.com/article/10.1007/s00894-012-1667-x

           Empirical Formula: C3 H7  =    10 atoms



      MOLECULAR POINT GROUP   :   C1  


          UHF CALCULATION, NO. OF ALPHA ELECTRONS =   10
                           NO. OF BETA  ELECTRONS =    9


          HEAT OF FORMATION =      47.362459 KCALS/MOLE


          CARTESIAN COORDINATE DERIVATIVES

   NUMBER  ATOM         X            Y            Z

     1       C      0.053184     0.011782    -0.081478
     2       C      0.043765     0.024666    -0.046270
     3       H     -0.026827    -0.020407     0.021822
     4       H     -0.020756    -0.016078     0.016033
     5       H     -0.005964    -0.027167     0.011088
     6       H     -0.015265    -0.004748     0.011167
     7       H     -0.015649     0.000837    -0.000688
     8       H     -0.022560    -0.014677     0.008887
     9       C      0.042271     0.023553     0.033365
    10       H     -0.032200     0.022239     0.026074
 


          GRADIENT NORM =   0.15755


          TIME FOR SCF CALCULATION =    0.02

          TIME FOR DERIVATIVES     =    0.00

          MOLECULAR WEIGHT =   43.09



          ROTATIONAL CONSTANTS IN CM(-1)

          A =    1.26981256   B =    0.29070195   C =    0.25972443



           PRINCIPAL MOMENTS OF INERTIA IN UNITS OF 10**(-40)*GRAM-CM**2

          A =       22.0448   B =       96.2937   C =      107.7787


          ORIENTATION OF MOLECULE IN FORCE CALCULATION

    NO.       ATOM         X         Y         Z

     1          C      -1.2856   -0.1767   -0.1423
     2          C       1.2703   -0.1767   -0.1423
     3          H      -2.1936    0.3921   -0.1423
     4          H      -1.3171   -1.0487   -0.7643
     5          H      -0.0083    1.4344    0.6117
     6          H       1.2069   -1.2496   -0.3638
     7          H       1.6304    0.3138   -1.0607
     8          H       2.0460   -0.0409    0.6227
     9          C      -0.0353    0.4038    0.2803
    10          H      -0.7628   -0.4009    1.1481


    FIRST DERIVATIVES WILL BE USED IN THE CALCULATION OF SECOND DERIVATIVES

          ESTIMATED TIME TO COMPLETE CALCULATION =        0.94 SECONDS

    FOR POINT-GROUP C1   THERE ARE   1 UNIQUE SYMMETRY FUNCTIONS.

 STEP:   1 TIME =     0.00 SECS, INTEGRAL =      0.00 TIME LEFT: 172799.98
 STEP:   2 TIME =     0.02 SECS, INTEGRAL =      0.02 TIME LEFT: 172799.97
 STEP:   3 TIME =     0.00 SECS, INTEGRAL =      0.02 TIME LEFT: 172799.97
 STEP:   4 TIME =     0.02 SECS, INTEGRAL =      0.03 TIME LEFT: 172799.95
 STEP:   5 TIME =     0.00 SECS, INTEGRAL =      0.03 TIME LEFT: 172799.95
 STEP:   6 TIME =     0.00 SECS, INTEGRAL =      0.03 TIME LEFT: 172799.95
 STEP:   7 TIME =     0.02 SECS, INTEGRAL =      0.05 TIME LEFT: 172799.94
 STEP:   8 TIME =     0.00 SECS, INTEGRAL =      0.05 TIME LEFT: 172799.94
 STEP:   9 TIME =     0.02 SECS, INTEGRAL =      0.06 TIME LEFT: 172799.92
 STEP:  10 TIME =     0.00 SECS, INTEGRAL =      0.06 TIME LEFT: 172799.92
 STEP:  11 TIME =     0.00 SECS, INTEGRAL =      0.06 TIME LEFT: 172799.92
 STEP:  12 TIME =     0.02 SECS, INTEGRAL =      0.08 TIME LEFT: 172799.91
 STEP:  13 TIME =     0.00 SECS, INTEGRAL =      0.08 TIME LEFT: 172799.91
 STEP:  14 TIME =     0.02 SECS, INTEGRAL =      0.09 TIME LEFT: 172799.89
 STEP:  15 TIME =     0.00 SECS, INTEGRAL =      0.09 TIME LEFT: 172799.89
 STEP:  16 TIME =     0.00 SECS, INTEGRAL =      0.09 TIME LEFT: 172799.89
 STEP:  17 TIME =     0.02 SECS, INTEGRAL =      0.11 TIME LEFT: 172799.88
 STEP:  18 TIME =     0.00 SECS, INTEGRAL =      0.11 TIME LEFT: 172799.88
 STEP:  19 TIME =     0.00 SECS, INTEGRAL =      0.11 TIME LEFT: 172799.88
 STEP:  20 TIME =     0.02 SECS, INTEGRAL =      0.12 TIME LEFT: 172799.86
 STEP:  21 TIME =     0.00 SECS, INTEGRAL =      0.12 TIME LEFT: 172799.86
 STEP:  22 TIME =     0.00 SECS, INTEGRAL =      0.12 TIME LEFT: 172799.86
 STEP:  23 TIME =     0.02 SECS, INTEGRAL =      0.14 TIME LEFT: 172799.84
 STEP:  24 TIME =     0.00 SECS, INTEGRAL =      0.14 TIME LEFT: 172799.84
 STEP:  25 TIME =     0.02 SECS, INTEGRAL =      0.16 TIME LEFT: 172799.83
 STEP:  26 TIME =     0.00 SECS, INTEGRAL =      0.16 TIME LEFT: 172799.83
 STEP:  27 TIME =     0.02 SECS, INTEGRAL =      0.17 TIME LEFT: 172799.81
 STEP:  28 TIME =     0.00 SECS, INTEGRAL =      0.17 TIME LEFT: 172799.81
 STEP:  29 TIME =     0.02 SECS, INTEGRAL =      0.19 TIME LEFT: 172799.80
 STEP:  30 TIME =     0.00 SECS, INTEGRAL =      0.19 TIME LEFT: 172799.80

(To convert to Hartree/Bohr^2, multiply by (10^(-21) x N x a0^2)/(4.184 x 627.51) =  0.0642)


           FORCE MATRIX IN MILLIDYNES/ANGSTROM


                  C  1       C  2       H  3       H  4       H  5       H  6
 ------------------------------------------------------------------------------
     C    1  11.154024
     C    2   0.665844  11.668481
     H    3   3.614235   0.047061   4.340698
     H    4   3.618609   0.022141   0.458535   4.344774
     H    5   0.660851   0.672640   0.018791   0.055432   4.386740
     H    6   0.010320   3.421299   0.002910   0.016831   0.045080   4.228862
     H    7   0.016933   3.374376   0.004004   0.006342   0.015428   0.462726
     H    8   0.043138   3.408157   0.007972   0.002860   0.018087   0.463130
     C    9   7.305548   3.910579   0.654448   0.655499   3.487662   0.709176
     H   10   3.097163   0.362889   0.254489   0.245733   0.261201   0.022636


                  H  7       H  8       C  9       H 10
 ------------------------------------------------------
     H    7   4.189464
     H    8   0.465978   4.219493
     C    9   0.722793   0.715380  12.158893
     H   10   0.031741   0.015812   3.235759   3.590391


          HEAT OF FORMATION =      47.362459 KCALS/MOLE

          ZERO POINT ENERGY      49.979 KCAL/MOL

         NOTE: SYSTEM IS NOT A GROUND STATE, THEREFORE ZERO POINT
         ENERGY IS NOT MEANINGFULL. ZERO POINT ENERGY PRINTED
         DOES NOT INCLUDE THE  1 IMAGINARY FREQUENCIES


           NORMAL COORDINATE ANALYSIS (Total motion = 1 Angstrom)


   Root No.       1         2         3         4         5         6         7         8

                 1 A       2 A       3 A       4 A       5 A       6 A       7 A       8 A   

               -2133.0     149.3     394.6     488.2     857.6     930.6    1011.2    1025.7
  
           1   -0.0182    0.0024    0.0550    0.0147   -0.0034   -0.0332   -0.0158    0.0367
           2    0.0159    0.0140   -0.0182   -0.0110    0.0033    0.0244    0.0038    0.0209
           3   -0.0643   -0.0194   -0.0169    0.0021   -0.0002    0.0086   -0.0360   -0.0194
           4    0.0017   -0.0017   -0.0507   -0.0154   -0.0016    0.0260    0.0355   -0.0448
           5    0.0001    0.0020   -0.0155   -0.0148    0.0058   -0.0180    0.0040   -0.0252
           6   -0.0023   -0.0031   -0.0184    0.0123   -0.0066   -0.0140    0.0285    0.0150
           7   -0.0141    0.0058    0.0225   -0.0601    0.0002   -0.1556   -0.0744    0.0005
           8   -0.0137    0.0193   -0.0754   -0.1308    0.0022   -0.1998   -0.0908   -0.0371
           9    0.0279   -0.0015   -0.1371    0.2355   -0.0606   -0.0249    0.1428    0.1348
          10   -0.0085    0.0066    0.1670    0.0526   -0.0197    0.2009   -0.0876   -0.0223
          11   -0.0222    0.0472   -0.0540    0.1137   -0.1056    0.0173   -0.0893   -0.0767
          12    0.0222   -0.0662    0.0222   -0.1740    0.1509   -0.0195    0.1067    0.1228
          13   -0.0031    0.0024    0.0028   -0.0094    0.0016    0.0883   -0.0284    0.0669
          14    0.0080   -0.0329    0.0423    0.0301   -0.0911   -0.0339    0.0018   -0.0119
          15   -0.0343    0.0809    0.0390    0.0003    0.3017    0.0827    0.0238    0.0167
          16    0.0031    0.0543   -0.1361   -0.0637   -0.0500    0.1019   -0.1019    0.1713
          17   -0.0004   -0.0431   -0.0082   -0.0217   -0.0075   -0.0147    0.0183   -0.0068
          18   -0.0031    0.2011   -0.0405    0.0514    0.0509   -0.0113   -0.0364   -0.0622
          19   -0.0049   -0.1374   -0.0818    0.0388    0.0928    0.0320   -0.0935   -0.1333
          20    0.0009   -0.1389   -0.0222   -0.0716   -0.0744    0.0171    0.0066    0.1276
          21    0.0014   -0.1321   -0.0348    0.0066   -0.0034    0.0090   -0.0304    0.0413
          22    0.0005    0.0702    0.0063   -0.0321   -0.0455   -0.0081    0.1736   -0.0682
          23    0.0004    0.1992   -0.0881   -0.0295   -0.0063    0.0317   -0.1056    0.1072
          24   -0.0027   -0.1114   -0.0673    0.0325    0.0445    0.0154   -0.1192    0.0259
          25   -0.0349    0.0004    0.0006   -0.0034   -0.0018   -0.0074    0.0032    0.0066
          26   -0.0391   -0.0154    0.0461    0.0433    0.0211   -0.0015    0.0118   -0.0029
          27    0.0462    0.0270    0.0509   -0.0230   -0.0303   -0.0026    0.0026   -0.0177
          28    0.6393   -0.0159   -0.0389    0.1225    0.1014   -0.0848   -0.0608    0.0016
          29    0.3020   -0.0573    0.0581   -0.0983   -0.0767    0.1234    0.0263   -0.0174
          30    0.2323   -0.0248    0.0330   -0.0501   -0.0414    0.0428   -0.0284   -0.0156


   Root No.       9        10        11        12        13        14        15        16

                 9 A      10 A      11 A      12 A      13 A      14 A      15 A      16 A   

                1063.9    1085.0    1206.2    1283.4    1290.3    1292.8    1369.7    1391.3
  
           1    0.0239    0.0068   -0.0167   -0.0164   -0.0078    0.0072   -0.0291   -0.0169
           2   -0.0233    0.0234   -0.0435   -0.0218   -0.0122    0.0102   -0.0158   -0.0086
           3   -0.0129   -0.0249   -0.0190   -0.0087   -0.0038    0.0037   -0.0159   -0.0053
           4   -0.0137   -0.0001    0.0487   -0.0149    0.0158    0.0009    0.0105   -0.0632
           5    0.0185    0.0143   -0.0603    0.0073    0.0320    0.0028    0.0001    0.0268
           6   -0.0110   -0.0356   -0.0370   -0.0078    0.0028   -0.0282    0.0004    0.0166
           7    0.0459   -0.0480    0.0374   -0.0093   -0.0034    0.0079    0.1500   -0.0117
           8    0.0332   -0.0706    0.0716   -0.0093   -0.0023    0.0105    0.2719   -0.0063
           9    0.1479    0.0968    0.0180   -0.0256   -0.0145    0.0172    0.2089   -0.0081
          10   -0.0942   -0.0108   -0.1840   -0.0647   -0.0396    0.0377    0.3417   -0.0151
          11    0.0331   -0.0804   -0.0089   -0.0143   -0.0051    0.0021   -0.0804   -0.0043
          12   -0.0660    0.1205   -0.0282   -0.0150   -0.0099    0.0116    0.0594   -0.0078
          13    0.0183   -0.0215   -0.0384    0.3384    0.1975   -0.1543    0.0718    0.0089
          14   -0.0532    0.0392    0.0638    0.0055    0.0069   -0.0053   -0.0039    0.0130
          15    0.1240   -0.1225    0.0597   -0.0289   -0.0148    0.0140   -0.0049    0.0016
          16   -0.0463   -0.0269    0.2112   -0.0821    0.0939    0.0945    0.0043    0.3032
          17    0.0044   -0.0084   -0.0432   -0.0182    0.0182   -0.0683    0.0039    0.0097
          18    0.0378    0.0658   -0.0298    0.1616   -0.0156    0.2818   -0.0116   -0.0378
          19    0.0626    0.1567    0.0493    0.0633   -0.1970   -0.0744    0.0219    0.1884
          20   -0.0376   -0.0854    0.0376    0.1491   -0.1244    0.1654   -0.0207   -0.1532
          21   -0.0042   -0.0048    0.0262    0.1019   -0.1541    0.0432   -0.0033    0.0114
          22   -0.0528   -0.0979   -0.0247    0.0526   -0.1218    0.0086    0.0300    0.1481
          23    0.0075    0.0167    0.0602    0.0141   -0.1923   -0.2254   -0.0151   -0.1533
          24    0.0385    0.0803    0.0209   -0.0641    0.1710    0.0171   -0.0241   -0.1500
          25    0.0079    0.0020   -0.0340    0.0049   -0.0027   -0.0011   -0.0310    0.0271
          26   -0.0148   -0.0157    0.0866    0.0063    0.0066   -0.0037    0.0042    0.0056
          27   -0.0083    0.0435    0.0519    0.0084    0.0057   -0.0087   -0.0026    0.0062
          28   -0.1483   -0.0558   -0.0259    0.0177    0.0075   -0.0024   -0.0279    0.0093
          29    0.2470   -0.0734    0.0237   -0.0290   -0.0154    0.0109   -0.0184    0.0120
          30    0.1060   -0.0331   -0.0178   -0.0332   -0.0180    0.0106   -0.0085   -0.0173


   Root No.      17        18        19        20        21        22        23        24

                17 A      18 A      19 A      20 A      21 A      22 A      23 A      24 A   

                1452.6    2248.6    2669.3    2678.3    2730.5    2764.7    2781.1    2795.9
  
           1   -0.0899   -0.0265   -0.0003    0.0009   -0.0227    0.0075    0.0044   -0.0242
           2   -0.0358    0.0005   -0.0000    0.0006    0.0367   -0.0111   -0.0020   -0.0101
           3   -0.0239   -0.0391   -0.0004    0.0004    0.0161   -0.0035    0.0008   -0.0156
           4   -0.0255   -0.0005    0.0011   -0.0239    0.0001   -0.0070    0.0152    0.0031
           5   -0.0031   -0.0010    0.0299   -0.0332   -0.0019   -0.0023   -0.0091   -0.0022
           6    0.0004    0.0002   -0.0361   -0.0286   -0.0006    0.0000   -0.0051   -0.0014
           7   -0.0272   -0.0105   -0.0014    0.0010    0.3178   -0.1110   -0.0694    0.3051
           8    0.0362   -0.0038    0.0007   -0.0002   -0.1753    0.0630    0.0409   -0.1900
           9    0.0166   -0.0092    0.0001    0.0001    0.0116   -0.0025   -0.0004   -0.0040
          10    0.0674   -0.0110   -0.0000    0.0001   -0.0333    0.0101    0.0017    0.0130
          11   -0.0379   -0.0031   -0.0013   -0.0015   -0.2971    0.0547   -0.0251    0.3140
          12   -0.0192   -0.0099   -0.0006   -0.0013   -0.2165    0.0413   -0.0168    0.2193
          13   -0.1239    0.0098    0.0018   -0.0048    0.0028    0.0140    0.0026    0.0037
          14    0.0247    0.0034    0.0230   -0.0636    0.1597    0.4091    0.1301    0.0658
          15    0.0181   -0.0053    0.0073   -0.0206    0.0529    0.1360    0.0435    0.0217
          16   -0.0582    0.0047   -0.0075    0.0031   -0.0005   -0.0083    0.0143    0.0018
          17   -0.0047    0.0052   -0.2184    0.4075    0.0065   -0.0640    0.2507    0.0492
          18    0.0084    0.0018   -0.0681    0.0740    0.0012   -0.0127    0.0516    0.0104
          19   -0.0922   -0.0021   -0.1732   -0.0165    0.0036    0.0353   -0.0721   -0.0130
          20    0.0697    0.0110   -0.1971   -0.0223    0.0043    0.0477   -0.0994   -0.0179
          21   -0.0035   -0.0112    0.3943   -0.0053   -0.0103   -0.0931    0.1843    0.0329
          22   -0.1124   -0.0021    0.1614    0.3122    0.0116    0.0918   -0.1641   -0.0263
          23    0.0857    0.0015    0.0405    0.0329    0.0010    0.0141   -0.0298   -0.0052
          24    0.1027    0.0061    0.1324    0.2921    0.0108    0.0899   -0.1629   -0.0265
          25    0.1410    0.0356    0.0009   -0.0019   -0.0021   -0.0027    0.0045   -0.0016
          26    0.0185    0.0296   -0.0001    0.0027   -0.0096   -0.0297   -0.0111   -0.0055
          27    0.0213   -0.0210   -0.0031   -0.0000   -0.0031   -0.0101   -0.0044   -0.0032
          28    0.0413   -0.0919   -0.0017    0.0018   -0.0061   -0.0060   -0.0001   -0.0135
          29    0.0694   -0.3615   -0.0030    0.0031    0.0010   -0.0117   -0.0033   -0.0036
          30   -0.0966    0.7415    0.0063   -0.0027    0.0030    0.0034    0.0037   -0.0129


           MASS-WEIGHTED COORDINATE ANALYSIS (NORMAL COORDINATES)


   Root No.       1         2         3         4         5         6         7         8

                 1 A       2 A       3 A       4 A       5 A       6 A       7 A       8 A   

               -2133.0     149.3     394.6     488.2     857.6     930.6    1011.2    1025.7
  
           1   -0.0767    0.0189    0.3847    0.1117   -0.0262   -0.2597   -0.1250    0.2860
           2    0.0671    0.1090   -0.1275   -0.0838    0.0258    0.1905    0.0298    0.1630
           3   -0.2708   -0.1514   -0.1181    0.0157   -0.0017    0.0675   -0.2852   -0.1513
           4    0.0073   -0.0130   -0.3544   -0.1165   -0.0127    0.2029    0.2806   -0.3486
           5    0.0003    0.0157   -0.1082   -0.1119    0.0448   -0.1402    0.0315   -0.1959
           6   -0.0097   -0.0239   -0.1290    0.0935   -0.0515   -0.1090    0.2252    0.1169
           7   -0.0172    0.0131    0.0456   -0.1321    0.0005   -0.3520   -0.1705    0.0011
           8   -0.0167    0.0436   -0.1527   -0.2874    0.0050   -0.4520   -0.2081   -0.0837
           9    0.0341   -0.0034   -0.2777    0.5174   -0.1369   -0.0563    0.3273    0.3040
          10   -0.0104    0.0148    0.3383    0.1156   -0.0444    0.4546   -0.2007   -0.0502
          11   -0.0270    0.1067   -0.1094    0.2498   -0.2386    0.0391   -0.2047   -0.1730
          12    0.0271   -0.1498    0.0450   -0.3823    0.3407   -0.0441    0.2446    0.2771
          13   -0.0037    0.0055    0.0056   -0.0207    0.0036    0.1997   -0.0652    0.1508
          14    0.0098   -0.0745    0.0857    0.0662   -0.2057   -0.0767    0.0041   -0.0269
          15   -0.0418    0.1831    0.0789    0.0007    0.6814    0.1872    0.0545    0.0377
          16    0.0038    0.1229   -0.2758   -0.1399   -0.1130    0.2305   -0.2335    0.3864
          17   -0.0005   -0.0975   -0.0165   -0.0477   -0.0169   -0.0333    0.0420   -0.0152
          18   -0.0038    0.4550   -0.0820    0.1130    0.1148   -0.0255   -0.0835   -0.1402
          19   -0.0060   -0.3110   -0.1658    0.0853    0.2095    0.0724   -0.2143   -0.3006
          20    0.0012   -0.3143   -0.0450   -0.1572   -0.1680    0.0386    0.0152    0.2879
          21    0.0017   -0.2990   -0.0705    0.0145   -0.0076    0.0205   -0.0697    0.0932
          22    0.0006    0.1589    0.0128   -0.0705   -0.1028   -0.0183    0.3979   -0.1538
          23    0.0005    0.4507   -0.1786   -0.0648   -0.0143    0.0717   -0.2420    0.2417
          24   -0.0033   -0.2521   -0.1364    0.0715    0.1005    0.0348   -0.2733    0.0584
          25   -0.1470    0.0032    0.0039   -0.0261   -0.0139   -0.0577    0.0257    0.0518
          26   -0.1646   -0.1204    0.3223    0.3281    0.1645   -0.0116    0.0932   -0.0226
          27    0.1944    0.2107    0.3559   -0.1743   -0.2363   -0.0202    0.0209   -0.1380
          28    0.7799   -0.0359   -0.0788    0.2691    0.2289   -0.1918   -0.1395    0.0035
          29    0.3685   -0.1296    0.1177   -0.2160   -0.1732    0.2791    0.0602   -0.0393
          30    0.2834   -0.0561    0.0669   -0.1101   -0.0934    0.0969   -0.0652   -0.0352


   Root No.       9        10        11        12        13        14        15        16

                 9 A      10 A      11 A      12 A      13 A      14 A      15 A      16 A   

                1063.9    1085.0    1206.2    1283.4    1290.3    1292.8    1369.7    1391.3
  
           1    0.1877    0.0564   -0.0960   -0.1224   -0.0560    0.0529   -0.1820   -0.1072
           2   -0.1835    0.1932   -0.2494   -0.1619   -0.0876    0.0754   -0.0986   -0.0548
           3   -0.1016   -0.2053   -0.1091   -0.0646   -0.0275    0.0271   -0.0995   -0.0339
           4   -0.1078   -0.0006    0.2791   -0.1112    0.1136    0.0064    0.0654   -0.4012
           5    0.1454    0.1182   -0.3461    0.0541    0.2304    0.0204    0.0006    0.1699
           6   -0.0865   -0.2935   -0.2121   -0.0579    0.0199   -0.2083    0.0022    0.1054
           7    0.1046   -0.1146    0.0622   -0.0200   -0.0071    0.0169    0.2716   -0.0216
           8    0.0757   -0.1687    0.1190   -0.0201   -0.0047    0.0225    0.4922   -0.0116
           9    0.3369    0.2312    0.0298   -0.0552   -0.0303    0.0369    0.3782   -0.0149
          10   -0.2146   -0.0257   -0.3057   -0.1393   -0.0827    0.0809    0.6186   -0.0278
          11    0.0754   -0.1920   -0.0149   -0.0309   -0.0107    0.0045   -0.1455   -0.0079
          12   -0.1503    0.2878   -0.0469   -0.0323   -0.0208    0.0249    0.1075   -0.0143
          13    0.0417   -0.0513   -0.0637    0.7293    0.4126   -0.3305    0.1299    0.0163
          14   -0.1213    0.0936    0.1060    0.0119    0.0145   -0.0113   -0.0070    0.0239
          15    0.2825   -0.2927    0.0992   -0.0624   -0.0308    0.0300   -0.0089    0.0029
          16   -0.1055   -0.0643    0.3510   -0.1769    0.1961    0.2025    0.0077    0.5580
          17    0.0099   -0.0202   -0.0718   -0.0391    0.0381   -0.1464    0.0071    0.0178
          18    0.0862    0.1571   -0.0496    0.3482   -0.0325    0.6038   -0.0211   -0.0695
          19    0.1426    0.3744    0.0819    0.1364   -0.4116   -0.1594    0.0396    0.3466
          20   -0.0857   -0.2041    0.0624    0.3213   -0.2599    0.3542   -0.0375   -0.2819
          21   -0.0096   -0.0115    0.0435    0.2197   -0.3220    0.0926   -0.0060    0.0210
          22   -0.1202   -0.2338   -0.0410    0.1134   -0.2544    0.0185    0.0544    0.2725
          23    0.0172    0.0400    0.1001    0.0304   -0.4016   -0.4829   -0.0273   -0.2820
          24    0.0876    0.1919    0.0346   -0.1381    0.3573    0.0366   -0.0436   -0.2761
          25    0.0618    0.0162   -0.1951    0.0363   -0.0196   -0.0083   -0.1936    0.1720
          26   -0.1167   -0.1298    0.4969    0.0466    0.0474   -0.0275    0.0260    0.0354
          27   -0.0654    0.3584    0.2977    0.0621    0.0414   -0.0643   -0.0159    0.0395
          28   -0.3378   -0.1333   -0.0431    0.0382    0.0156   -0.0050   -0.0505    0.0171
          29    0.5629   -0.1754    0.0393   -0.0625   -0.0323    0.0233   -0.0333    0.0221
          30    0.2416   -0.0790   -0.0296   -0.0715   -0.0376    0.0228   -0.0153   -0.0319


   Root No.      17        18        19        20        21        22        23        24

                17 A      18 A      19 A      20 A      21 A      22 A      23 A      24 A   

                1452.6    2248.6    2669.3    2678.3    2730.5    2764.7    2781.1    2795.9
  
           1   -0.4571   -0.1057   -0.0017    0.0049   -0.1380    0.0512    0.0337   -0.1529
           2   -0.1820    0.0021   -0.0001    0.0033    0.2225   -0.0757   -0.0150   -0.0637
           3   -0.1215   -0.1561   -0.0023    0.0024    0.0976   -0.0240    0.0064   -0.0985
           4   -0.1298   -0.0019    0.0064   -0.1322    0.0003   -0.0478    0.1171    0.0195
           5   -0.0157   -0.0039    0.1750   -0.1834   -0.0114   -0.0155   -0.0699   -0.0140
           6    0.0019    0.0007   -0.2110   -0.1580   -0.0036    0.0002   -0.0393   -0.0088
           7   -0.0401   -0.0122   -0.0023    0.0015    0.5587   -0.2196   -0.1545    0.5584
           8    0.0533   -0.0043    0.0011   -0.0003   -0.3083    0.1247    0.0911   -0.3477
           9    0.0245   -0.0106    0.0002    0.0001    0.0204   -0.0050   -0.0008   -0.0073
          10    0.0993   -0.0127   -0.0000    0.0002   -0.0585    0.0200    0.0038    0.0238
          11   -0.0558   -0.0036   -0.0021   -0.0023   -0.5223    0.1083   -0.0559    0.5746
          12   -0.0282   -0.0114   -0.0010   -0.0021   -0.3807    0.0818   -0.0373    0.4014
          13   -0.1825    0.0113    0.0030   -0.0076    0.0050    0.0278    0.0058    0.0068
          14    0.0363    0.0039    0.0389   -0.1017    0.2808    0.8097    0.2898    0.1203
          15    0.0267   -0.0062    0.0123   -0.0330    0.0931    0.2691    0.0969    0.0396
          16   -0.0857    0.0054   -0.0128    0.0050   -0.0009   -0.0165    0.0318    0.0033
          17   -0.0069    0.0060   -0.3697    0.6520    0.0115   -0.1266    0.5583    0.0901
          18    0.0124    0.0021   -0.1153    0.1183    0.0021   -0.0251    0.1148    0.0190
          19   -0.1358   -0.0024   -0.2932   -0.0265    0.0064    0.0700   -0.1605   -0.0239
          20    0.1026    0.0128   -0.3336   -0.0356    0.0076    0.0944   -0.2214   -0.0327
          21   -0.0051   -0.0129    0.6676   -0.0084   -0.0181   -0.1842    0.4104    0.0603
          22   -0.1656   -0.0024    0.2732    0.4995    0.0203    0.1817   -0.3654   -0.0482
          23    0.1262    0.0017    0.0685    0.0526    0.0018    0.0279   -0.0664   -0.0095
          24    0.1513    0.0071    0.2241    0.4674    0.0191    0.1779   -0.3628   -0.0485
          25    0.7171    0.1422    0.0054   -0.0103   -0.0130   -0.0182    0.0343   -0.0101
          26    0.0940    0.1181   -0.0005    0.0150   -0.0583   -0.2029   -0.0855   -0.0348
          27    0.1082   -0.0838   -0.0180   -0.0002   -0.0190   -0.0692   -0.0335   -0.0204
          28    0.0609   -0.1063   -0.0029    0.0028   -0.0107   -0.0119   -0.0002   -0.0246
          29    0.1022   -0.4182   -0.0051    0.0049    0.0017   -0.0232   -0.0073   -0.0066
          30   -0.1423    0.8578    0.0106   -0.0044    0.0052    0.0066    0.0082   -0.0237


          DESCRIPTION OF VIBRATIONS


 VIBRATION          1    1A           ATOM PAIR      ENERGY CONTRIBUTION    RADIAL
 FREQUENCY         -2133.02         C  9 -- H 10         -50.4% (-90.3%)     47.4%
 TRANSITION DIPOLE   0.8190         C  1 -- H 10         -50.0% (-90.0%)     53.3%
 TRAVEL (Ang.)       0.1918         C  1 -- C  9          -0.9% (-12.1%)      0.1%
 REDUCED MASS        0.8590         H  5 -- C  9          -0.4% ( -8.2%)      8.9%
 EFFECTIVE MASS      1.9376
 FORCE CONSTANT     -2.3028

 VIBRATION          2    2A           ATOM PAIR      ENERGY CONTRIBUTION    RADIAL
 FREQUENCY           149.35         C  2 -- H  8         +33.2% (348.0%)      0.1%
 TRANSITION DIPOLE   0.1068         C  2 -- H  7         +32.4% (343.9%)      0.1%
 TRAVEL (Ang.)       0.0000         C  2 -- H  6         +28.1% (319.8%)      0.0%
 REDUCED MASS        0.2815         C  9 -- H 10          +3.6% (114.0%)     27.2%
 EFFECTIVE MASS      2.8950
 FORCE CONSTANT      0.0037

 VIBRATION          3    3A           ATOM PAIR      ENERGY CONTRIBUTION    RADIAL
 FREQUENCY           394.60         C  2 -- C  9         +16.2% (151.8%)      0.0%
 TRANSITION DIPOLE   0.2355         C  1 -- C  9         +15.9% (150.6%)      0.0%
 TRAVEL (Ang.)       0.3567         C  1 -- H  4         +11.1% (126.0%)     40.1%
 REDUCED MASS        1.3432         C  9 -- H 10         +10.8% (123.8%)      0.3%
 EFFECTIVE MASS     23.7325
 FORCE CONSTANT      0.1232

 VIBRATION          4    4A           ATOM PAIR      ENERGY CONTRIBUTION    RADIAL
 FREQUENCY           488.24         C  1 -- H  3         +22.6% ( 96.3%)      2.7%
 TRANSITION DIPOLE   0.3225         C  9 -- H 10         +20.6% ( 91.8%)     10.4%
 TRAVEL (Ang.)       0.5503         C  1 -- H  4         +15.6% ( 80.1%)      0.6%
 REDUCED MASS        0.4561         C  2 -- C  9          +9.3% ( 61.9%)      0.1%
 EFFECTIVE MASS      4.2911
 FORCE CONSTANT      0.0641

 VIBRATION          5    5A           ATOM PAIR      ENERGY CONTRIBUTION    RADIAL
 FREQUENCY           857.65         H  5 -- C  9         +48.6% ( 76.5%)      0.5%
 TRANSITION DIPOLE   0.7555         C  1 -- H  4         +12.3% ( 38.5%)      0.2%
 TRAVEL (Ang.)       0.4502         C  9 -- H 10         +11.8% ( 37.7%)     12.9%
 REDUCED MASS        0.3879         C  2 -- H  7         +11.2% ( 36.7%)      3.6%
 EFFECTIVE MASS      1.5606
 FORCE CONSTANT      0.1681

 VIBRATION          6    6A           ATOM PAIR      ENERGY CONTRIBUTION    RADIAL
 FREQUENCY           930.63         C  1 -- H  3         +26.8% ( 73.9%)     15.8%
 TRANSITION DIPOLE   0.2070         C  1 -- H  4         +24.1% ( 70.0%)      5.1%
 TRAVEL (Ang.)       0.4339         C  1 -- H 10         +10.5% ( 46.2%)     10.8%
 REDUCED MASS        0.3849         C  2 -- H  6          +6.6% ( 36.6%)     78.9%
 EFFECTIVE MASS      3.2678
 FORCE CONSTANT      0.1964

 VIBRATION          7    7A           ATOM PAIR      ENERGY CONTRIBUTION    RADIAL
 FREQUENCY          1011.18         C  2 -- H  8         +29.8% ( 66.7%)     26.4%
 TRANSITION DIPOLE   0.5613         C  2 -- H  6         +16.2% ( 49.2%)      1.9%
 TRAVEL (Ang.)       0.3781         C  2 -- H  7         +14.5% ( 46.5%)      1.8%
 REDUCED MASS        0.4664         C  1 -- H  3         +11.5% ( 41.4%)      1.8%
 EFFECTIVE MASS      3.4085
 FORCE CONSTANT      0.2810

 VIBRATION          8    8A           ATOM PAIR      ENERGY CONTRIBUTION    RADIAL
 FREQUENCY          1025.65         C  2 -- H  6         +24.2% ( 66.9%)      4.4%
 TRANSITION DIPOLE   0.4687         C  2 -- H  7         +17.5% ( 57.0%)     26.6%
 TRAVEL (Ang.)       0.3140         C  2 -- H  8         +13.2% ( 49.5%)      9.8%
 REDUCED MASS        0.6668         C  1 -- H  4         +10.9% ( 45.0%)      0.3%
 EFFECTIVE MASS      4.5131         C  2 -- C  9         +10.3% ( 43.8%)     49.5%
 FORCE CONSTANT      0.4133

 VIBRATION          9    9A           ATOM PAIR      ENERGY CONTRIBUTION    RADIAL
 FREQUENCY          1063.91         C  1 -- H 10         +28.6% ( 66.7%)      0.0%
 TRANSITION DIPOLE   0.7838         C  9 -- H 10         +24.6% ( 61.8%)      0.0%
 TRAVEL (Ang.)       0.4109         C  1 -- H  3         +11.6% ( 42.5%)     16.2%
 REDUCED MASS        0.3754         C  1 -- H  4          +9.8% ( 39.0%)     12.6%
 EFFECTIVE MASS      2.5019
 FORCE CONSTANT      0.2503

 VIBRATION         10   10A           ATOM PAIR      ENERGY CONTRIBUTION    RADIAL
 FREQUENCY          1084.98         C  2 -- H  7         +25.8% ( 51.0%)     20.2%
 TRANSITION DIPOLE   0.7778         C  2 -- H  8         +18.8% ( 43.5%)      9.1%
 TRAVEL (Ang.)       0.3404         C  2 -- H  6         +12.0% ( 34.8%)      1.0%
 REDUCED MASS        0.5363         H  5 -- C  9         +11.8% ( 34.5%)      0.0%
 EFFECTIVE MASS      3.0928         C  2 -- C  9         +11.2% ( 33.7%)      1.1%
 FORCE CONSTANT      0.3720         C  1 -- H  4         +11.1% ( 33.4%)      0.2%

 VIBRATION         11   11A           ATOM PAIR      ENERGY CONTRIBUTION    RADIAL
 FREQUENCY          1206.17         C  2 -- C  9         +25.9% ( 78.4%)     66.0%
 TRANSITION DIPOLE   0.4953         C  1 -- C  9         +16.3% ( 62.1%)     15.2%
 TRAVEL (Ang.)       0.1497         C  9 -- H 10         +11.6% ( 52.5%)      0.1%
 REDUCED MASS        2.4955         C  2 -- H  6          +9.5% ( 47.3%)     87.2%
 EFFECTIVE MASS      8.8877
 FORCE CONSTANT      2.1391

 VIBRATION         12   12A           ATOM PAIR      ENERGY CONTRIBUTION    RADIAL
 FREQUENCY          1283.39         H  5 -- C  9         +52.3% ( 70.2%)      0.6%
 TRANSITION DIPOLE   0.3155         C  2 -- H  6         +12.2% ( 34.0%)      0.1%
 TRAVEL (Ang.)       0.3749         C  2 -- H  7         +11.9% ( 33.5%)      0.5%
 REDUCED MASS        0.3737         C  1 -- C  9          +5.4% ( 22.6%)     79.0%
 EFFECTIVE MASS      1.7348
 FORCE CONSTANT      0.3627

 VIBRATION         13   13A           ATOM PAIR      ENERGY CONTRIBUTION    RADIAL
 FREQUENCY          1290.31         C  2 -- H  8         +33.3% ( 52.7%)      1.6%
 TRANSITION DIPOLE   0.4443         C  2 -- H  7         +32.0% ( 51.7%)      1.7%
 TRAVEL (Ang.)       0.3985         H  5 -- C  9         +19.4% ( 40.2%)      0.9%
 REDUCED MASS        0.3291         C  2 -- H  6          +5.3% ( 21.1%)     80.7%
 EFFECTIVE MASS      1.7001
 FORCE CONSTANT      0.3228

 VIBRATION         14   14A           ATOM PAIR      ENERGY CONTRIBUTION    RADIAL
 FREQUENCY          1292.79         C  2 -- H  6         +40.3% ( 55.6%)      0.0%
 TRANSITION DIPOLE   0.5209         C  2 -- H  8         +21.8% ( 40.9%)      4.4%
 TRAVEL (Ang.)       0.4158         C  2 -- H  7         +16.8% ( 35.9%)     10.7%
 REDUCED MASS        0.3017         H  5 -- C  9         +13.3% ( 32.0%)      1.2%
 EFFECTIVE MASS      1.4863
 FORCE CONSTANT      0.2971

 VIBRATION         15   15A           ATOM PAIR      ENERGY CONTRIBUTION    RADIAL
 FREQUENCY          1369.68         C  1 -- H  3         +41.8% ( 61.1%)      0.6%
 TRANSITION DIPOLE   0.4466         C  1 -- H  4         +37.6% ( 57.9%)      1.6%
 TRAVEL (Ang.)       0.3352         H  5 -- C  9          +5.4% ( 21.9%)      0.4%
 REDUCED MASS        0.4381         C  1 -- H 10          +4.3% ( 19.5%)     46.5%
 EFFECTIVE MASS      1.6897
 FORCE CONSTANT      0.4842

 VIBRATION         16   16A           ATOM PAIR      ENERGY CONTRIBUTION    RADIAL
 FREQUENCY          1391.34         C  2 -- H  6         +30.2% ( 62.0%)      1.7%
 TRANSITION DIPOLE   0.8086         C  2 -- H  8         +24.2% ( 55.5%)      3.0%
 TRAVEL (Ang.)       0.2641         C  2 -- H  7         +22.5% ( 53.5%)      1.7%
 REDUCED MASS        0.6950         C  2 -- C  9         +12.9% ( 40.6%)     93.7%
 EFFECTIVE MASS      3.4014
 FORCE CONSTANT      0.7926

 VIBRATION         17   17A           ATOM PAIR      ENERGY CONTRIBUTION    RADIAL
 FREQUENCY          1452.58         C  1 -- C  9         +31.7% ( 89.1%)     95.0%
 TRANSITION DIPOLE   0.7273         H  5 -- C  9         +15.6% ( 62.5%)      1.3%
 TRAVEL (Ang.)       0.1047         C  2 -- C  9         +15.2% ( 61.6%)     60.5%
 REDUCED MASS        4.2383         C  9 -- H 10         +15.2% ( 61.6%)      6.7%
 EFFECTIVE MASS     10.0366
 FORCE CONSTANT      5.2689

 VIBRATION         18   18A           ATOM PAIR      ENERGY CONTRIBUTION    RADIAL
 FREQUENCY          2248.63         C  9 -- H 10         +49.1% ( 96.4%)     85.7%
 TRANSITION DIPOLE   0.7027         C  1 -- H 10         +48.7% ( 96.0%)     82.1%
 TRAVEL (Ang.)       0.1833         C  1 -- C  9          +1.2% ( 15.1%)     99.8%
 REDUCED MASS        0.8924         C  2 -- C  9          +0.3% (  7.4%)     24.6%
 EFFECTIVE MASS      1.5262
 FORCE CONSTANT      2.6585

 VIBRATION         19   19A           ATOM PAIR      ENERGY CONTRIBUTION    RADIAL
 FREQUENCY          2669.33         C  2 -- H  7         +68.0% ( 85.0%)     99.7%
 TRANSITION DIPOLE   0.6131         C  2 -- H  6         +16.6% ( 41.9%)     86.4%
 TRAVEL (Ang.)       0.2195         C  2 -- H  8         +14.4% ( 39.1%)     84.2%
 REDUCED MASS        0.5242         C  2 -- C  9          +0.8% (  9.4%)      0.2%
 EFFECTIVE MASS      1.4353
 FORCE CONSTANT      2.2005

 VIBRATION         20   20A           ATOM PAIR      ENERGY CONTRIBUTION    RADIAL
 FREQUENCY          2678.27         C  2 -- H  8         +50.1% ( 73.0%)     98.2%
 TRANSITION DIPOLE   0.4897         C  2 -- H  6         +46.9% ( 70.6%)     97.7%
 TRAVEL (Ang.)       0.2273         H  5 -- C  9          +1.2% ( 11.1%)     99.6%
 REDUCED MASS        0.4874         C  2 -- C  9          +0.9% (  9.9%)      0.3%
 EFFECTIVE MASS      1.4450
 FORCE CONSTANT      2.0601

 VIBRATION         21   21A           ATOM PAIR      ENERGY CONTRIBUTION    RADIAL
 FREQUENCY          2730.54         C  1 -- H  4         +45.2% ( 69.6%)     98.4%
 TRANSITION DIPOLE   0.5482         C  1 -- H  3         +43.9% ( 68.6%)     98.4%
 TRAVEL (Ang.)       0.2404         H  5 -- C  9          +8.7% ( 30.5%)     99.9%
 REDUCED MASS        0.4274         C  1 -- C  9          +1.0% ( 10.4%)      1.4%
 EFFECTIVE MASS      1.4787
 FORCE CONSTANT      1.8775

 VIBRATION         22   22A           ATOM PAIR      ENERGY CONTRIBUTION    RADIAL
 FREQUENCY          2764.70         H  5 -- C  9         +76.4% ( 87.9%)    100.0%
 TRANSITION DIPOLE   0.6939         C  1 -- H  3          +7.0% ( 26.5%)     99.1%
 TRAVEL (Ang.)       0.2062         C  2 -- H  8          +6.3% ( 25.2%)     98.5%
 REDUCED MASS        0.5735         C  2 -- H  7          +4.5% ( 21.3%)     97.0%
 EFFECTIVE MASS      1.3408
 FORCE CONSTANT      2.5827

 VIBRATION         23   23A           ATOM PAIR      ENERGY CONTRIBUTION    RADIAL
 FREQUENCY          2781.09         C  2 -- H  6         +33.3% ( 55.8%)     96.3%
 TRANSITION DIPOLE   0.5060         C  2 -- H  8         +27.1% ( 50.4%)     94.9%
 TRAVEL (Ang.)       0.3079         C  2 -- H  7         +24.3% ( 47.6%)     94.0%
 REDUCED MASS        0.2557         H  5 -- C  9         +10.7% ( 31.7%)     99.0%
 EFFECTIVE MASS      1.1789
 FORCE CONSTANT      1.1654

 VIBRATION         24   24A           ATOM PAIR      ENERGY CONTRIBUTION    RADIAL
 FREQUENCY          2795.93         C  1 -- H  4         +50.8% ( 70.1%)     96.4%
 TRANSITION DIPOLE   0.6419         C  1 -- H  3         +44.4% ( 65.6%)     95.4%
 TRAVEL (Ang.)       0.2316         H  5 -- C  9          +1.8% ( 13.1%)     99.1%
 REDUCED MASS        0.4496         C  2 -- H  6          +0.8% (  9.0%)     95.4%
 EFFECTIVE MASS      1.2312
 FORCE CONSTANT      2.0708

           FORCE CONSTANT IN CARTESIAN COORDINATES (Millidynes/A)

    ATOM   CHEMICAL       X               Y               Z
   NUMBER   SYMBOL  FORCE CONSTANT  FORCE CONSTANT  FORCE CONSTANT

      1       C        8.403106        5.827180        1.349840
      2       C        7.377388        6.590622        6.134163
      3       H        3.347140        1.550026        0.457848
      4       H        0.749474        2.945367        1.674434
      5       H        0.906084        3.880399        0.772610
      6       H        0.769352        3.963650        0.721542
      7       H        1.112255        1.253469        3.003499
      8       H        2.520595        0.651417        2.256979
      9       C        9.204339        6.025304        2.381327
     10       H       -1.439803        0.482396        2.088786
 *******************************************************************************
 ** Site#: 37037        For non-commercial use only           Version 21.158W **
 *******************************************************************************
 ** Cite this program as: MOPAC2016, Version: 21.158W, James J. P. Stewart,   **
 ** Stewart Computational Chemistry, web: HTTP://OpenMOPAC.net. Days left: 363**
 *******************************************************************************
 **                                                                           **
 **                                MOPAC2016                                  **
 **                                                                           **
 *******************************************************************************

                              PM7 CALCULATION RESULTS

 *******************************************************************************
 *  CALCULATION DONE:                                Wed Jun  9 11:02:04 2021  *
 *  IRC=N      - INTRINSIC REACTION COORDINATE  1 DEFINED
 *  DRC        - DYNAMIC REACTION COORDINATE CALCULATION
 *  OLDGEO     - PREVIOUS GEOMETRY TO BE USED
 *  RESTART    - CALCULATION RESTARTED
 *  T=         - A TIME OF 172800.0 SECONDS REQUESTED
 *  DUMP=N     - RESTART FILE WRITTEN EVERY 7200.0 SECONDS REQUESTED
 *  CYCLES=    - DO A MAXIMUM OF 200 STEPS
 *  HTML       - WRITE HTML SCRIPT TO GENERATE ANIMATION USING JSMOL
 *             - TO DISPLAY IN PDB FORMAT, ADD "PDBOUT"
 *  T-PRIOR    - TIME TAKES PRIORITY IN DRC
 *******************************************************************************
IRC=1* oldgeo restart html T-PRIORITY=0.5 drc cycles=200
 DRC Reaction path for hydrogen migration in propyl radical

   ATOM                 CHEMICAL                   X               Y               Z
  NUMBER                 SYMBOL               (ANGSTROMS)     (ANGSTROMS)     (ANGSTROMS)
 
     1       C(HETATM    1  C1  HET A   1)   -0.01396746  *   0.13786866  *   0.04542773  *
     2       C(HETATM    3  C3  HET A   1)    2.14041625  *   1.51068825  *  -0.03623340  *
     3       H(HETATM    4 1H1  HET A   1)   -0.67782220  *  -0.47669763  *   0.61963087  *
     4       H(HETATM    5 2H1  HET A   1)   -0.51186810  *   0.82131894  *  -0.61265719  *
     5       H(HETATM    7  H2  HET A   1)    1.73283095  *  -0.14879431  *   1.33465850  *
     6       H(HETATM    8 1H3  HET A   1)    1.78313500  *   1.89599982  *  -0.99950281  *
     7       H(HETATM    9 2H3  HET A   1)    2.06520799  *   2.34178347  *   0.68299095  *
     8       H(HETATM   10 3H3  HET A   1)    3.20673944  *   1.27467436  *  -0.14798704  *
     9       C(HETATM    2  C2  HET A   1)    1.35804767  *   0.33614167  *   0.44190609  *
    10       H(HETATM    6 3H1  HET A   1)    1.04168917  *  -0.58109543  *  -0.55230461  *
 

 General Reference for PM7:
 "Optimization of Parameters for Semiempirical Methods VI: More Modifications to the 
 NDDO Approximations and Re-optimization of Parameters", J. J. P. Stewart, J. Mol. Mod., 1:32, 19 (2013)
 https://link.springer.com/article/10.1007/s00894-012-1667-x

           Empirical Formula: C3 H7  =    10 atoms



      MOLECULAR POINT GROUP   :   C1  


          UHF CALCULATION, NO. OF ALPHA ELECTRONS =   10
                           NO. OF BETA  ELECTRONS =    9

          MOLECULAR WEIGHT =   43.09


          ESTIMATED TIME TO COMPLETE CALCULATION =        0.00 SECONDS

          TIME USED UP TO RESTART =                  0.19

    FOR POINT-GROUP C1   THERE ARE   1 UNIQUE SYMMETRY FUNCTIONS.

           INITIAL VELOCITY IN DRC (Angstroms/Femtosecond)
        -0.01820         0.01592        -0.06430
         0.00174         0.00006        -0.00231
        -0.01413        -0.01367         0.02792
        -0.00855        -0.02216         0.02221
        -0.00306         0.00804        -0.03430
         0.00311        -0.00038        -0.00312
        -0.00494         0.00094         0.00136
         0.00045         0.00039        -0.00269
        -0.03490        -0.03907         0.04617
         0.63925         0.30199         0.23226
 THE VIBRATIONAL FREQUENCY ( -2133.02CM(-1)) IS TOO SMALL
 FOR ONE QUANTUM TO BE USED
 INSTEAD 0.3KCAL/MOLE WILL BE USED TO START THE IRC

 TIME PRIORITY, INTERVAL = 0.50 FEMTOSECONDS



 FEMTOSECONDS  POINT  POTENTIAL + KINETIC  =   TOTAL     ERROR    REF%   MOVEMENT
     0.000       1    47.36243    0.30000    47.66243   0.00000     1   %  0.0000
     0.500       1    47.34999   -0.55736    46.79263  -0.86980     2   %  0.0095
     1.000       1    47.31353   -0.84330    46.47024  -1.19219     3   %  0.0191
     1.500       1    47.25306   -0.55782    46.69524  -0.96719     4   %  0.0287
     2.000       1    47.16856    0.29908    47.46764  -0.19478     5   %  0.0385
     2.500       1    47.06005    1.72740    48.78745   1.12502     6   %  0.0482
     3.000      10    46.79828    0.86382    47.66209  -0.00033     7   %  0.0662
     3.500      14    46.46890    1.19112    47.66002  -0.00241     8   %  0.0840
     4.000      18    45.99602    1.66514    47.66117  -0.00126     9   %  0.1049
     4.500      22    45.33016    2.33423    47.66439   0.00197    10   %  0.1296
     5.000      27    44.41363    3.25097    47.66460   0.00218    11   %  0.1589
     5.500      31    43.19012    4.47333    47.66346   0.00103    12   %  0.1934
     6.000      34    41.61174    6.05250    47.66424   0.00182    13   %  0.2339
     6.500      37    39.65278    8.01260    47.66538   0.00296    14   %  0.2808
     7.000      39    37.32134   10.34565    47.66698   0.00457    15   %  0.3347
     7.500      41    34.66355   12.99644    47.66000  -0.00241    16   %  0.3958
     8.000      43    31.76939   15.89409    47.66348   0.00107    17   %  0.4641
     8.500      45    28.75505   18.90976    47.66481   0.00241    18   %  0.5396
     9.000      48    25.76541   21.90115    47.66656   0.00417    19   %  0.6220
     9.500      51    22.94660   24.71663    47.66323   0.00085    20   %  0.7109
    10.000      54    20.44862   27.21388    47.66250   0.00013    21   %  0.8055
    10.500      58    18.40349   29.25872    47.66221  -0.00015    22   %  0.9052
    11.000      62    16.91695   30.74516    47.66211  -0.00024    23   %  1.0092
    11.500      67    16.05878   31.60349    47.66228  -0.00007    24   %  1.1163
    12.000      71    15.85621   31.80631    47.66253   0.00019    25   %  1.2257
    12.500      76    16.29105   31.37164    47.66268   0.00036    26   %  1.3362
    13.000      80    17.30156   30.36128    47.66283   0.00052    27   %  1.4467
    13.500      85    18.78953   28.87342    47.66295   0.00065    28   %  1.5563
    14.000      89    20.63061   27.03242    47.66303   0.00074    29   %  1.6639
    14.500      93    22.68694   24.97617    47.66311   0.00083    30   %  1.7685
    15.000      96    24.82040   22.84280    47.66320   0.00093    31   %  1.8692
    15.500     100    26.90344   20.75984    47.66328   0.00102    32   %  1.9653
    16.000     103    28.82881   18.83449    47.66330   0.00104    33   %  2.0562
    16.500     107    30.51660   17.14659    47.66320   0.00095    34   %  2.1412
    17.000     111    31.91780   15.74520    47.66299   0.00075    35   %  2.2200
    17.500     115    33.01654   14.64634    47.66287   0.00063    36   %  2.2924
    18.000     120    33.82845   13.83454    47.66299   0.00075    37   %  2.3581
    18.500     125    34.39576   13.26696    47.66272   0.00049    38   %  2.4174
    19.000     130    34.77748   12.88509    47.66257   0.00034    39   %  2.4702
    19.500     135    35.03434   12.62807    47.66241   0.00019    40   %  2.5170
    20.000     140    35.21097   12.45130    47.66227   0.00005    41   %  2.5582
    20.500     145    35.31901   12.34316    47.66217  -0.00005    42   %  2.5944
    21.000     150    35.32832   12.33381    47.66213  -0.00008    43   %  2.6265
    21.500     154    35.17299   12.48917    47.66217  -0.00004    44   %  2.6553
    22.000     158    34.77490   12.88760    47.66250   0.00030    45   %  2.6819
    22.500     162    34.07974   13.58309    47.66283   0.00063    46   %  2.7075
    23.000     164    33.09316   14.57117    47.66433   0.00214    47   %  2.7328
    23.500     167    31.90009   15.76355    47.66364   0.00145    48   %  2.7582
    24.000     172    30.65387   17.00904    47.66291   0.00072    49   %  2.7835
    24.500     177    29.53806   18.12456    47.66261   0.00044    50   %  2.8081
    25.000     182    28.71382   18.94856    47.66238   0.00021    51   %  2.8317
    25.500     187    28.27554   19.38664    47.66218   0.00001    52   %  2.8538
    26.000     192    28.22890   19.43313    47.66203  -0.00013    53   %  2.8737
    26.500     197    28.49658   19.16536    47.66194  -0.00021    54   %  2.8908
    27.000     202    28.94495   18.71696    47.66192  -0.00023    55   %  2.9043
    27.500     207    29.41982   18.24207    47.66189  -0.00025    56   %  2.9137
    28.000     211    29.78010   17.88172    47.66182  -0.00031    57   %  2.9182
    28.500     216    29.92335   17.73837    47.66172  -0.00041    58   %  2.9174
    29.000     220    29.80044   17.86115    47.66159  -0.00053    59   %  2.9112
    29.500     224    29.42151   18.23999    47.66150  -0.00061    60   %  2.8993
    30.000     228    28.85325   18.80821    47.66146  -0.00064    61   %  2.8822
    30.500     233    28.20880   19.45268    47.66148  -0.00061    62   %  2.8602
    31.000     238    27.62867   20.03277    47.66144  -0.00065    63   %  2.8340
    31.500     243    27.25418   20.40720    47.66138  -0.00071    64   %  2.8043
    32.000     248    27.19408   20.46720    47.66128  -0.00080    65   %  2.7721
    32.500     253    27.49090   20.17028    47.66118  -0.00089    66   %  2.7381
    33.000     258    28.09689   19.56422    47.66111  -0.00096    67   %  2.7033
    33.500     263    28.87112   18.79001    47.66113  -0.00093    68   %  2.6683
    34.000     268    29.60579   18.05545    47.66125  -0.00080    69   %  2.6337
    34.500     272    30.07955   17.58179    47.66134  -0.00070    70   %  2.6000
    35.000     275    30.12312   17.53868    47.66180  -0.00024    71   %  2.5677
    35.500     279    29.67620   17.98603    47.66223   0.00019    72   %  2.5374
    36.000     283    28.80955   18.85265    47.66220   0.00017    73   %  2.5099
    36.500     288    27.70496   19.95717    47.66214   0.00012    74   %  2.4861
    37.000     293    26.59796   21.06413    47.66209   0.00008    75   %  2.4671
    37.500     298    25.71038   21.95165    47.66203   0.00003    76   %  2.4537
    38.000     303    25.19507   22.46692    47.66199  -0.00001    77   %  2.4468
    38.500     308    25.10969   22.55229    47.66198  -0.00001    78   %  2.4470
    39.000     313    25.42132   22.24069    47.66200   0.00002    79   %  2.4550
    39.500     318    26.03259   21.62946    47.66205   0.00008    80   %  2.4714
    40.000     323    26.81518   20.84693    47.66211   0.00015    81   %  2.4966
    40.500     328    27.63996   20.02220    47.66216   0.00020    82   %  2.5302
    41.000     333    28.39853   19.26369    47.66222   0.00027    83   %  2.5713
    41.500     337    29.01597   18.64634    47.66231   0.00037    84   %  2.6185
    42.000     341    29.45685   18.20563    47.66248   0.00054    85   %  2.6700
    42.500     344    29.72731   17.93536    47.66266   0.00073    86   %  2.7244
    43.000     349    29.87362   17.78904    47.66267   0.00074    87   %  2.7804
    43.500     353    29.97708   17.68537    47.66245   0.00053    88   %  2.8370
    44.000     358    30.14265   17.51963    47.66228   0.00036    89   %  2.8934
    44.500     363    30.47949   17.18260    47.66209   0.00018    90   %  2.9490
    45.000     368    31.07433   16.58752    47.66185  -0.00005    91   %  3.0031
    45.500     373    31.96137   15.70022    47.66159  -0.00031    92   %  3.0552
    46.000     378    33.09712   14.56423    47.66135  -0.00054    93   %  3.1047
    46.500     383    34.35208   13.30912    47.66119  -0.00069    94   %  3.1509
    47.000     388    35.52773   12.13345    47.66118  -0.00070    95   %  3.1932
    47.500     393    36.40018   11.26117    47.66135  -0.00053    96   %  3.2312
    48.000     398    36.77998   10.88151    47.66150  -0.00038    97   %  3.2646
    48.500     401    36.56875   11.09329    47.66204   0.00017    98   %  3.2932
    49.000     405    35.79180   11.87053    47.66233   0.00047    99   %  3.3172
    49.500     410    34.59324   13.06891    47.66214   0.00028   100   %  3.3368
    50.000     415    33.19266   14.46941    47.66207   0.00022   101   %  3.3527
    50.500     420    31.82272   15.83926    47.66198   0.00013   102   %  3.3653
    51.000     425    30.66860   16.99328    47.66188   0.00004   103   %  3.3754
    51.500     430    29.82966   17.83216    47.66182  -0.00002   104   %  3.3835
    52.000     435    29.31091   18.35092    47.66183  -0.00001   105   %  3.3901
    52.500     440    29.04018   18.62176    47.66195   0.00012   106   %  3.3956
    53.000     444    28.89892   18.76323    47.66215   0.00033   107   %  3.4002
    53.500     449    28.75554   18.90712    47.66266   0.00085   108   %  3.4043
    54.000     453    28.49197   19.17066    47.66263   0.00082   109   %  3.4077
    54.500     456    28.02486   19.63862    47.66348   0.00168   110   %  3.4106
    55.000     460    27.31779   20.34597    47.66376   0.00196   111   %  3.4128
    55.500     463    26.39028   21.27311    47.66339   0.00160   112   %  3.4145
    56.000     467    25.32071   22.34210    47.66281   0.00103   113   %  3.4159
    56.500     472    24.24065   23.42236    47.66301   0.00124   114   %  3.4174
    57.000     477    23.31861   24.34413    47.66274   0.00097   115   %  3.4197
    57.500     482    22.72917   24.93337    47.66254   0.00078   116   %  3.4236
    58.000     487    22.61032   25.05202    47.66234   0.00060   117   %  3.4301
    58.500     492    23.01844   24.64374    47.66218   0.00044   118   %  3.4401
    59.000     497    23.89706   23.76504    47.66210   0.00037   119   %  3.4545
    59.500     502    25.07659   22.58558    47.66217   0.00045   120   %  3.4738
    60.000     507    26.31341   21.34909    47.66250   0.00079   121   %  3.4984
    60.500     511    27.36001   20.30253    47.66253   0.00083   122   %  3.5285
    61.000     515    28.04249   19.62095    47.66344   0.00174   123   %  3.5641
    61.500     518    28.31491   19.34822    47.66314   0.00145   124   %  3.6047
    62.000     522    28.26925   19.39322    47.66247   0.00078   125   %  3.6498
    62.500     527    28.09450   19.56774    47.66224   0.00056   126   %  3.6983
    63.000     532    28.00839   19.65366    47.66206   0.00039   127   %  3.7493
    63.500     537    28.18683   19.47509    47.66193   0.00026   128   %  3.8011
    64.000     542    28.71582   18.94603    47.66185   0.00019   129   %  3.8524
    64.500     547    29.57707   18.08477    47.66184   0.00019   130   %  3.9017
    65.000     552    30.66362   16.99826    47.66188   0.00023   131   %  3.9474
    65.500     557    31.81368   15.84828    47.66195   0.00031   132   %  3.9882
    66.000     562    32.84916   14.81287    47.66203   0.00040   133   %  4.0229
    66.500     567    33.61064   14.05152    47.66216   0.00053   134   %  4.0509
    67.000     572    33.98365   13.67879    47.66244   0.00081   135   %  4.0715
    67.500     575    33.91669   13.74608    47.66278   0.00116   136   %  4.0846
    68.000     579    33.43039   14.23253    47.66293   0.00131   137   %  4.0903
    68.500     583    32.61754   15.04514    47.66269   0.00108   138   %  4.0890
    69.000     587    31.62994   16.03237    47.66232   0.00071   139   %  4.0814
    69.500     592    30.65323   17.00896    47.66219   0.00059   140   %  4.0686
    70.000     597    29.86847   17.79360    47.66206   0.00047   141   %  4.0516
    70.500     602    29.40774   18.25416    47.66190   0.00031   142   %  4.0319
    71.000     607    29.31475   18.34700    47.66175   0.00016   143   %  4.0106
    71.500     612    29.52521   18.13647    47.66168   0.00011   144   %  3.9893
    72.000     617    29.87907   17.78271    47.66178   0.00021   145   %  3.9693
    72.500     622    30.16593   17.49619    47.66211   0.00055   146   %  3.9519
    73.000     626    30.19012   17.47194    47.66206   0.00051   147   %  3.9382
    73.500     629    29.83340   17.82913    47.66253   0.00098   148   %  3.9292
    74.000     632    29.09025   18.57195    47.66221   0.00066   149   %  3.9256
    74.500     636    28.06411   19.59770    47.66180   0.00027   150   %  3.9279
    75.000     641    26.92870   20.73286    47.66157   0.00004   151   %  3.9359
    75.500     646    25.87376   21.78766    47.66142  -0.00010   152   %  3.9494
    76.000     651    25.05694   22.60438    47.66132  -0.00019   153   %  3.9681
    76.500     656    24.57651   23.08476    47.66127  -0.00023   154   %  3.9911
    77.000     661    24.46583   23.19544    47.66126  -0.00024   155   %  4.0177
    77.500     666    24.70360   22.95767    47.66127  -0.00022   156   %  4.0470
    78.000     671    25.22890   22.43237    47.66127  -0.00021   157   %  4.0779
    78.500     676    25.95454   21.70670    47.66124  -0.00024   158   %  4.1091
    79.000     681    26.77662   20.88456    47.66118  -0.00029   159   %  4.1395
    79.500     686    27.58409   20.07700    47.66110  -0.00037   160   %  4.1677
    80.000     691    28.27261   19.38841    47.66102  -0.00044   161   %  4.1926
    80.500     696    28.76438   18.89653    47.66091  -0.00053   162   %  4.2133
    81.000     701    29.03076   18.63011    47.66087  -0.00057   163   %  4.2291
    81.500     706    29.10988   18.55105    47.66093  -0.00051   164   %  4.2397
    82.000     711    29.10850   18.55242    47.66093  -0.00050   165   %  4.2450
    82.500     716    29.18135   18.47956    47.66091  -0.00051   166   %  4.2453
    83.000     721    29.48779   18.17308    47.66088  -0.00054   167   %  4.2413
    83.500     726    30.13710   17.52376    47.66086  -0.00055   168   %  4.2335
    84.000     731    31.14083   16.52006    47.66089  -0.00051   169   %  4.2227
    84.500     736    32.39317   15.26784    47.66101  -0.00039   170   %  4.2092
    85.000     741    33.69119   13.97002    47.66122  -0.00018   171   %  4.1935
    85.500     746    34.79078   12.87070    47.66148   0.00010   172   %  4.1757
    86.000     750    35.47774   12.18408    47.66182   0.00043   173   %  4.1558
    86.500     754    35.62652   12.03525    47.66177   0.00039   174   %  4.1340
    87.000     757    35.22699   12.43511    47.66210   0.00072   175   %  4.1106
    87.500     762    34.37120   13.29051    47.66171   0.00033   176   %  4.0861
    88.000     767    33.21412   14.44752    47.66164   0.00027   177   %  4.0613
    88.500     772    31.92586   15.73572    47.66158   0.00022   178   %  4.0373
    89.000     777    30.65634   17.00519    47.66154   0.00018   179   %  4.0154
    89.500     782    29.51775   18.14373    47.66149   0.00014   180   %  3.9974
    90.000     787    28.58205   19.07937    47.66142   0.00008   181   %  3.9852
    90.500     792    27.88517   19.77615    47.66132  -0.00002   182   %  3.9808
    91.000     797    27.43062   20.23056    47.66119  -0.00014   183   %  3.9856
    91.500     802    27.18988   20.47118    47.66106  -0.00026   184   %  3.9998
    92.000     807    27.10388   20.55712    47.66100  -0.00031   185   %  4.0223
    92.500     812    27.09169   20.56936    47.66105  -0.00026   186   %  4.0518
    93.000     817    27.07012   20.59108    47.66120  -0.00011   187   %  4.0868
    93.500     822    26.98194   20.67944    47.66138   0.00009   188   %  4.1264
    94.000     826    26.82323   20.83837    47.66161   0.00032   189   %  4.1702
    94.500     831    26.65765   21.00397    47.66162   0.00034   190   %  4.2175
    95.000     836    26.60721   21.05431    47.66152   0.00025   191   %  4.2683
    95.500     841    26.81740   20.84403    47.66143   0.00016   192   %  4.3220
    96.000     846    27.40582   20.25548    47.66130   0.00004   193   %  4.3782
    96.500     851    28.41282   19.24837    47.66119  -0.00006   194   %  4.4361
    97.000     856    29.77343   17.88771    47.66114  -0.00011   195   %  4.4948
    97.500     861    31.32464   16.33654    47.66118  -0.00006   196   %  4.5531
    98.000     866    32.84711   14.81420    47.66132   0.00008   197   %  4.6100
    98.500     870    34.12606   13.53549    47.66155   0.00032   198   %  4.6641
    99.000     875    35.00700   12.65484    47.66184   0.00062   199   %  4.7143
    99.500     879    35.42585   12.23600    47.66184   0.00062   200   %  4.7599


           INITIAL VELOCITY IN DRC (Angstroms/Femtosecond)
         0.01820        -0.01592         0.06430
        -0.00174        -0.00006         0.00231
         0.01413         0.01367        -0.02792
         0.00855         0.02216        -0.02221
         0.00306        -0.00804         0.03430
        -0.00311         0.00038         0.00312
         0.00494        -0.00094        -0.00136
        -0.00045        -0.00039         0.00269
         0.03490         0.03907        -0.04617
        -0.63925        -0.30199        -0.23226
 THE VIBRATIONAL FREQUENCY ( -2133.02CM(-1)) IS TOO SMALL
 FOR ONE QUANTUM TO BE USED
 INSTEAD 0.3KCAL/MOLE WILL BE USED TO START THE IRC

 TIME PRIORITY, INTERVAL = 0.50 FEMTOSECONDS



 FEMTOSECONDS  POINT  POTENTIAL + KINETIC  =   TOTAL     ERROR    REF%   MOVEMENT
     0.000       1    47.36243    0.30000    47.66243   0.00000     1   %  0.0000
     0.500       1    47.35078   -0.56452    46.78626  -0.87617     2   %  0.0095
     1.000       1    47.31408   -0.85254    46.46155  -1.20088     3   %  0.0191
     1.500       1    47.25235   -0.56405    46.68830  -0.97413     4   %  0.0288
     2.000       1    47.16557    0.30094    47.46650  -0.19592     5   %  0.0386
     2.500       1    47.05374    1.74242    48.79617   1.13374     6   %  0.0484
     3.000      10    46.77884    0.88318    47.66202  -0.00041     7   %  0.0666
     3.500      14    46.42701    1.23564    47.66266   0.00023     8   %  0.0846
     4.000      19    45.91078    1.75250    47.66328   0.00085     9   %  0.1060
     4.500      23    45.16606    2.49217    47.65823  -0.00419    10   %  0.1316
     5.000      28    44.11701    3.54862    47.66563   0.00321    11   %  0.1621
     5.500      33    42.67788    4.97914    47.65702  -0.00540    12   %  0.1984
     6.000      38    40.77464    6.88965    47.66429   0.00187    13   %  0.2414
     6.500      42    38.35839    9.30737    47.66576   0.00334    14   %  0.2918
     7.000      46    35.42760   12.23983    47.66743   0.00502    15   %  0.3503
     7.500      48    32.03786   15.63141    47.66927   0.00686    16   %  0.4173
     8.000      51    28.30105   19.37003    47.67108   0.00868    17   %  0.4929
     8.500      53    24.37802   23.28461    47.66263   0.00024    18   %  0.5773
     9.000      56    20.45530   27.21003    47.66533   0.00294    19   %  0.6701
     9.500      60    16.73102   30.93304    47.66405   0.00168    20   %  0.7709
    10.000      64    13.39610   34.26716    47.66327   0.00090    21   %  0.8792
    10.500      69    10.62101   37.04182    47.66283   0.00048    22   %  0.9943
    11.000      74     8.54617   39.11640    47.66257   0.00023    23   %  1.1153
    11.500      79     7.27220   40.39012    47.66232  -0.00000    24   %  1.2412
    12.000      84     6.85113   40.81117    47.66230  -0.00001    25   %  1.3711
    12.500      89     7.27873   40.38338    47.66211  -0.00018    26   %  1.5037
    13.000      94     8.49201   39.17007    47.66209  -0.00020    27   %  1.6378
    13.500      99    10.37347   37.28873    47.66220  -0.00007    28   %  1.7723
    14.000     104    12.76333   34.89907    47.66240   0.00014    29   %  1.9060
    14.500     108    15.47766   32.18492    47.66258   0.00033    30   %  2.0375
    15.000     113    18.32906   29.33341    47.66247   0.00024    31   %  2.1657
    15.500     117    21.14555   26.51705    47.66260   0.00038    32   %  2.2893
    16.000     121    23.78568   23.87684    47.66252   0.00031    33   %  2.4074
    16.500     125    26.14987   21.51301    47.66288   0.00067    34   %  2.5189
    17.000     129    28.18699   19.47537    47.66236   0.00016    35   %  2.6233
    17.500     134    29.89822   17.76396    47.66218  -0.00002    36   %  2.7199
    18.000     139    31.33652   16.32553    47.66205  -0.00014    37   %  2.8083
    18.500     144    32.60058   15.06140    47.66197  -0.00021    38   %  2.8883
    19.000     149    33.81985   13.84207    47.66192  -0.00026    39   %  2.9597
    19.500     154    35.12732   12.53455    47.66187  -0.00031    40   %  3.0227
    20.000     159    36.62041   11.04141    47.66182  -0.00035    41   %  3.0774
    20.500     164    38.31623    9.34554    47.66177  -0.00040    42   %  3.1241
    21.000     169    40.11549    7.54623    47.66172  -0.00044    43   %  3.1633
    21.500     174    41.79398    5.86773    47.66171  -0.00045    44   %  3.1952
    22.000     179    43.03651    4.62524    47.66176  -0.00040    45   %  3.2201
    22.500     184    43.51446    4.14734    47.66180  -0.00035    46   %  3.2382
    23.000     188    42.98711    4.67501    47.66212  -0.00004    47   %  3.2495
    23.500     191    41.39381    6.26910    47.66290   0.00075    48   %  3.2537
    24.000     196    38.89496    8.76727    47.66223   0.00008    49   %  3.2504
    24.500     201    35.83865   11.82348    47.66213  -0.00001    50   %  3.2392
    25.000     206    32.66105   15.00089    47.66194  -0.00020    51   %  3.2193
    25.500     211    29.76246   17.89924    47.66170  -0.00044    52   %  3.1902
    26.000     216    27.40472   20.25676    47.66148  -0.00065    53   %  3.1511
    26.500     221    25.66511   21.99627    47.66137  -0.00075    54   %  3.1013
    27.000     226    24.45280   23.20861    47.66141  -0.00071    55   %  3.0403
    27.500     231    23.56852   24.09304    47.66157  -0.00054    56   %  2.9677
    28.000     236    22.77678   24.88504    47.66181  -0.00029    57   %  2.8833
    28.500     241    21.86691   25.79517    47.66208  -0.00001    58   %  2.7873
    29.000     246    20.69203   26.97027    47.66230   0.00022    59   %  2.6802
    29.500     251    19.18720   28.47525    47.66246   0.00039    60   %  2.5629
    30.000     255    17.37313   30.28904    47.66217   0.00010    61   %  2.4367
    30.500     259    15.35240   32.30955    47.66195  -0.00010    62   %  2.3034
    31.000     263    13.30093   34.36105    47.66198  -0.00006    63   %  2.1643
    31.500     268    11.45394   36.20808    47.66203   0.00000    64   %  2.0210
    32.000     273    10.08402   37.57798    47.66200  -0.00002    65   %  1.8752
    32.500     278     9.46298   38.19896    47.66194  -0.00006    66   %  1.7290
    33.000     283     9.81078   37.85110    47.66188  -0.00011    67   %  1.5852
    33.500     288    11.23743   36.42442    47.66185  -0.00013    68   %  1.4476
    34.000     293    13.69779   33.96366    47.66146  -0.00051    69   %  1.3213
    34.500     298    16.98165   30.67990    47.66154  -0.00041    70   %  1.2145
    35.000     303    20.75138   26.91036    47.66174  -0.00020    71   %  1.1355
    35.500     308    24.61871   23.04321    47.66193  -0.00001    72   %  1.0828
    36.000     312    28.23321   19.42902    47.66223   0.00031    73   %  1.0460
    36.500     315    31.35342   16.30932    47.66275   0.00083    74   %  1.0165
    37.000     319    33.87882   13.78364    47.66246   0.00055    75   %  0.9903
    37.500     324    35.83781   11.82479    47.66260   0.00069    76   %  0.9657


 GRADIENT CONSTANT AND SMALL -- ASSUME ALL MOTION STOPPED
 TO CONTINUE, USE KEYWORD 'GNORM=0'

 **********************
 *                    *
 * JOB ENDED NORMALLY *
 *                    *
 **********************



 TOTAL JOB TIME:             4.47 SECONDS

 == MOPAC DONE ==
