 *******************************************************************************
 ** Site#: 37037        For non-commercial use only           Version 21.153W **
 *******************************************************************************
 ** Cite this program as: MOPAC2016, Version: 21.153W, James J. P. Stewart,   **
 ** Stewart Computational Chemistry, web: HTTP://OpenMOPAC.net. Days left: 364**
 *******************************************************************************
 **                                                                           **
 **                                MOPAC2016                                  **
 **                                                                           **
 *******************************************************************************

                              PM7 CALCULATION RESULTS

 *******************************************************************************
 *  CALCULATION DONE:                                Thu Jun  3 16:15:01 2021  *
 *  SYMMETRY   - SYMMETRY CONDITIONS TO BE IMPOSED
 *  STEP       - STEP-SIZE IN PATH =   0.050
 *  POINT      - NUMBER OF POINTS IN PATH = 20
 *  T=         - A TIME OF 172800.0 SECONDS REQUESTED
 *  DUMP=N     - RESTART FILE WRITTEN EVERY 7200.0 SECONDS REQUESTED
 *  HTML       - WRITE HTML SCRIPT TO GENERATE ANIMATION USING JSMOL
 *             - TO DISPLAY IN PDB FORMAT, ADD "PDBOUT"
 *******************************************************************************



                    PARAMETER DEPENDENCE DATA

        REFERENCE ATOM      FUNCTION NO.    DEPENDENT ATOM(S)
        " xx   HET A   1"            1          "  C2  HET A   1"

             DESCRIPTIONS OF THE FUNCTIONS USED
   1      BOND LENGTH    IS SET EQUAL TO THE REFERENCE BOND LENGTH   
 
 symmetry html  step=0.05 points=20
 Propyl radical

  ATOM               CHEMICAL                 BOND LENGTH      BOND ANGLE     TWIST ANGLE 
 NUMBER               SYMBOL                  (ANGSTROMS)      (DEGREES)       (DEGREES) 
   (I)                                           NA:I           NB:NA:I       NC:NB:NA:I       NA    NB    NC 
     1       C(HETATM    1  C1  HET A   1)   -0.00740321  *    0.1133711  *    0.0176252  *
     2       C(HETATM    3  C3  HET A   1)    2.13683039  *    1.5172014  *   -0.0273627  *
     3       H(HETATM    4 1H1  HET A   1)   -0.67987432  *   -0.4711827  *    0.6199115  *
     4       H(HETATM    5 2H1  HET A   1)   -0.51630346  *    0.8339663  *   -0.5981249  *
     5       H(HETATM    7  H2  HET A   1)    1.73455283  *   -0.1565867  *    1.3383530  *
     6       H(HETATM    8 1H3  HET A   1)    1.77502871  *    1.8893730  *   -0.9951722  *
     7       H(HETATM    9 2H3  HET A   1)    2.07940715  *    2.3650354  *    0.6759750  *
     8       H(HETATM   10 3H3  HET A   1)    3.20071646  *    1.2661854  *   -0.1435455  *
     9      XX(HETATM   11 xx   HET A   1)    1.78348427  *   72.4224082  *  -21.9533443  *     1     2     8
    10       C(HETATM    2  C2  HET A   1)    1.78348427      48.2516695  *   30.8283410  *     9     1     2
    11       H(HETATM    6 3H1  HET A   1)   -0.50000000  +  180.0000000       0.0000000        9     1     2
 

 General Reference for PM7:
 "Optimization of Parameters for Semiempirical Methods VI: More Modifications to the 
 NDDO Approximations and Re-optimization of Parameters", J. J. P. Stewart, J. Mol. Mod., 1:32, 19 (2013)
 https://link.springer.com/article/10.1007/s00894-012-1667-x

           Empirical Formula: C3 H7  =    10 atoms



      MOLECULAR POINT GROUP   :   C1  


          UHF CALCULATION, NO. OF ALPHA ELECTRONS =   10
                           NO. OF BETA  ELECTRONS =    9
  ABOUT TO ENTER EF FROM PATHK

          Geometry optimization using EF

     GRADIENT =  0.72285 IS LESS THAN CUTOFF =  1.00000



          VARIABLE        FUNCTION
 :        -0.50000       39.806544
 symmetry html  step=0.05 points=20
 Propyl radical

  C(HETATM    1  C1  HET A   1)  -0.00740321 +1    0.1133711 +1    0.0176252 +1
  C(HETATM    3  C3  HET A   1)   2.13683039 +1    1.5172014 +1   -0.0273627 +1
  H(HETATM    4 1H1  HET A   1)  -0.67987432 +1   -0.4711827 +1    0.6199115 +1
  H(HETATM    5 2H1  HET A   1)  -0.51630346 +1    0.8339663 +1   -0.5981249 +1
  H(HETATM    7  H2  HET A   1)   1.73455283 +1   -0.1565867 +1    1.3383530 +1
  H(HETATM    8 1H3  HET A   1)   1.77502871 +1    1.8893730 +1   -0.9951722 +1
  H(HETATM    9 2H3  HET A   1)   2.07940715 +1    2.3650354 +1    0.6759750 +1
  H(HETATM   10 3H3  HET A   1)   3.20071646 +1    1.2661854 +1   -0.1435455 +1
 XX(HETATM   11 xx   HET A   1)   1.78348427 +1   72.4224082 +1  -21.9533443 +1 "  C1  HET A   1" "  C3  HET A   1" " 3H3  HET A   1" =  1  2  8
  C(HETATM    2  C2  HET A   1)   1.78348427 +0   48.2516695 +1   30.8283410 +1 " xx   HET A   1" "  C1  HET A   1" "  C3  HET A   1" =  9  1  2
  H(HETATM    6 3H1  HET A   1)  -0.50000000 -1  180.0000000 +0    0.0000000 +0 " xx   HET A   1" "  C1  HET A   1" "  C3  HET A   1" =  9  1  2
 
 " xx   HET A   1"  1  "  C2  HET A   1"
 

          Geometry optimization using EF

          DIAGONAL MATRIX USED AS START HESSIAN

 CYCLE:     1 TIME:   0.000 TIME LEFT:  2.00D  GRAD.:    23.769 HEAT:  41.10952
 CYCLE:     2 TIME:   0.000 TIME LEFT:  2.00D  GRAD.:    41.562 HEAT:  41.08109
 CYCLE:     3 TIME:   0.016 TIME LEFT:  2.00D  GRAD.:     9.592 HEAT:  40.81831
 CYCLE:     4 TIME:   0.000 TIME LEFT:  2.00D  GRAD.:     8.949 HEAT:  40.76689
 CYCLE:     5 TIME:   0.000 TIME LEFT:  2.00D  GRAD.:     5.142 HEAT:  40.71439
 CYCLE:     6 TIME:   0.016 TIME LEFT:  2.00D  GRAD.:     3.902 HEAT:  40.70788
 CYCLE:     7 TIME:   0.000 TIME LEFT:  2.00D  GRAD.:     1.970 HEAT:  40.70433
 CYCLE:     8 TIME:   0.000 TIME LEFT:  2.00D  GRAD.:     2.277 HEAT:  40.70341
 CYCLE:     9 TIME:   0.000 TIME LEFT:  2.00D  GRAD.:     1.805 HEAT:  40.70254
 CYCLE:    10 TIME:   0.000 TIME LEFT:  2.00D  GRAD.:     0.996 HEAT:  40.70129

     GRADIENT =  0.99556 IS LESS THAN CUTOFF =  1.00000



          VARIABLE        FUNCTION
 :        -0.45000       40.701286
 symmetry html  step=0.05 points=20
 Propyl radical

  C(HETATM    1  C1  HET A   1)  -0.00797914 +1    0.1145857 +1    0.0192492 +1
  C(HETATM    3  C3  HET A   1)   2.13645004 +1    1.5165449 +1   -0.0280851 +1
  H(HETATM    4 1H1  HET A   1)  -0.67960353 +1   -0.4714107 +1    0.6203435 +1
  H(HETATM    5 2H1  HET A   1)  -0.51622858 +1    0.8326937 +1   -0.5987228 +1
  H(HETATM    7  H2  HET A   1)   1.73432203 +1   -0.1559298 +1    1.3371226 +1
  H(HETATM    8 1H3  HET A   1)   1.77665287 +1    1.8900609 +1   -0.9963631 +1
  H(HETATM    9 2H3  HET A   1)   2.07914046 +1    2.3634685 +1    0.6775096 +1
  H(HETATM   10 3H3  HET A   1)   3.20020041 +1    1.2673500 +1   -0.1433945 +1
 XX(HETATM   11 xx   HET A   1)   1.74187918 +1   72.0824336 +1  -21.8223289 +1 "  C1  HET A   1" "  C3  HET A   1" " 3H3  HET A   1" =  1  2  8
  C(HETATM    2  C2  HET A   1)   1.74187918 +0   49.4188635 +1   30.8776123 +1 " xx   HET A   1" "  C1  HET A   1" "  C3  HET A   1" =  9  1  2
  H(HETATM    6 3H1  HET A   1)  -0.45000000 -1  180.0000000 +0    0.0000000 +0 " xx   HET A   1" "  C1  HET A   1" "  C3  HET A   1" =  9  1  2
 
 " xx   HET A   1"  1  "  C2  HET A   1"
 

          Geometry optimization using EF

          DIAGONAL MATRIX USED AS START HESSIAN

 CYCLE:     1 TIME:   0.000 TIME LEFT:  2.00D  GRAD.:    23.412 HEAT:  42.00198
 CYCLE:     2 TIME:   0.000 TIME LEFT:  2.00D  GRAD.:    40.075 HEAT:  41.97302
 CYCLE:     3 TIME:   0.000 TIME LEFT:  2.00D  GRAD.:     9.322 HEAT:  41.72128
 CYCLE:     4 TIME:   0.016 TIME LEFT:  2.00D  GRAD.:     9.001 HEAT:  41.67296
 CYCLE:     5 TIME:   0.008 TIME LEFT:  2.00D  GRAD.:     5.379 HEAT:  41.62213
 CYCLE:     6 TIME:   0.000 TIME LEFT:  2.00D  GRAD.:     4.937 HEAT:  41.61699
 CYCLE:     7 TIME:   0.000 TIME LEFT:  2.00D  GRAD.:     3.414 HEAT:  41.61317
 CYCLE:     8 TIME:   0.000 TIME LEFT:  2.00D  GRAD.:     1.985 HEAT:  41.61044
 CYCLE:     9 TIME:   0.016 TIME LEFT:  2.00D  GRAD.:     2.233 HEAT:  41.61037
 CYCLE:    10 TIME:   0.000 TIME LEFT:  2.00D  GRAD.:     0.700 HEAT:  41.60874

     GRADIENT =  0.69972 IS LESS THAN CUTOFF =  1.00000



          VARIABLE        FUNCTION
 :        -0.40000       41.608744
 symmetry html  step=0.05 points=20
 Propyl radical

  C(HETATM    1  C1  HET A   1)  -0.00845459 +1    0.1163002 +1    0.0213932 +1
  C(HETATM    3  C3  HET A   1)   2.13661976 +1    1.5163127 +1   -0.0287683 +1
  H(HETATM    4 1H1  HET A   1)  -0.67940862 +1   -0.4718495 +1    0.6205938 +1
  H(HETATM    5 2H1  HET A   1)  -0.51636802 +1    0.8316564 +1   -0.6001010 +1
  H(HETATM    7  H2  HET A   1)   1.73423160 +1   -0.1554693 +1    1.3364326 +1
  H(HETATM    8 1H3  HET A   1)   1.77761133 +1    1.8909231 +1   -0.9964333 +1
  H(HETATM    9 2H3  HET A   1)   2.07810469 +1    2.3617498 +1    0.6779393 +1
  H(HETATM   10 3H3  HET A   1)   3.20061842 +1    1.2677398 +1   -0.1433970 +1
 XX(HETATM   11 xx   HET A   1)   1.70122891 +1   71.7250481 +1  -21.6971746 +1 "  C1  HET A   1" "  C3  HET A   1" " 3H3  HET A   1" =  1  2  8
  C(HETATM    2  C2  HET A   1)   1.70122891 +0   50.6173334 +1   30.9411618 +1 " xx   HET A   1" "  C1  HET A   1" "  C3  HET A   1" =  9  1  2
  H(HETATM    6 3H1  HET A   1)  -0.40000000 -1  180.0000000 +0    0.0000000 +0 " xx   HET A   1" "  C1  HET A   1" "  C3  HET A   1" =  9  1  2
 
 " xx   HET A   1"  1  "  C2  HET A   1"
 

          Geometry optimization using EF

          DIAGONAL MATRIX USED AS START HESSIAN

 CYCLE:     1 TIME:   0.016 TIME LEFT:  2.00D  GRAD.:    23.074 HEAT:  42.90283
 CYCLE:     2 TIME:   0.000 TIME LEFT:  2.00D  GRAD.:    37.477 HEAT:  42.86424
 CYCLE:     3 TIME:   0.000 TIME LEFT:  2.00D  GRAD.:     9.243 HEAT:  42.63134
 CYCLE:     4 TIME:   0.000 TIME LEFT:  2.00D  GRAD.:     8.908 HEAT:  42.58399
 CYCLE:     5 TIME:   0.016 TIME LEFT:  2.00D  GRAD.:     5.228 HEAT:  42.53326
 CYCLE:     6 TIME:   0.000 TIME LEFT:  2.00D  GRAD.:     5.256 HEAT:  42.52861
 CYCLE:     7 TIME:   0.000 TIME LEFT:  2.00D  GRAD.:     3.351 HEAT:  42.52393
 CYCLE:     8 TIME:   0.000 TIME LEFT:  2.00D  GRAD.:     2.180 HEAT:  42.52144
 CYCLE:     9 TIME:   0.016 TIME LEFT:  2.00D  GRAD.:     2.165 HEAT:  42.52110
 CYCLE:    10 TIME:   0.000 TIME LEFT:  2.00D  GRAD.:     1.010 HEAT:  42.51971
 CYCLE:    11 TIME:   0.000 TIME LEFT:  2.00D  GRAD.:     0.959 HEAT:  42.51955

     GRADIENT =  0.95947 IS LESS THAN CUTOFF =  1.00000



          VARIABLE        FUNCTION
 :        -0.35000       42.519552
 symmetry html  step=0.05 points=20
 Propyl radical

  C(HETATM    1  C1  HET A   1)  -0.00876243 +1    0.1183597 +1    0.0235751 +1
  C(HETATM    3  C3  HET A   1)   2.13674454 +1    1.5163071 +1   -0.0295518 +1
  H(HETATM    4 1H1  HET A   1)  -0.67932931 +1   -0.4724549 +1    0.6207018 +1
  H(HETATM    5 2H1  HET A   1)  -0.51644273 +1    0.8305923 +1   -0.6011701 +1
  H(HETATM    7  H2  HET A   1)   1.73412356 +1   -0.1549164 +1    1.3357639 +1
  H(HETATM    8 1H3  HET A   1)   1.77849558 +1    1.8916364 +1   -0.9961325 +1
  H(HETATM    9 2H3  HET A   1)   2.07692329 +1    2.3596851 +1    0.6778005 +1
  H(HETATM   10 3H3  HET A   1)   3.20120207 +1    1.2681539 +1   -0.1433277 +1
 XX(HETATM   11 xx   HET A   1)   1.66157937 +1   71.3502901 +1  -21.5376744 +1 "  C1  HET A   1" "  C3  HET A   1" " 3H3  HET A   1" =  1  2  8
  C(HETATM    2  C2  HET A   1)   1.66157937 +0   51.8406563 +1   31.0160854 +1 " xx   HET A   1" "  C1  HET A   1" "  C3  HET A   1" =  9  1  2
  H(HETATM    6 3H1  HET A   1)  -0.35000000 -1  180.0000000 +0    0.0000000 +0 " xx   HET A   1" "  C1  HET A   1" "  C3  HET A   1" =  9  1  2
 
 " xx   HET A   1"  1  "  C2  HET A   1"
 

          Geometry optimization using EF

          DIAGONAL MATRIX USED AS START HESSIAN

 CYCLE:     1 TIME:   0.016 TIME LEFT:  2.00D  GRAD.:    22.900 HEAT:  43.80120
 CYCLE:     2 TIME:   0.000 TIME LEFT:  2.00D  GRAD.:    36.786 HEAT:  43.75982
 CYCLE:     3 TIME:   0.000 TIME LEFT:  2.00D  GRAD.:     9.432 HEAT:  43.53030
 CYCLE:     4 TIME:   0.000 TIME LEFT:  2.00D  GRAD.:     9.299 HEAT:  43.48557
 CYCLE:     5 TIME:   0.016 TIME LEFT:  2.00D  GRAD.:     4.797 HEAT:  43.43346
 CYCLE:     6 TIME:   0.008 TIME LEFT:  2.00D  GRAD.:     3.777 HEAT:  43.42679
 CYCLE:     7 TIME:   0.000 TIME LEFT:  2.00D  GRAD.:     2.205 HEAT:  43.42353
 CYCLE:     8 TIME:   0.000 TIME LEFT:  2.00D  GRAD.:     2.472 HEAT:  43.42276
 CYCLE:     9 TIME:   0.000 TIME LEFT:  2.00D  GRAD.:     1.732 HEAT:  43.42134
 CYCLE:    10 TIME:   0.000 TIME LEFT:  2.00D  GRAD.:     1.348 HEAT:  43.42068
 CYCLE:    11 TIME:   0.016 TIME LEFT:  2.00D  GRAD.:     0.568 HEAT:  43.42002

     GRADIENT =  0.56785 IS LESS THAN CUTOFF =  1.00000



          VARIABLE        FUNCTION
 :        -0.30000       43.420017
 symmetry html  step=0.05 points=20
 Propyl radical

  C(HETATM    1  C1  HET A   1)  -0.00914821 +1    0.1206309 +1    0.0260321 +1
  C(HETATM    3  C3  HET A   1)   2.13700577 +1    1.5156052 +1   -0.0302625 +1
  H(HETATM    4 1H1  HET A   1)  -0.67898929 +1   -0.4730418 +1    0.6205431 +1
  H(HETATM    5 2H1  HET A   1)  -0.51623766 +1    0.8296190 +1   -0.6022705 +1
  H(HETATM    7  H2  HET A   1)   1.73395174 +1   -0.1543863 +1    1.3352961 +1
  H(HETATM    8 1H3  HET A   1)   1.77914400 +1    1.8922953 +1   -0.9965085 +1
  H(HETATM    9 2H3  HET A   1)   2.07566151 +1    2.3580270 +1    0.6786049 +1
  H(HETATM   10 3H3  HET A   1)   3.20156673 +1    1.2686138 +1   -0.1437754 +1
 XX(HETATM   11 xx   HET A   1)   1.62240508 +1   70.9916902 +1  -21.4028179 +1 "  C1  HET A   1" "  C3  HET A   1" " 3H3  HET A   1" =  1  2  8
  C(HETATM    2  C2  HET A   1)   1.62240508 +0   53.1109798 +1   31.0856077 +1 " xx   HET A   1" "  C1  HET A   1" "  C3  HET A   1" =  9  1  2
  H(HETATM    6 3H1  HET A   1)  -0.30000000 -1  180.0000000 +0    0.0000000 +0 " xx   HET A   1" "  C1  HET A   1" "  C3  HET A   1" =  9  1  2
 
 " xx   HET A   1"  1  "  C2  HET A   1"
 

          Geometry optimization using EF

          DIAGONAL MATRIX USED AS START HESSIAN

 CYCLE:     1 TIME:   0.000 TIME LEFT:  2.00D  GRAD.:    22.322 HEAT:  44.66572
 CYCLE:     2 TIME:   0.000 TIME LEFT:  2.00D  GRAD.:    33.710 HEAT:  44.61273
 CYCLE:     3 TIME:   0.016 TIME LEFT:  2.00D  GRAD.:     9.071 HEAT:  44.40411
 CYCLE:     4 TIME:   0.000 TIME LEFT:  2.00D  GRAD.:     8.679 HEAT:  44.35783
 CYCLE:     5 TIME:   0.000 TIME LEFT:  2.00D  GRAD.:     4.650 HEAT:  44.30720
 CYCLE:     6 TIME:   0.000 TIME LEFT:  2.00D  GRAD.:     7.685 HEAT:  44.30673
 CYCLE:     7 TIME:   0.016 TIME LEFT:  2.00D  GRAD.:     2.570 HEAT:  44.29645
 CYCLE:     8 TIME:   0.000 TIME LEFT:  2.00D  GRAD.:     3.215 HEAT:  44.29771
 CYCLE:     9 TIME:   0.000 TIME LEFT:  2.00D  GRAD.:     0.975 HEAT:  44.29348

     GRADIENT =  0.97467 IS LESS THAN CUTOFF =  1.00000



          VARIABLE        FUNCTION
 :        -0.25000       44.293479
 symmetry html  step=0.05 points=20
 Propyl radical

  C(HETATM    1  C1  HET A   1)  -0.00988204 +1    0.1225254 +1    0.0285561 +1
  C(HETATM    3  C3  HET A   1)   2.13724571 +1    1.5152783 +1   -0.0308499 +1
  H(HETATM    4 1H1  HET A   1)  -0.67831829 +1   -0.4731144 +1    0.6203506 +1
  H(HETATM    5 2H1  HET A   1)  -0.51558459 +1    0.8288513 +1   -0.6034669 +1
  H(HETATM    7  H2  HET A   1)   1.73377957 +1   -0.1540849 +1    1.3348022 +1
  H(HETATM    8 1H3  HET A   1)   1.77958072 +1    1.8930641 +1   -0.9971586 +1
  H(HETATM    9 2H3  HET A   1)   2.07435320 +1    2.3558199 +1    0.6789596 +1
  H(HETATM   10 3H3  HET A   1)   3.20178031 +1    1.2690235 +1   -0.1435338 +1
 XX(HETATM   11 xx   HET A   1)   1.58333789 +1   70.6099839 +1  -21.2728002 +1 "  C1  HET A   1" "  C3  HET A   1" " 3H3  HET A   1" =  1  2  8
  C(HETATM    2  C2  HET A   1)   1.58333789 +0   54.4714068 +1   31.1552535 +1 " xx   HET A   1" "  C1  HET A   1" "  C3  HET A   1" =  9  1  2
  H(HETATM    6 3H1  HET A   1)  -0.25000000 -1  180.0000000 +0    0.0000000 +0 " xx   HET A   1" "  C1  HET A   1" "  C3  HET A   1" =  9  1  2
 
 " xx   HET A   1"  1  "  C2  HET A   1"
 

          Geometry optimization using EF

          DIAGONAL MATRIX USED AS START HESSIAN

 CYCLE:     1 TIME:   0.016 TIME LEFT:  2.00D  GRAD.:    21.987 HEAT:  45.47438
 CYCLE:     2 TIME:   0.000 TIME LEFT:  2.00D  GRAD.:    31.058 HEAT:  45.41370
 CYCLE:     3 TIME:   0.000 TIME LEFT:  2.00D  GRAD.:     8.793 HEAT:  45.22527
 CYCLE:     4 TIME:   0.000 TIME LEFT:  2.00D  GRAD.:    18.786 HEAT:  45.22418
 CYCLE:     5 TIME:   0.000 TIME LEFT:  2.00D  GRAD.:     7.347 HEAT:  45.13905
 CYCLE:     6 TIME:   0.016 TIME LEFT:  2.00D  GRAD.:     9.838 HEAT:  45.13731
 CYCLE:     7 TIME:   0.000 TIME LEFT:  2.00D  GRAD.:     7.412 HEAT:  45.13211
 CYCLE:     8 TIME:   0.000 TIME LEFT:  2.00D  GRAD.:     4.296 HEAT:  45.12403
 CYCLE:     9 TIME:   0.000 TIME LEFT:  2.00D  GRAD.:     3.426 HEAT:  45.12109
 CYCLE:    10 TIME:   0.000 TIME LEFT:  2.00D  GRAD.:     3.218 HEAT:  45.12055
 CYCLE:    11 TIME:   0.000 TIME LEFT:  2.00D  GRAD.:     1.635 HEAT:  45.11714
 CYCLE:    12 TIME:   0.012 TIME LEFT:  2.00D  GRAD.:     0.633 HEAT:  45.11647

     GRADIENT =  0.63269 IS LESS THAN CUTOFF =  1.00000



          VARIABLE        FUNCTION
 :        -0.20000       45.116473
 symmetry html  step=0.05 points=20
 Propyl radical

  C(HETATM    1  C1  HET A   1)  -0.01030928 +1    0.1251934 +1    0.0311687 +1
  C(HETATM    3  C3  HET A   1)   2.13766924 +1    1.5144617 +1   -0.0316050 +1
  H(HETATM    4 1H1  HET A   1)  -0.67842918 +1   -0.4738050 +1    0.6198673 +1
  H(HETATM    5 2H1  HET A   1)  -0.51518821 +1    0.8274678 +1   -0.6042024 +1
  H(HETATM    7  H2  HET A   1)   1.73361655 +1   -0.1531257 +1    1.3347786 +1
  H(HETATM    8 1H3  HET A   1)   1.78026768 +1    1.8935278 +1   -0.9980499 +1
  H(HETATM    9 2H3  HET A   1)   2.07277102 +1    2.3538357 +1    0.6797047 +1
  H(HETATM   10 3H3  HET A   1)   3.20255679 +1    1.2698076 +1   -0.1440027 +1
 XX(HETATM   11 xx   HET A   1)   1.54559913 +1   70.2212963 +1  -21.0671679 +1 "  C1  HET A   1" "  C3  HET A   1" " 3H3  HET A   1" =  1  2  8
  C(HETATM    2  C2  HET A   1)   1.54559913 +0   55.8384728 +1   31.2412652 +1 " xx   HET A   1" "  C1  HET A   1" "  C3  HET A   1" =  9  1  2
  H(HETATM    6 3H1  HET A   1)  -0.20000000 -1  180.0000000 +0    0.0000000 +0 " xx   HET A   1" "  C1  HET A   1" "  C3  HET A   1" =  9  1  2
 
 " xx   HET A   1"  1  "  C2  HET A   1"
 

          Geometry optimization using EF

          DIAGONAL MATRIX USED AS START HESSIAN

 CYCLE:     1 TIME:   0.012 TIME LEFT:  2.00D  GRAD.:    21.510 HEAT:  46.21776
 CYCLE:     2 TIME:   0.000 TIME LEFT:  2.00D  GRAD.:    29.396 HEAT:  46.14974
 CYCLE:     3 TIME:   0.000 TIME LEFT:  2.00D  GRAD.:     8.553 HEAT:  45.97036
 CYCLE:     4 TIME:   0.008 TIME LEFT:  2.00D  GRAD.:    18.045 HEAT:  45.96314
 CYCLE:     5 TIME:   0.000 TIME LEFT:  2.00D  GRAD.:     7.432 HEAT:  45.88493
 CYCLE:     6 TIME:   0.008 TIME LEFT:  2.00D  GRAD.:     7.606 HEAT:  45.87616
 CYCLE:     7 TIME:   0.004 TIME LEFT:  2.00D  GRAD.:     2.298 HEAT:  45.86533
 CYCLE:     8 TIME:   0.008 TIME LEFT:  2.00D  GRAD.:     3.163 HEAT:  45.86674
 CYCLE:     9 TIME:   0.000 TIME LEFT:  2.00D  GRAD.:     0.916 HEAT:  45.86271

     GRADIENT =  0.91626 IS LESS THAN CUTOFF =  1.00000



          VARIABLE        FUNCTION
 :        -0.15000       45.862711
 symmetry html  step=0.05 points=20
 Propyl radical

  C(HETATM    1  C1  HET A   1)  -0.01077201 +1    0.1274454 +1    0.0339612 +1
  C(HETATM    3  C3  HET A   1)   2.13781197 +1    1.5138746 +1   -0.0324099 +1
  H(HETATM    4 1H1  HET A   1)  -0.67787718 +1   -0.4741969 +1    0.6200643 +1
  H(HETATM    5 2H1  HET A   1)  -0.51450902 +1    0.8267756 +1   -0.6059435 +1
  H(HETATM    7  H2  HET A   1)   1.73327959 +1   -0.1524562 +1    1.3343626 +1
  H(HETATM    8 1H3  HET A   1)   1.78084895 +1    1.8938024 +1   -0.9978803 +1
  H(HETATM    9 2H3  HET A   1)   2.07129487 +1    2.3517287 +1    0.6797257 +1
  H(HETATM   10 3H3  HET A   1)   3.20287743 +1    1.2703897 +1   -0.1442209 +1
 XX(HETATM   11 xx   HET A   1)   1.50880816 +1   69.8489343 +1  -20.9396364 +1 "  C1  HET A   1" "  C3  HET A   1" " 3H3  HET A   1" =  1  2  8
  C(HETATM    2  C2  HET A   1)   1.50880816 +0   57.2453259 +1   31.3211415 +1 " xx   HET A   1" "  C1  HET A   1" "  C3  HET A   1" =  9  1  2
  H(HETATM    6 3H1  HET A   1)  -0.15000000 -1  180.0000000 +0    0.0000000 +0 " xx   HET A   1" "  C1  HET A   1" "  C3  HET A   1" =  9  1  2
 
 " xx   HET A   1"  1  "  C2  HET A   1"
 

          Geometry optimization using EF

          DIAGONAL MATRIX USED AS START HESSIAN

 CYCLE:     1 TIME:   0.012 TIME LEFT:  2.00D  GRAD.:    21.208 HEAT:  46.85930
 CYCLE:     2 TIME:   0.000 TIME LEFT:  2.00D  GRAD.:    27.165 HEAT:  46.78077
 CYCLE:     3 TIME:   0.000 TIME LEFT:  2.00D  GRAD.:     8.576 HEAT:  46.61296
 CYCLE:     4 TIME:   0.012 TIME LEFT:  2.00D  GRAD.:    16.747 HEAT:  46.58826
 CYCLE:     5 TIME:   0.000 TIME LEFT:  2.00D  GRAD.:     7.418 HEAT:  46.51921
 CYCLE:     6 TIME:   0.000 TIME LEFT:  2.00D  GRAD.:     4.544 HEAT:  46.51023
 CYCLE:     7 TIME:   0.008 TIME LEFT:  2.00D  GRAD.:     2.389 HEAT:  46.50590
 CYCLE:     8 TIME:   0.000 TIME LEFT:  2.00D  GRAD.:     3.072 HEAT:  46.50715
 CYCLE:     9 TIME:   0.000 TIME LEFT:  2.00D  GRAD.:     1.262 HEAT:  46.50343
 CYCLE:    10 TIME:   0.008 TIME LEFT:  2.00D  GRAD.:     2.165 HEAT:  46.50475
 CYCLE:    11 TIME:   0.004 TIME LEFT:  2.00D  GRAD.:     0.342 HEAT:  46.50271

     GRADIENT =  0.34230 IS LESS THAN CUTOFF =  1.00000



          VARIABLE        FUNCTION
 :        -0.10000       46.502710
 symmetry html  step=0.05 points=20
 Propyl radical

  C(HETATM    1  C1  HET A   1)  -0.01142321 +1    0.1302292 +1    0.0367578 +1
  C(HETATM    3  C3  HET A   1)   2.13835121 +1    1.5129295 +1   -0.0336535 +1
  H(HETATM    4 1H1  HET A   1)  -0.67784726 +1   -0.4749833 +1    0.6201484 +1
  H(HETATM    5 2H1  HET A   1)  -0.51393485 +1    0.8256684 +1   -0.6072487 +1
  H(HETATM    7  H2  HET A   1)   1.73308548 +1   -0.1516338 +1    1.3343225 +1
  H(HETATM    8 1H3  HET A   1)   1.78145108 +1    1.8943624 +1   -0.9986395 +1
  H(HETATM    9 2H3  HET A   1)   2.06946632 +1    2.3494682 +1    0.6806956 +1
  H(HETATM   10 3H3  HET A   1)   3.20380583 +1    1.2713227 +1   -0.1447233 +1
 XX(HETATM   11 xx   HET A   1)   1.47128537 +1   69.4265052 +1  -20.7383097 +1 "  C1  HET A   1" "  C3  HET A   1" " 3H3  HET A   1" =  1  2  8
  C(HETATM    2  C2  HET A   1)   1.47128537 +0   58.7812851 +1   31.4323061 +1 " xx   HET A   1" "  C1  HET A   1" "  C3  HET A   1" =  9  1  2
  H(HETATM    6 3H1  HET A   1)  -0.10000000 -1  180.0000000 +0    0.0000000 +0 " xx   HET A   1" "  C1  HET A   1" "  C3  HET A   1" =  9  1  2
 
 " xx   HET A   1"  1  "  C2  HET A   1"
 

          Geometry optimization using EF

          DIAGONAL MATRIX USED AS START HESSIAN

 CYCLE:     1 TIME:   0.012 TIME LEFT:  2.00D  GRAD.:    20.495 HEAT:  47.33834
 CYCLE:     2 TIME:   0.000 TIME LEFT:  2.00D  GRAD.:    26.017 HEAT:  47.25372
 CYCLE:     3 TIME:   0.000 TIME LEFT:  2.00D  GRAD.:     8.166 HEAT:  47.09175
 CYCLE:     4 TIME:   0.008 TIME LEFT:  2.00D  GRAD.:    17.579 HEAT:  47.07678
 CYCLE:     5 TIME:   0.000 TIME LEFT:  2.00D  GRAD.:     7.813 HEAT:  47.00786
 CYCLE:     6 TIME:   0.000 TIME LEFT:  2.00D  GRAD.:     4.129 HEAT:  46.99164
 CYCLE:     7 TIME:   0.012 TIME LEFT:  2.00D  GRAD.:     5.100 HEAT:  46.99134
 CYCLE:     8 TIME:   0.000 TIME LEFT:  2.00D  GRAD.:     2.560 HEAT:  46.98757
 CYCLE:     9 TIME:   0.000 TIME LEFT:  2.00D  GRAD.:     2.822 HEAT:  46.98729
 CYCLE:    10 TIME:   0.008 TIME LEFT:  2.00D  GRAD.:     0.964 HEAT:  46.99013

     GRADIENT =  0.96444 IS LESS THAN CUTOFF =  1.00000



          VARIABLE        FUNCTION
 :        -0.05000       46.990126
 symmetry html  step=0.05 points=20
 Propyl radical

  C(HETATM    1  C1  HET A   1)  -0.01230103 +1    0.1329671 +1    0.0396589 +1
  C(HETATM    3  C3  HET A   1)   2.13888849 +1    1.5117450 +1   -0.0347438 +1
  H(HETATM    4 1H1  HET A   1)  -0.67748764 +1   -0.4755519 +1    0.6201507 +1
  H(HETATM    5 2H1  HET A   1)  -0.51326347 +1    0.8245692 +1   -0.6086878 +1
  H(HETATM    7  H2  HET A   1)   1.73283457 +1   -0.1508317 +1    1.3342671 +1
  H(HETATM    8 1H3  HET A   1)   1.78203518 +1    1.8948937 +1   -0.9996878 +1
  H(HETATM    9 2H3  HET A   1)   2.06774016 +1    2.3472681 +1    0.6817584 +1
  H(HETATM   10 3H3  HET A   1)   3.20450836 +1    1.2723038 +1   -0.1450564 +1
 XX(HETATM   11 xx   HET A   1)   1.43493824 +1   69.0169944 +1  -20.5619549 +1 "  C1  HET A   1" "  C3  HET A   1" " 3H3  HET A   1" =  1  2  8
  C(HETATM    2  C2  HET A   1)   1.43493824 +0   60.3671566 +1   31.5177770 +1 " xx   HET A   1" "  C1  HET A   1" "  C3  HET A   1" =  9  1  2
  H(HETATM    6 3H1  HET A   1)  -0.05000000 -1  180.0000000 +0    0.0000000 +0 " xx   HET A   1" "  C1  HET A   1" "  C3  HET A   1" =  9  1  2
 
 " xx   HET A   1"  1  "  C2  HET A   1"
 

          Geometry optimization using EF

          DIAGONAL MATRIX USED AS START HESSIAN

 CYCLE:     1 TIME:   0.000 TIME LEFT:  2.00D  GRAD.:    20.103 HEAT:  47.63952
 CYCLE:     2 TIME:   0.012 TIME LEFT:  2.00D  GRAD.:    24.599 HEAT:  47.55296
 CYCLE:     3 TIME:   0.000 TIME LEFT:  2.00D  GRAD.:     7.984 HEAT:  47.39700
 CYCLE:     4 TIME:   0.000 TIME LEFT:  2.00D  GRAD.:    16.477 HEAT:  47.36995
 CYCLE:     5 TIME:   0.008 TIME LEFT:  2.00D  GRAD.:     8.592 HEAT:  47.31267
 CYCLE:     6 TIME:   0.000 TIME LEFT:  2.00D  GRAD.:     6.865 HEAT:  47.30440
 CYCLE:     7 TIME:   0.000 TIME LEFT:  2.00D  GRAD.:     6.941 HEAT:  47.29926
 CYCLE:     8 TIME:   0.008 TIME LEFT:  2.00D  GRAD.:     5.820 HEAT:  47.29796
 CYCLE:     9 TIME:   0.004 TIME LEFT:  2.00D  GRAD.:     3.039 HEAT:  47.29180
 CYCLE:    10 TIME:   0.000 TIME LEFT:  2.00D  GRAD.:     2.091 HEAT:  47.28978
 CYCLE:    11 TIME:   0.008 TIME LEFT:  2.00D  GRAD.:     1.510 HEAT:  47.28829
 CYCLE:    12 TIME:   0.000 TIME LEFT:  2.00D  GRAD.:     1.216 HEAT:  47.28796
 CYCLE:    13 TIME:   0.000 TIME LEFT:  2.00D  GRAD.:     0.410 HEAT:  47.28758

     GRADIENT =  0.41009 IS LESS THAN CUTOFF =  1.00000



          VARIABLE        FUNCTION
 :        -0.00000       47.287579
 symmetry html  step=0.05 points=20
 Propyl radical

  C(HETATM    1  C1  HET A   1)  -0.01327782 +1    0.1356736 +1    0.0429255 +1
  C(HETATM    3  C3  HET A   1)   2.13954199 +1    1.5111933 +1   -0.0354155 +1
  H(HETATM    4 1H1  HET A   1)  -0.67768814 +1   -0.4761844 +1    0.6200291 +1
  H(HETATM    5 2H1  HET A   1)  -0.51255947 +1    0.8230749 +1   -0.6108053 +1
  H(HETATM    7  H2  HET A   1)   1.73264280 +1   -0.1498204 +1    1.3343120 +1
  H(HETATM    8 1H3  HET A   1)   1.78277007 +1    1.8954310 +1   -0.9996691 +1
  H(HETATM    9 2H3  HET A   1)   2.06589017 +1    2.3443773 +1    0.6822272 +1
  H(HETATM   10 3H3  HET A   1)   3.20563503 +1    1.2736182 +1   -0.1459444 +1
 XX(HETATM   11 xx   HET A   1)   1.39906372 +1   68.5756133 +1  -20.2892072 +1 "  C1  HET A   1" "  C3  HET A   1" " 3H3  HET A   1" =  1  2  8
  C(HETATM    2  C2  HET A   1)   1.39906372 +0   62.0453381 +1   31.6157929 +1 " xx   HET A   1" "  C1  HET A   1" "  C3  HET A   1" =  9  1  2
  H(HETATM    6 3H1  HET A   1)  -0.00000000 -1  180.0000000 +0    0.0000000 +0 " xx   HET A   1" "  C1  HET A   1" "  C3  HET A   1" =  9  1  2
 
 " xx   HET A   1"  1  "  C2  HET A   1"
 

          Geometry optimization using EF

          DIAGONAL MATRIX USED AS START HESSIAN

 CYCLE:     1 TIME:   0.004 TIME LEFT:  2.00D  GRAD.:    19.983 HEAT:  47.71672
 CYCLE:     2 TIME:   0.000 TIME LEFT:  2.00D  GRAD.:    22.912 HEAT:  47.60988
 CYCLE:     3 TIME:   0.008 TIME LEFT:  2.00D  GRAD.:     7.306 HEAT:  47.43078
 CYCLE:     4 TIME:   0.004 TIME LEFT:  2.00D  GRAD.:    10.812 HEAT:  47.39631
 CYCLE:     5 TIME:   0.000 TIME LEFT:  2.00D  GRAD.:    10.001 HEAT:  47.37402
 CYCLE:     6 TIME:   0.008 TIME LEFT:  2.00D  GRAD.:     5.712 HEAT:  47.35911
 CYCLE:     7 TIME:   0.000 TIME LEFT:  2.00D  GRAD.:     2.344 HEAT:  47.34659
 CYCLE:     8 TIME:   0.000 TIME LEFT:  2.00D  GRAD.:     6.718 HEAT:  47.35457
 CYCLE:     9 TIME:   0.008 TIME LEFT:  2.00D  GRAD.:     5.306 HEAT:  47.35323
 CYCLE:    10 TIME:   0.004 TIME LEFT:  2.00D  GRAD.:     1.547 HEAT:  47.35684
 CYCLE:    11 TIME:   0.000 TIME LEFT:  2.00D  GRAD.:     1.635 HEAT:  47.35723
 CYCLE:    12 TIME:   0.008 TIME LEFT:  2.00D  GRAD.:     0.816 HEAT:  47.35609

     GRADIENT =  0.81645 IS LESS THAN CUTOFF =  1.00000



          VARIABLE        FUNCTION
 :         0.05000       47.356082
 symmetry html  step=0.05 points=20
 Propyl radical

  C(HETATM    1  C1  HET A   1)  -0.01448554 +1    0.1387597 +1    0.0462037 +1
  C(HETATM    3  C3  HET A   1)   2.14017594 +1    1.5103818 +1   -0.0365796 +1
  H(HETATM    4 1H1  HET A   1)  -0.67781284 +1   -0.4770023 +1    0.6199915 +1
  H(HETATM    5 2H1  HET A   1)  -0.51185278 +1    0.8218320 +1   -0.6124537 +1
  H(HETATM    7  H2  HET A   1)   1.73252658 +1   -0.1491529 +1    1.3342244 +1
  H(HETATM    8 1H3  HET A   1)   1.78352638 +1    1.8958546 +1   -1.0002847 +1
  H(HETATM    9 2H3  HET A   1)   2.06407989 +1    2.3417713 +1    0.6830365 +1
  H(HETATM   10 3H3  HET A   1)   3.20679703 +1    1.2749192 +1   -0.1464785 +1
 XX(HETATM   11 xx   HET A   1)   1.36332073 +1   68.1077323 +1  -20.0229131 +1 "  C1  HET A   1" "  C3  HET A   1" " 3H3  HET A   1" =  1  2  8
  C(HETATM    2  C2  HET A   1)   1.36332073 +0   63.8382720 +1   31.7270085 +1 " xx   HET A   1" "  C1  HET A   1" "  C3  HET A   1" =  9  1  2
  H(HETATM    6 3H1  HET A   1)   0.05000000 -1  180.0000000 +0    0.0000000 +0 " xx   HET A   1" "  C1  HET A   1" "  C3  HET A   1" =  9  1  2
 
 " xx   HET A   1"  1  "  C2  HET A   1"
 

          Geometry optimization using EF

          DIAGONAL MATRIX USED AS START HESSIAN

 CYCLE:     1 TIME:   0.000 TIME LEFT:  2.00D  GRAD.:    19.957 HEAT:  47.52941
 CYCLE:     2 TIME:   0.008 TIME LEFT:  2.00D  GRAD.:    23.200 HEAT:  47.43096
 CYCLE:     3 TIME:   0.000 TIME LEFT:  2.00D  GRAD.:     7.209 HEAT:  47.24395
 CYCLE:     4 TIME:   0.000 TIME LEFT:  2.00D  GRAD.:    11.447 HEAT:  47.19880
 CYCLE:     5 TIME:   0.012 TIME LEFT:  2.00D  GRAD.:    11.915 HEAT:  47.18700
 CYCLE:     6 TIME:   0.000 TIME LEFT:  2.00D  GRAD.:     9.475 HEAT:  47.17542
 CYCLE:     7 TIME:   0.008 TIME LEFT:  2.00D  GRAD.:    10.307 HEAT:  47.16846
 CYCLE:     8 TIME:   0.000 TIME LEFT:  2.00D  GRAD.:     5.643 HEAT:  47.15918
 CYCLE:     9 TIME:   0.000 TIME LEFT:  2.00D  GRAD.:     5.439 HEAT:  47.15719
 CYCLE:    10 TIME:   0.008 TIME LEFT:  2.00D  GRAD.:     2.939 HEAT:  47.15076
 CYCLE:    11 TIME:   0.004 TIME LEFT:  2.00D  GRAD.:     2.368 HEAT:  47.14912
 CYCLE:    12 TIME:   0.000 TIME LEFT:  2.00D  GRAD.:     0.866 HEAT:  47.14751

     GRADIENT =  0.86593 IS LESS THAN CUTOFF =  1.00000



          VARIABLE        FUNCTION
 :         0.10000       47.147510
 symmetry html  step=0.05 points=20
 Propyl radical

  C(HETATM    1  C1  HET A   1)  -0.01628604 +1    0.1418539 +1    0.0496880 +1
  C(HETATM    3  C3  HET A   1)   2.14092468 +1    1.5100872 +1   -0.0375871 +1
  H(HETATM    4 1H1  HET A   1)  -0.67752923 +1   -0.4774528 +1    0.6196960 +1
  H(HETATM    5 2H1  HET A   1)  -0.51088362 +1    0.8205086 +1   -0.6143301 +1
  H(HETATM    7  H2  HET A   1)   1.73250681 +1   -0.1486063 +1    1.3341662 +1
  H(HETATM    8 1H3  HET A   1)   1.78411839 +1    1.8962653 +1   -1.0000783 +1
  H(HETATM    9 2H3  HET A   1)   2.06230567 +1    2.3384699 +1    0.6832869 +1
  H(HETATM   10 3H3  HET A   1)   3.20779800 +1    1.2762377 +1   -0.1471821 +1
 XX(HETATM   11 xx   HET A   1)   1.32800257 +1   67.6124647 +1  -19.7705026 +1 "  C1  HET A   1" "  C3  HET A   1" " 3H3  HET A   1" =  1  2  8
  C(HETATM    2  C2  HET A   1)   1.32800257 +0   65.7598376 +1   31.8407511 +1 " xx   HET A   1" "  C1  HET A   1" "  C3  HET A   1" =  9  1  2
  H(HETATM    6 3H1  HET A   1)   0.10000000 -1  180.0000000 +0    0.0000000 +0 " xx   HET A   1" "  C1  HET A   1" "  C3  HET A   1" =  9  1  2
 
 " xx   HET A   1"  1  "  C2  HET A   1"
 

          Geometry optimization using EF

          DIAGONAL MATRIX USED AS START HESSIAN

 CYCLE:     1 TIME:   0.000 TIME LEFT:  2.00D  GRAD.:    19.825 HEAT:  47.03898
 CYCLE:     2 TIME:   0.008 TIME LEFT:  2.00D  GRAD.:    21.133 HEAT:  46.92917
 CYCLE:     3 TIME:   0.004 TIME LEFT:  2.00D  GRAD.:     7.730 HEAT:  46.75232
 CYCLE:     4 TIME:   0.000 TIME LEFT:  2.00D  GRAD.:    10.581 HEAT:  46.70966
 CYCLE:     5 TIME:   0.000 TIME LEFT:  2.00D  GRAD.:    12.594 HEAT:  46.69929
 CYCLE:     6 TIME:   0.012 TIME LEFT:  2.00D  GRAD.:     6.352 HEAT:  46.67537
 CYCLE:     7 TIME:   0.000 TIME LEFT:  2.00D  GRAD.:     4.373 HEAT:  46.66239
 CYCLE:     8 TIME:   0.008 TIME LEFT:  2.00D  GRAD.:     6.755 HEAT:  46.66773
 CYCLE:     9 TIME:   0.000 TIME LEFT:  2.00D  GRAD.:     4.991 HEAT:  46.66715
 CYCLE:    10 TIME:   0.000 TIME LEFT:  2.00D  GRAD.:     3.843 HEAT:  46.66308
 CYCLE:    11 TIME:   0.012 TIME LEFT:  2.00D  GRAD.:     1.351 HEAT:  46.65842
 CYCLE:    12 TIME:   0.000 TIME LEFT:  2.00D  GRAD.:     0.886 HEAT:  46.65799

     GRADIENT =  0.88553 IS LESS THAN CUTOFF =  1.00000



          VARIABLE        FUNCTION
 :         0.15000       46.657985
 symmetry html  step=0.05 points=20
 Propyl radical

  C(HETATM    1  C1  HET A   1)  -0.01806701 +1    0.1450960 +1    0.0531407 +1
  C(HETATM    3  C3  HET A   1)   2.14175611 +1    1.5090421 +1   -0.0385406 +1
  H(HETATM    4 1H1  HET A   1)  -0.67736473 +1   -0.4781913 +1    0.6197722 +1
  H(HETATM    5 2H1  HET A   1)  -0.51018797 +1    0.8192746 +1   -0.6160737 +1
  H(HETATM    7  H2  HET A   1)   1.73258329 +1   -0.1480857 +1    1.3338326 +1
  H(HETATM    8 1H3  HET A   1)   1.78487259 +1    1.8966942 +1   -1.0012940 +1
  H(HETATM    9 2H3  HET A   1)   2.06034008 +1    2.3356545 +1    0.6844663 +1
  H(HETATM   10 3H3  HET A   1)   3.20902231 +1    1.2778790 +1   -0.1476438 +1
 XX(HETATM   11 xx   HET A   1)   1.29308727 +1   67.0697249 +1  -19.4605973 +1 "  C1  HET A   1" "  C3  HET A   1" " 3H3  HET A   1" =  1  2  8
  C(HETATM    2  C2  HET A   1)   1.29308727 +0   67.7968046 +1   31.9562353 +1 " xx   HET A   1" "  C1  HET A   1" "  C3  HET A   1" =  9  1  2
  H(HETATM    6 3H1  HET A   1)   0.15000000 -1  180.0000000 +0    0.0000000 +0 " xx   HET A   1" "  C1  HET A   1" "  C3  HET A   1" =  9  1  2
 
 " xx   HET A   1"  1  "  C2  HET A   1"
 

          Geometry optimization using EF

          DIAGONAL MATRIX USED AS START HESSIAN

 CYCLE:     1 TIME:   0.000 TIME LEFT:  2.00D  GRAD.:    19.820 HEAT:  46.25603
 CYCLE:     2 TIME:   0.008 TIME LEFT:  2.00D  GRAD.:    20.710 HEAT:  46.13930
 CYCLE:     3 TIME:   0.004 TIME LEFT:  2.00D  GRAD.:     8.139 HEAT:  45.96182
 CYCLE:     4 TIME:   0.000 TIME LEFT:  2.00D  GRAD.:    12.991 HEAT:  45.92561
 CYCLE:     5 TIME:   0.008 TIME LEFT:  2.00D  GRAD.:     7.674 HEAT:  45.88412
 CYCLE:     6 TIME:   0.000 TIME LEFT:  2.00D  GRAD.:     6.792 HEAT:  45.87569
 CYCLE:     7 TIME:   0.012 TIME LEFT:  2.00D  GRAD.:     2.767 HEAT:  45.86673
 CYCLE:     8 TIME:   0.000 TIME LEFT:  2.00D  GRAD.:     3.039 HEAT:  45.86647
 CYCLE:     9 TIME:   0.000 TIME LEFT:  2.00D  GRAD.:     1.562 HEAT:  45.86300
 CYCLE:    10 TIME:   0.008 TIME LEFT:  2.00D  GRAD.:     1.496 HEAT:  45.86328
 CYCLE:    11 TIME:   0.004 TIME LEFT:  2.00D  GRAD.:     0.476 HEAT:  45.86213

     GRADIENT =  0.47550 IS LESS THAN CUTOFF =  1.00000



          VARIABLE        FUNCTION
 :         0.20000       45.862125
 symmetry html  step=0.05 points=20
 Propyl radical

  C(HETATM    1  C1  HET A   1)  -0.01984306 +1    0.1484430 +1    0.0565795 +1
  C(HETATM    3  C3  HET A   1)   2.14255766 +1    1.5082121 +1   -0.0395957 +1
  H(HETATM    4 1H1  HET A   1)  -0.67710688 +1   -0.4795759 +1    0.6202850 +1
  H(HETATM    5 2H1  HET A   1)  -0.50970693 +1    0.8188309 +1   -0.6179802 +1
  H(HETATM    7  H2  HET A   1)   1.73277017 +1   -0.1476121 +1    1.3334974 +1
  H(HETATM    8 1H3  HET A   1)   1.78579476 +1    1.8967139 +1   -1.0018197 +1
  H(HETATM    9 2H3  HET A   1)   2.05817444 +1    2.3328569 +1    0.6848755 +1
  H(HETATM   10 3H3  HET A   1)   3.21031454 +1    1.2794946 +1   -0.1481822 +1
 XX(HETATM   11 xx   HET A   1)   1.25880636 +1   66.4954767 +1  -19.1887147 +1 "  C1  HET A   1" "  C3  HET A   1" " 3H3  HET A   1" =  1  2  8
  C(HETATM    2  C2  HET A   1)   1.25880636 +0   69.9724634 +1   32.1063021 +1 " xx   HET A   1" "  C1  HET A   1" "  C3  HET A   1" =  9  1  2
  H(HETATM    6 3H1  HET A   1)   0.20000000 -1  180.0000000 +0    0.0000000 +0 " xx   HET A   1" "  C1  HET A   1" "  C3  HET A   1" =  9  1  2
 
 " xx   HET A   1"  1  "  C2  HET A   1"
 

          Geometry optimization using EF

          DIAGONAL MATRIX USED AS START HESSIAN

 CYCLE:     1 TIME:   0.000 TIME LEFT:  2.00D  GRAD.:    20.012 HEAT:  45.16560
 CYCLE:     2 TIME:   0.008 TIME LEFT:  2.00D  GRAD.:    19.945 HEAT:  45.04662
 CYCLE:     3 TIME:   0.004 TIME LEFT:  2.00D  GRAD.:     8.266 HEAT:  44.87216
 CYCLE:     4 TIME:   0.000 TIME LEFT:  2.00D  GRAD.:    12.503 HEAT:  44.83195
 CYCLE:     5 TIME:   0.008 TIME LEFT:  2.00D  GRAD.:     6.661 HEAT:  44.78460
 CYCLE:     6 TIME:   0.004 TIME LEFT:  2.00D  GRAD.:     4.332 HEAT:  44.77430
 CYCLE:     7 TIME:   0.000 TIME LEFT:  2.00D  GRAD.:     6.054 HEAT:  44.77315
 CYCLE:     8 TIME:   0.008 TIME LEFT:  2.00D  GRAD.:     2.472 HEAT:  44.76524
 CYCLE:     9 TIME:   0.000 TIME LEFT:  2.00D  GRAD.:     5.133 HEAT:  44.76978
 CYCLE:    10 TIME:   0.000 TIME LEFT:  2.00D  GRAD.:     0.678 HEAT:  44.76247

     GRADIENT =  0.67830 IS LESS THAN CUTOFF =  1.00000



          VARIABLE        FUNCTION
 :         0.25000       44.762473
 symmetry html  step=0.05 points=20
 Propyl radical

  C(HETATM    1  C1  HET A   1)  -0.02197006 +1    0.1518387 +1    0.0601220 +1
  C(HETATM    3  C3  HET A   1)   2.14325169 +1    1.5071886 +1   -0.0409712 +1
  H(HETATM    4 1H1  HET A   1)  -0.67658515 +1   -0.4806552 +1    0.6205619 +1
  H(HETATM    5 2H1  HET A   1)  -0.50899941 +1    0.8183348 +1   -0.6194148 +1
  H(HETATM    7  H2  HET A   1)   1.73319818 +1   -0.1473304 +1    1.3329066 +1
  H(HETATM    8 1H3  HET A   1)   1.78664372 +1    1.8967200 +1   -1.0028692 +1
  H(HETATM    9 2H3  HET A   1)   2.05583317 +1    2.3300417 +1    0.6857637 +1
  H(HETATM   10 3H3  HET A   1)   3.21158256 +1    1.2812252 +1   -0.1484393 +1
 XX(HETATM   11 xx   HET A   1)   1.22513478 +1   65.8810033 +1  -18.9069667 +1 "  C1  HET A   1" "  C3  HET A   1" " 3H3  HET A   1" =  1  2  8
  C(HETATM    2  C2  HET A   1)   1.22513478 +0   72.2663280 +1   32.2478666 +1 " xx   HET A   1" "  C1  HET A   1" "  C3  HET A   1" =  9  1  2
  H(HETATM    6 3H1  HET A   1)   0.25000000 -1  180.0000000 +0    0.0000000 +0 " xx   HET A   1" "  C1  HET A   1" "  C3  HET A   1" =  9  1  2
 
 " xx   HET A   1"  1  "  C2  HET A   1"
 

          Geometry optimization using EF

          DIAGONAL MATRIX USED AS START HESSIAN

 CYCLE:     1 TIME:   0.004 TIME LEFT:  2.00D  GRAD.:    19.711 HEAT:  43.78004
 CYCLE:     2 TIME:   0.000 TIME LEFT:  2.00D  GRAD.:    19.631 HEAT:  43.65836
 CYCLE:     3 TIME:   0.008 TIME LEFT:  2.00D  GRAD.:     8.913 HEAT:  43.48705
 CYCLE:     4 TIME:   0.000 TIME LEFT:  2.00D  GRAD.:    15.010 HEAT:  43.45640
 CYCLE:     5 TIME:   0.000 TIME LEFT:  2.00D  GRAD.:     6.925 HEAT:  43.39910
 CYCLE:     6 TIME:   0.012 TIME LEFT:  2.00D  GRAD.:     5.259 HEAT:  43.38990
 CYCLE:     7 TIME:   0.000 TIME LEFT:  2.00D  GRAD.:     2.995 HEAT:  43.38180
 CYCLE:     8 TIME:   0.000 TIME LEFT:  2.00D  GRAD.:     2.784 HEAT:  43.37853
 CYCLE:     9 TIME:   0.008 TIME LEFT:  2.00D  GRAD.:     2.615 HEAT:  43.37723
 CYCLE:    10 TIME:   0.000 TIME LEFT:  2.00D  GRAD.:     0.807 HEAT:  43.37509

     GRADIENT =  0.80689 IS LESS THAN CUTOFF =  1.00000



          VARIABLE        FUNCTION
 :         0.30000       43.375091
 symmetry html  step=0.05 points=20
 Propyl radical

  C(HETATM    1  C1  HET A   1)  -0.02419229 +1    0.1550616 +1    0.0637603 +1
  C(HETATM    3  C3  HET A   1)   2.14402251 +1    1.5063221 +1   -0.0421677 +1
  H(HETATM    4 1H1  HET A   1)  -0.67631946 +1   -0.4818906 +1    0.6210618 +1
  H(HETATM    5 2H1  HET A   1)  -0.50847540 +1    0.8181981 +1   -0.6209014 +1
  H(HETATM    7  H2  HET A   1)   1.73384083 +1   -0.1470316 +1    1.3322068 +1
  H(HETATM    8 1H3  HET A   1)   1.78783303 +1    1.8964499 +1   -1.0036278 +1
  H(HETATM    9 2H3  HET A   1)   2.05310640 +1    2.3268899 +1    0.6863149 +1
  H(HETATM   10 3H3  HET A   1)   3.21313909 +1    1.2833641 +1   -0.1489870 +1
 XX(HETATM   11 xx   HET A   1)   1.19271922 +1   65.2282176 +1  -18.5844801 +1 "  C1  HET A   1" "  C3  HET A   1" " 3H3  HET A   1" =  1  2  8
  C(HETATM    2  C2  HET A   1)   1.19271922 +0   74.6676302 +1   32.4039571 +1 " xx   HET A   1" "  C1  HET A   1" "  C3  HET A   1" =  9  1  2
  H(HETATM    6 3H1  HET A   1)   0.30000000 -1  180.0000000 +0    0.0000000 +0 " xx   HET A   1" "  C1  HET A   1" "  C3  HET A   1" =  9  1  2
 
 " xx   HET A   1"  1  "  C2  HET A   1"
 

          Geometry optimization using EF

          DIAGONAL MATRIX USED AS START HESSIAN

 CYCLE:     1 TIME:   0.012 TIME LEFT:  2.00D  GRAD.:    19.603 HEAT:  42.13368
 CYCLE:     2 TIME:   0.000 TIME LEFT:  2.00D  GRAD.:    19.405 HEAT:  42.01112
 CYCLE:     3 TIME:   0.000 TIME LEFT:  2.00D  GRAD.:     9.445 HEAT:  41.84314
 CYCLE:     4 TIME:   0.008 TIME LEFT:  2.00D  GRAD.:    16.239 HEAT:  41.81749
 CYCLE:     5 TIME:   0.000 TIME LEFT:  2.00D  GRAD.:     7.262 HEAT:  41.75522
 CYCLE:     6 TIME:   0.012 TIME LEFT:  2.00D  GRAD.:     5.159 HEAT:  41.74515
 CYCLE:     7 TIME:   0.000 TIME LEFT:  2.00D  GRAD.:     2.415 HEAT:  41.73599
 CYCLE:     8 TIME:   0.000 TIME LEFT:  2.00D  GRAD.:     2.752 HEAT:  41.73270
 CYCLE:     9 TIME:   0.000 TIME LEFT:  2.00D  GRAD.:     2.187 HEAT:  41.73130
 CYCLE:    10 TIME:   0.008 TIME LEFT:  2.00D  GRAD.:     0.960 HEAT:  41.72948

     GRADIENT =  0.95977 IS LESS THAN CUTOFF =  1.00000



          VARIABLE        FUNCTION
 :         0.35000       41.729484
 symmetry html  step=0.05 points=20
 Propyl radical

  C(HETATM    1  C1  HET A   1)  -0.02642082 +1    0.1582625 +1    0.0671167 +1
  C(HETATM    3  C3  HET A   1)   2.14483340 +1    1.5052957 +1   -0.0434827 +1
  H(HETATM    4 1H1  HET A   1)  -0.67594617 +1   -0.4829650 +1    0.6217705 +1
  H(HETATM    5 2H1  HET A   1)  -0.50784730 +1    0.8181929 +1   -0.6219695 +1
  H(HETATM    7  H2  HET A   1)   1.73448313 +1   -0.1467111 +1    1.3313090 +1
  H(HETATM    8 1H3  HET A   1)   1.78904847 +1    1.8961188 +1   -1.0047147 +1
  H(HETATM    9 2H3  HET A   1)   2.05013203 +1    2.3235418 +1    0.6868974 +1
  H(HETATM   10 3H3  HET A   1)   3.21467197 +1    1.2856279 +1   -0.1492669 +1
 XX(HETATM   11 xx   HET A   1)   1.16176072 +1   64.5720839 +1  -18.2398490 +1 "  C1  HET A   1" "  C3  HET A   1" " 3H3  HET A   1" =  1  2  8
  C(HETATM    2  C2  HET A   1)   1.16176072 +0   77.1506320 +1   32.5643585 +1 " xx   HET A   1" "  C1  HET A   1" "  C3  HET A   1" =  9  1  2
  H(HETATM    6 3H1  HET A   1)   0.35000000 -1  180.0000000 +0    0.0000000 +0 " xx   HET A   1" "  C1  HET A   1" "  C3  HET A   1" =  9  1  2
 
 " xx   HET A   1"  1  "  C2  HET A   1"
 

          Geometry optimization using EF

          DIAGONAL MATRIX USED AS START HESSIAN

 CYCLE:     1 TIME:   0.000 TIME LEFT:  2.00D  GRAD.:    19.453 HEAT:  40.26278
 CYCLE:     2 TIME:   0.008 TIME LEFT:  2.00D  GRAD.:    19.275 HEAT:  40.13937
 CYCLE:     3 TIME:   0.000 TIME LEFT:  2.00D  GRAD.:    10.248 HEAT:  39.97657
 CYCLE:     4 TIME:   0.000 TIME LEFT:  2.00D  GRAD.:    17.433 HEAT:  39.95570
 CYCLE:     5 TIME:   0.008 TIME LEFT:  2.00D  GRAD.:     8.001 HEAT:  39.89143
 CYCLE:     6 TIME:   0.004 TIME LEFT:  2.00D  GRAD.:     4.871 HEAT:  39.87882
 CYCLE:     7 TIME:   0.000 TIME LEFT:  2.00D  GRAD.:     2.307 HEAT:  39.87000
 CYCLE:     8 TIME:   0.012 TIME LEFT:  2.00D  GRAD.:     2.780 HEAT:  39.86657
 CYCLE:     9 TIME:   0.000 TIME LEFT:  2.00D  GRAD.:     2.018 HEAT:  39.86515
 CYCLE:    10 TIME:   0.000 TIME LEFT:  2.00D  GRAD.:     1.025 HEAT:  39.86347
 CYCLE:    11 TIME:   0.000 TIME LEFT:  2.00D  GRAD.:     1.023 HEAT:  39.86327
 CYCLE:    12 TIME:   0.008 TIME LEFT:  2.00D  GRAD.:     0.552 HEAT:  39.86293

     GRADIENT =  0.55169 IS LESS THAN CUTOFF =  1.00000



          VARIABLE        FUNCTION
 :         0.40000       39.862929
 symmetry html  step=0.05 points=20
 Propyl radical

  C(HETATM    1  C1  HET A   1)  -0.02860373 +1    0.1613563 +1    0.0702405 +1
  C(HETATM    3  C3  HET A   1)   2.14587616 +1    1.5044980 +1   -0.0447466 +1
  H(HETATM    4 1H1  HET A   1)  -0.67563524 +1   -0.4838239 +1    0.6223844 +1
  H(HETATM    5 2H1  HET A   1)  -0.50735740 +1    0.8183149 +1   -0.6219263 +1
  H(HETATM    7  H2  HET A   1)   1.73515818 +1   -0.1464244 +1    1.3304525 +1
  H(HETATM    8 1H3  HET A   1)   1.79051993 +1    1.8955903 +1   -1.0060331 +1
  H(HETATM    9 2H3  HET A   1)   2.04664087 +1    2.3195311 +1    0.6867698 +1
  H(HETATM   10 3H3  HET A   1)   3.21635596 +1    1.2883211 +1   -0.1494816 +1
 XX(HETATM   11 xx   HET A   1)   1.13298018 +1   63.9510164 +1  -17.8344946 +1 "  C1  HET A   1" "  C3  HET A   1" " 3H3  HET A   1" =  1  2  8
  C(HETATM    2  C2  HET A   1)   1.13298018 +0   79.6844609 +1   32.7143867 +1 " xx   HET A   1" "  C1  HET A   1" "  C3  HET A   1" =  9  1  2
  H(HETATM    6 3H1  HET A   1)   0.40000000 -1  180.0000000 +0    0.0000000 +0 " xx   HET A   1" "  C1  HET A   1" "  C3  HET A   1" =  9  1  2
 
 " xx   HET A   1"  1  "  C2  HET A   1"
 

          Geometry optimization using EF

          DIAGONAL MATRIX USED AS START HESSIAN

 CYCLE:     1 TIME:   0.000 TIME LEFT:  2.00D  GRAD.:    19.928 HEAT:  38.21924
 CYCLE:     2 TIME:   0.012 TIME LEFT:  2.00D  GRAD.:    39.537 HEAT:  38.18923
 CYCLE:     3 TIME:   0.000 TIME LEFT:  2.00D  GRAD.:    18.960 HEAT:  37.94245
 CYCLE:     4 TIME:   0.008 TIME LEFT:  2.00D  GRAD.:    11.531 HEAT:  37.88492
 CYCLE:     5 TIME:   0.000 TIME LEFT:  2.00D  GRAD.:     5.290 HEAT:  37.84988
 CYCLE:     6 TIME:   0.000 TIME LEFT:  2.00D  GRAD.:     5.785 HEAT:  37.83961
 CYCLE:     7 TIME:   0.008 TIME LEFT:  2.00D  GRAD.:     3.537 HEAT:  37.82636
 CYCLE:     8 TIME:   0.004 TIME LEFT:  2.00D  GRAD.:     5.448 HEAT:  37.83274
 CYCLE:     9 TIME:   0.000 TIME LEFT:  2.00D  GRAD.:     1.249 HEAT:  37.82053
 CYCLE:    10 TIME:   0.000 TIME LEFT:  2.00D  GRAD.:     1.026 HEAT:  37.82031
 CYCLE:    11 TIME:   0.000 TIME LEFT:  2.00D  GRAD.:     0.611 HEAT:  37.81974

     GRADIENT =  0.61083 IS LESS THAN CUTOFF =  1.00000



          VARIABLE        FUNCTION
 :         0.45000       37.819744
 symmetry html  step=0.05 points=20
 Propyl radical

  C(HETATM    1  C1  HET A   1)  -0.03032363 +1    0.1644241 +1    0.0735557 +1
  C(HETATM    3  C3  HET A   1)   2.14631302 +1    1.5032218 +1   -0.0464659 +1
  H(HETATM    4 1H1  HET A   1)  -0.67489335 +1   -0.4844667 +1    0.6236191 +1
  H(HETATM    5 2H1  HET A   1)  -0.50675006 +1    0.8192831 +1   -0.6220990 +1
  H(HETATM    7  H2  HET A   1)   1.73603552 +1   -0.1466129 +1    1.3285873 +1
  H(HETATM    8 1H3  HET A   1)   1.79141597 +1    1.8953834 +1   -1.0071180 +1
  H(HETATM    9 2H3  HET A   1)   2.04340603 +1    2.3155656 +1    0.6874570 +1
  H(HETATM   10 3H3  HET A   1)   3.21775125 +1    1.2905651 +1   -0.1498765 +1
 XX(HETATM   11 xx   HET A   1)   1.10571972 +1   63.3104083 +1  -17.5249348 +1 "  C1  HET A   1" "  C3  HET A   1" " 3H3  HET A   1" =  1  2  8
  C(HETATM    2  C2  HET A   1)   1.10571972 +0   82.2077233 +1   32.8807022 +1 " xx   HET A   1" "  C1  HET A   1" "  C3  HET A   1" =  9  1  2
  H(HETATM    6 3H1  HET A   1)   0.45000000 -1  180.0000000 +0    0.0000000 +0 " xx   HET A   1" "  C1  HET A   1" "  C3  HET A   1" =  9  1  2
 
 " xx   HET A   1"  1  "  C2  HET A   1"
 

                POINTS ON REACTION PATH 
                AND CORRESPONDING HEATS


      -0.50000000      -0.45000000      -0.40000000      -0.35000000      -0.30000000      -0.25000000      -0.20000000      -0.15000000
      39.80654388      40.70128557      41.60874430      42.51955151      43.42001696      44.29347935      45.11647290      45.86271129
      -0.10000000      -0.05000000      -0.00000000       0.05000000       0.10000000       0.15000000       0.20000000       0.25000000
      46.50271003      46.99012619      47.28757852      47.35608182      47.14750977      46.65798483      45.86212493      44.76247302
       0.30000000       0.35000000       0.40000000       0.45000000
      43.37509078      41.72948438      39.86292879      37.81974436

 **********************
 *                    *
 * JOB ENDED NORMALLY *
 *                    *
 **********************



 TOTAL JOB TIME:             0.93 SECONDS

 == MOPAC DONE ==
