 *******************************************************************************
 ** Site#: 37037        For non-commercial use only           Version 21.148W **
 *******************************************************************************
 ** Cite this program as: MOPAC2016, Version: 21.148W, James J. P. Stewart,   **
 ** Stewart Computational Chemistry, web: HTTP://OpenMOPAC.net. Days left: 364**
 *******************************************************************************
 **                                                                           **
 **                                MOPAC2016                                  **
 **                                                                           **
 *******************************************************************************

                              PM7 CALCULATION RESULTS

 *******************************************************************************
 *  CALCULATION DONE:                                Sat May 29 10:55:57 2021  *
 *  RESIDUES   - DETERMINE THE SEQUENCE OF RESIDUES
 *  IRC=N      - INTRINSIC REACTION COORDINATE  5 DEFINED
 *  DRC        - DYNAMIC REACTION COORDINATE CALCULATION
 *  T=         - A TIME OF 172800.0 SECONDS REQUESTED
 *  DUMP=N     - RESTART FILE WRITTEN EVERY 7200.0 SECONDS REQUESTED
 *  BIGCYCLES  - DO 1 BIG STEPS
 *  HTML       - WRITE HTML SCRIPT TO GENERATE ANIMATION USING JSMOL
 *             - TO DISPLAY IN PDB FORMAT, ADD "PDBOUT"
 *  T-PRIOR    - TIME TAKES PRIORITY IN DRC
 *******************************************************************************
 irc=5 DRC BIGCYCLES=1 html t-priority=0.25
 Formaldehyde, Vibration 5

   ATOM   CHEMICAL          X               Y               Z
  NUMBER   SYMBOL      (ANGSTROMS)     (ANGSTROMS)     (ANGSTROMS)
 
     1       O          0.00000000      0.00000000      0.00000000   
     2       C          1.20614535      0.00000000      0.00000000   
     3       H          1.77263363      0.93258650      0.00000000   
     4       H          1.77263363     -0.93258650      0.00000000   
 


          CARTESIAN COORDINATES 

    NO.       ATOM           X           Y           Z

     1         O          0.0000      0.0000      0.0000
     2         C          1.2061      0.0000      0.0000
     3         H          1.7726      0.9326      0.0000
     4         H          1.7726     -0.9326      0.0000

 General Reference for PM7:
 "Optimization of Parameters for Semiempirical Methods VI: More Modifications to the 
 NDDO Approximations and Re-optimization of Parameters", J. J. P. Stewart, J. Mol. Mod., 1:32, 19 (2013)
 https://link.springer.com/article/10.1007/s00894-012-1667-x

           Empirical Formula: C H2 O  =     4 atoms



      MOLECULAR POINT GROUP   :   C2v 


      RHF CALCULATION, NO. OF DOUBLY OCCUPIED LEVELS = 6



          HEAT OF FORMATION =     -25.542415 KCALS/MOLE


          GRADIENT NORM =   0.62092

          MOLECULAR WEIGHT =   30.03


          ESTIMATED TIME TO COMPLETE CALCULATION =        0.00 SECONDS

    FOR POINT-GROUP C2v  THERE ARE   4 UNIQUE SYMMETRY FUNCTIONS.

 STEP:   1 TIME =     0.00 SECS, INTEGRAL =      0.00 TIME LEFT: 172800.00
 STEP:   2 TIME =     0.00 SECS, INTEGRAL =      0.00 TIME LEFT: 172800.00
 STEP:   3 TIME =     0.00 SECS, INTEGRAL =      0.00 TIME LEFT: 172800.00
 STEP:   4 TIME =     0.00 SECS, INTEGRAL =      0.00 TIME LEFT: 172800.00
 STEP:   5 TIME =     0.02 SECS, INTEGRAL =      0.02 TIME LEFT: 172799.98
 STEP:   6 TIME =     0.00 SECS, INTEGRAL =      0.02 TIME LEFT: 172799.98
 STEP:   7 TIME =     0.00 SECS, INTEGRAL =      0.02 TIME LEFT: 172799.98
 STEP:   8 TIME =     0.00 SECS, INTEGRAL =      0.02 TIME LEFT: 172799.98
 STEP:   9 TIME =     0.00 SECS, INTEGRAL =      0.02 TIME LEFT: 172799.98
 STEP:  10                       INTEGRAL =      0.02 TIME LEFT: 172799.98
 STEP:  11                       INTEGRAL =      0.02 TIME LEFT: 172799.98
 STEP:  12                       INTEGRAL =      0.02 TIME LEFT: 172799.98
           INITIAL VELOCITY IN DRC (Angstroms/Femtosecond)
        -0.00000        -0.04854        -0.00000
        -0.00000         0.09586         0.00000
         0.38528        -0.18593        -0.00000
        -0.38528        -0.18593        -0.00000
 BY DEFAULT, ONE QUANTUM OF ENERGY, EQUIVALENT TO  2620.812 CM(-1)
 WILL BE USED TO START THE DRC
 THIS REPRESENTS AN ENERGY OF   7.49 KCALS/MOLE

 TIME PRIORITY, INTERVAL = 0.25 FEMTOSECONDS



 FEMTOSECONDS  POINT  POTENTIAL + KINETIC  =   TOTAL     ERROR    REF%   MOVEMENT
     0.000       1   -25.54240    7.49161   -18.05079   0.00000     1   %  0.0000
     0.250       3   -25.42863    7.37770   -18.05093  -0.00015     2   %  0.0284
     0.500       3   -25.09372    7.04283   -18.05089  -0.00010     3   %  0.0563
     0.750       8   -24.56108    6.50989   -18.05118  -0.00039     4   %  0.0833
     1.000      10   -23.86051    5.80925   -18.05126  -0.00047     5   %  0.1091
     1.250      13   -23.03546    4.98414   -18.05132  -0.00052     6   %  0.1333
     1.500      15   -22.13732    4.08597   -18.05135  -0.00055     7   %  0.1554
     1.750      18   -21.22054    3.16921   -18.05133  -0.00054     8   %  0.1751
     2.000      20   -20.34231    2.29099   -18.05132  -0.00053     9   %  0.1922
     2.250      23   -19.55564    1.50436   -18.05128  -0.00048    10   %  0.2064
     2.500      25   -18.90894    0.85761   -18.05133  -0.00053    11   %  0.2175
     2.750      27   -18.44063    0.38929   -18.05134  -0.00054    12   %  0.2252
     3.000      29   -18.17778    0.12654   -18.05123  -0.00044    13   %  0.2296
     3.250      31   -18.13436    0.08369   -18.05067   0.00012    14   %  0.2306
     3.500      32   -18.31013    0.25959   -18.05054   0.00026    15   %  0.2281
     3.750      34   -18.69149    0.64175   -18.04974   0.00106    16   %  0.2221
     4.000      36   -19.25088    1.20048   -18.05040   0.00039    17   %  0.2129
     4.250      38   -19.95292    1.90248   -18.05044   0.00036    18   %  0.2006
     4.500      41   -20.75339    2.70299   -18.05041   0.00039    19   %  0.1853
     4.750      43   -21.60446    3.55406   -18.05040   0.00040    20   %  0.1673
     5.000      46   -22.45588    4.40547   -18.05041   0.00039    21   %  0.1469
     5.250      48   -23.25987    5.20942   -18.05045   0.00034    22   %  0.1243
     5.500      51   -23.97154    5.92104   -18.05050   0.00030    23   %  0.1000
     5.750      53   -24.55295    6.50239   -18.05056   0.00024    24   %  0.0743
     6.000      56   -24.97309    6.92245   -18.05064   0.00016    25   %  0.0482
     6.250      58   -25.21030    7.15958   -18.05072   0.00008    26   %  0.0458
     6.500      61   -25.25216    7.20136   -18.05079   0.00001    27   %  0.0455
     6.750      63   -25.09641    7.04555   -18.05086  -0.00006    28   %  0.0449
     7.000      66   -24.75096    6.70003   -18.05093  -0.00012    29   %  0.0639
     7.250      68   -24.23332    6.18234   -18.05099  -0.00018    30   %  0.0901
     7.500      71   -23.57084    5.51979   -18.05105  -0.00024    31   %  0.1150
     7.750      73   -22.79849    4.74741   -18.05108  -0.00027    32   %  0.1383
     8.000      76   -21.95909    3.90794   -18.05115  -0.00034    33   %  0.1596
     8.250      78   -21.09947    3.04829   -18.05118  -0.00037    34   %  0.1786
     8.500      81   -20.27006    2.21887   -18.05120  -0.00038    35   %  0.1949
     8.750      83   -19.52009    1.46890   -18.05119  -0.00038    36   %  0.2085
     9.000      86   -18.89653    0.84534   -18.05119  -0.00038    37   %  0.2189
     9.250      88   -18.43896    0.38771   -18.05126  -0.00045    38   %  0.2261
     9.500      90   -18.17870    0.12743   -18.05127  -0.00046    39   %  0.2299
     9.750      92   -18.13481    0.08397   -18.05084  -0.00003    40   %  0.2303
    10.000      93   -18.31369    0.26306   -18.05063   0.00018    41   %  0.2272
    10.250      95   -18.70666    0.65650   -18.05016   0.00065    42   %  0.2207
    10.500      96   -19.29082    1.24117   -18.04965   0.00116    43   %  0.2109
    10.750      98   -20.03127    1.98084   -18.05042   0.00039    44   %  0.1978
    11.000     101   -20.88333    2.83288   -18.05045   0.00036    45   %  0.1818
    11.250     103   -21.79397    3.74353   -18.05043   0.00038    46   %  0.1630
    11.500     106   -22.70743    4.65699   -18.05045   0.00037    47   %  0.1417
    11.750     108   -23.56674    5.51625   -18.05049   0.00033    48   %  0.1183
    12.000     111   -24.31947    6.26892   -18.05056   0.00026    49   %  0.0931
    12.250     113   -24.91899    6.86835   -18.05065   0.00017    50   %  0.0666
    12.500     116   -25.32906    7.27831   -18.05075   0.00007    51   %  0.0391
    12.750     118   -25.52463    7.47377   -18.05087  -0.00005    52   %  0.0115



 **********************
 *                    *
 * JOB ENDED NORMALLY *
 *                    *
 **********************



 TOTAL JOB TIME:             0.23 SECONDS

 == MOPAC DONE ==
