 *******************************************************************************
 ** Site#: 37037        For non-commercial use only           Version 21.148W **
 *******************************************************************************
 ** Cite this program as: MOPAC2016, Version: 21.148W, James J. P. Stewart,   **
 ** Stewart Computational Chemistry, web: HTTP://OpenMOPAC.net. Days left: 364**
 *******************************************************************************
 **                                                                           **
 **                                MOPAC2016                                  **
 **                                                                           **
 *******************************************************************************

                              PM7 CALCULATION RESULTS

 *******************************************************************************
 *  CALCULATION DONE:                                Sat May 29 10:55:22 2021  *
 *  RESIDUES   - DETERMINE THE SEQUENCE OF RESIDUES
 *  IRC=N      - INTRINSIC REACTION COORDINATE  2 DEFINED
 *  DRC        - DYNAMIC REACTION COORDINATE CALCULATION
 *  T=         - A TIME OF 172800.0 SECONDS REQUESTED
 *  DUMP=N     - RESTART FILE WRITTEN EVERY 7200.0 SECONDS REQUESTED
 *  BIGCYCLES  - DO 1 BIG STEPS
 *  HTML       - WRITE HTML SCRIPT TO GENERATE ANIMATION USING JSMOL
 *             - TO DISPLAY IN PDB FORMAT, ADD "PDBOUT"
 *  T-PRIOR    - TIME TAKES PRIORITY IN DRC
 *******************************************************************************
 irc=2 DRC BIGCYCLES=1 html t-priority=0.5
 Formaldehyde, Vibration 2

   ATOM   CHEMICAL          X               Y               Z
  NUMBER   SYMBOL      (ANGSTROMS)     (ANGSTROMS)     (ANGSTROMS)
 
     1       O          0.00000000      0.00000000      0.00000000   
     2       C          1.20614535      0.00000000      0.00000000   
     3       H          1.77263363      0.93258650      0.00000000   
     4       H          1.77263363     -0.93258650      0.00000000   
 


          CARTESIAN COORDINATES 

    NO.       ATOM           X           Y           Z

     1         O          0.0000      0.0000      0.0000
     2         C          1.2061      0.0000      0.0000
     3         H          1.7726      0.9326      0.0000
     4         H          1.7726     -0.9326      0.0000

 General Reference for PM7:
 "Optimization of Parameters for Semiempirical Methods VI: More Modifications to the 
 NDDO Approximations and Re-optimization of Parameters", J. J. P. Stewart, J. Mol. Mod., 1:32, 19 (2013)
 https://link.springer.com/article/10.1007/s00894-012-1667-x

           Empirical Formula: C H2 O  =     4 atoms



      MOLECULAR POINT GROUP   :   C2v 


      RHF CALCULATION, NO. OF DOUBLY OCCUPIED LEVELS = 6



          HEAT OF FORMATION =     -25.542415 KCALS/MOLE


          GRADIENT NORM =   0.62092

          MOLECULAR WEIGHT =   30.03


          ESTIMATED TIME TO COMPLETE CALCULATION =        0.00 SECONDS

    FOR POINT-GROUP C2v  THERE ARE   4 UNIQUE SYMMETRY FUNCTIONS.

 STEP:   1 TIME =     0.00 SECS, INTEGRAL =      0.00 TIME LEFT: 172800.00
 STEP:   2 TIME =     0.00 SECS, INTEGRAL =      0.00 TIME LEFT: 172800.00
 STEP:   3 TIME =     0.00 SECS, INTEGRAL =      0.00 TIME LEFT: 172800.00
 STEP:   4 TIME =     0.00 SECS, INTEGRAL =      0.00 TIME LEFT: 172800.00
 STEP:   5 TIME =     0.00 SECS, INTEGRAL =      0.00 TIME LEFT: 172800.00
 STEP:   6 TIME =     0.00 SECS, INTEGRAL =      0.00 TIME LEFT: 172800.00
 STEP:   7 TIME =     0.00 SECS, INTEGRAL =      0.00 TIME LEFT: 172800.00
 STEP:   8 TIME =     0.00 SECS, INTEGRAL =      0.00 TIME LEFT: 172800.00
 STEP:   9 TIME =     0.00 SECS, INTEGRAL =      0.00 TIME LEFT: 172800.00
 STEP:  10                       INTEGRAL =      0.00 TIME LEFT: 172800.00
 STEP:  11                       INTEGRAL =      0.00 TIME LEFT: 172800.00
 STEP:  12                       INTEGRAL =      0.00 TIME LEFT: 172800.00
           INITIAL VELOCITY IN DRC (Angstroms/Femtosecond)
        -0.00000        -0.04854        -0.00000
        -0.00000         0.09586         0.00000
         0.38528        -0.18593        -0.00000
        -0.38528        -0.18593        -0.00000
 BY DEFAULT, ONE QUANTUM OF ENERGY, EQUIVALENT TO  1174.735 CM(-1)
 WILL BE USED TO START THE DRC
 THIS REPRESENTS AN ENERGY OF   3.36 KCALS/MOLE

 TIME PRIORITY, INTERVAL = 0.50 FEMTOSECONDS



 FEMTOSECONDS  POINT  POTENTIAL + KINETIC  =   TOTAL     ERROR    REF%   MOVEMENT
     0.000       1   -25.54240    3.35799   -22.18441   0.00000     1   %  0.0000
     0.500       5   -25.50215    3.31760   -22.18455  -0.00013     2   %  0.0364
     1.000       5   -25.38282    3.19822   -22.18460  -0.00019     3   %  0.0725
     1.500      12   -25.19108    3.00665   -22.18443  -0.00001     4   %  0.1076
     2.000      14   -24.93458    2.75012   -22.18446  -0.00004     5   %  0.1414
     2.500      17   -24.62593    2.44143   -22.18450  -0.00009     6   %  0.1735
     3.000      19   -24.27996    2.09540   -22.18457  -0.00015     7   %  0.2035
     3.500      21   -23.91389    1.72924   -22.18465  -0.00023     8   %  0.2310
     4.000      22   -23.54590    1.36116   -22.18474  -0.00032     9   %  0.2558
     4.500      24   -23.19425    1.00942   -22.18482  -0.00041    10   %  0.2774
     5.000      25   -22.87710    0.69221   -22.18489  -0.00047    11   %  0.2956
     5.500      27   -22.60899    0.42407   -22.18492  -0.00050    12   %  0.3102
     6.000      28   -22.40331    0.21840   -22.18491  -0.00050    13   %  0.3211
     6.500      29   -22.26885    0.08398   -22.18487  -0.00045    14   %  0.3281
     7.000      31   -22.21081    0.02616   -22.18465  -0.00024    15   %  0.3311
     7.500      32   -22.23105    0.04680   -22.18425   0.00017    16   %  0.3302
     8.000      33   -22.32758    0.14338   -22.18420   0.00022    17   %  0.3253
     8.500      34   -22.49497    0.31137   -22.18360   0.00081    18   %  0.3165
     9.000      35   -22.72571    0.54193   -22.18378   0.00064    19   %  0.3039
     9.500      36   -23.00936    0.82640   -22.18297   0.00145    20   %  0.2877
    10.000      37   -23.33514    1.15167   -22.18346   0.00096    21   %  0.2680
    10.500      38   -23.68837    1.50485   -22.18351   0.00091    22   %  0.2452
    11.000      39   -24.05306    1.86952   -22.18354   0.00088    23   %  0.2193
    11.500      41   -24.41196    2.22840   -22.18356   0.00086    24   %  0.1909
    12.000      42   -24.74745    2.56382   -22.18363   0.00079    25   %  0.1601
    12.500      44   -25.04087    2.85712   -22.18375   0.00067    26   %  0.1274
    13.000      46   -25.27554    3.09166   -22.18388   0.00054    27   %  0.0934
    13.500      48   -25.43765    3.25366   -22.18400   0.00043    28   %  0.0589
    14.000      50   -25.51764    3.33354   -22.18411   0.00032    29   %  0.0261
    14.500      52   -25.51132    3.32711   -22.18421   0.00022    30   %  0.0240
    15.000      54   -25.42032    3.23601   -22.18431   0.00012    31   %  0.0552
    15.500      56   -25.25194    3.06752   -22.18442   0.00001    32   %  0.0893
    16.000      58   -25.01816    2.83361   -22.18455  -0.00012    33   %  0.1229
    16.500      60   -24.73434    2.54964   -22.18470  -0.00027    34   %  0.1550
    17.000      62   -24.41749    2.23272   -22.18476  -0.00033    35   %  0.1852
    17.500      64   -24.08485    1.90020   -22.18465  -0.00022    36   %  0.2131
    18.000      65   -23.75171    1.56714   -22.18457  -0.00013    37   %  0.2384
    18.500      67   -23.43182    1.24726   -22.18456  -0.00013    38   %  0.2608
    19.000      68   -23.13561    0.95104   -22.18457  -0.00013    39   %  0.2802
    19.500      69   -22.87229    0.68771   -22.18458  -0.00015    40   %  0.2964
    20.000      71   -22.64891    0.46428   -22.18463  -0.00020    41   %  0.3091
    20.500      72   -22.47204    0.28732   -22.18472  -0.00029    42   %  0.3184
    21.000      73   -22.34908    0.16423   -22.18485  -0.00042    43   %  0.3241
    21.500      74   -22.28743    0.10247   -22.18496  -0.00052    44   %  0.3260
    22.000      75   -22.29450    0.10977   -22.18474  -0.00030    45   %  0.3241
    22.500      76   -22.37663    0.19221   -22.18441   0.00002    46   %  0.3184
    23.000      77   -22.53700    0.35284   -22.18416   0.00028    47   %  0.3088
    23.500      78   -22.77373    0.59023   -22.18350   0.00093    48   %  0.2954
    24.000      79   -23.07832    0.89586   -22.18247   0.00197    49   %  0.2784
    24.500      80   -23.43386    1.25288   -22.18098   0.00346    50   %  0.2578
    25.000      82   -23.81830    1.63510   -22.18320   0.00124    51   %  0.2340
    25.500      83   -24.20557    2.02205   -22.18352   0.00092    52   %  0.2075
    26.000      85   -24.56839    2.38461   -22.18379   0.00065    53   %  0.1786
    26.500      87   -24.88204    2.69808   -22.18396   0.00048    54   %  0.1480
    27.000      90   -25.12748    2.94341   -22.18407   0.00037    55   %  0.1163
    27.500      92   -25.29308    3.10892   -22.18416   0.00028    56   %  0.0848
    28.000      94   -25.37538    3.19114   -22.18424   0.00021    57   %  0.0558



 **********************
 *                    *
 * JOB ENDED NORMALLY *
 *                    *
 **********************



 TOTAL JOB TIME:             0.31 SECONDS

 == MOPAC DONE ==
