 *******************************************************************************
 ** Site#: 37037        For non-commercial use only           Version 21.148W **
 *******************************************************************************
 ** Cite this program as: MOPAC2016, Version: 21.148W, James J. P. Stewart,   **
 ** Stewart Computational Chemistry, web: HTTP://OpenMOPAC.net. Days left: 364**
 *******************************************************************************
 **                                                                           **
 **                                MOPAC2016                                  **
 **                                                                           **
 *******************************************************************************

                              PM7 CALCULATION RESULTS

 *******************************************************************************
 *  CALCULATION DONE:                                Sat May 29 10:56:01 2021  *
 *  RESIDUES   - DETERMINE THE SEQUENCE OF RESIDUES
 *  IRC=N      - INTRINSIC REACTION COORDINATE  6 DEFINED
 *  DRC        - DYNAMIC REACTION COORDINATE CALCULATION
 *  T=         - A TIME OF 172800.0 SECONDS REQUESTED
 *  DUMP=N     - RESTART FILE WRITTEN EVERY 7200.0 SECONDS REQUESTED
 *  BIGCYCLES  - DO 1 BIG STEPS
 *  HTML       - WRITE HTML SCRIPT TO GENERATE ANIMATION USING JSMOL
 *             - TO DISPLAY IN PDB FORMAT, ADD "PDBOUT"
 *  T-PRIOR    - TIME TAKES PRIORITY IN DRC
 *******************************************************************************
 irc=6 DRC BIGCYCLES=1 html t-priority=0.25
 Formaldehyde, Vibration 6

   ATOM   CHEMICAL          X               Y               Z
  NUMBER   SYMBOL      (ANGSTROMS)     (ANGSTROMS)     (ANGSTROMS)
 
     1       O          0.00000000      0.00000000      0.00000000   
     2       C          1.20614535      0.00000000      0.00000000   
     3       H          1.77263363      0.93258650      0.00000000   
     4       H          1.77263363     -0.93258650      0.00000000   
 


          CARTESIAN COORDINATES 

    NO.       ATOM           X           Y           Z

     1         O          0.0000      0.0000      0.0000
     2         C          1.2061      0.0000      0.0000
     3         H          1.7726      0.9326      0.0000
     4         H          1.7726     -0.9326      0.0000

 General Reference for PM7:
 "Optimization of Parameters for Semiempirical Methods VI: More Modifications to the 
 NDDO Approximations and Re-optimization of Parameters", J. J. P. Stewart, J. Mol. Mod., 1:32, 19 (2013)
 https://link.springer.com/article/10.1007/s00894-012-1667-x

           Empirical Formula: C H2 O  =     4 atoms



      MOLECULAR POINT GROUP   :   C2v 


      RHF CALCULATION, NO. OF DOUBLY OCCUPIED LEVELS = 6



          HEAT OF FORMATION =     -25.542415 KCALS/MOLE


          GRADIENT NORM =   0.62092

          MOLECULAR WEIGHT =   30.03


          ESTIMATED TIME TO COMPLETE CALCULATION =        0.00 SECONDS

    FOR POINT-GROUP C2v  THERE ARE   4 UNIQUE SYMMETRY FUNCTIONS.

 STEP:   1 TIME =     0.00 SECS, INTEGRAL =      0.00 TIME LEFT: 172800.00
 STEP:   2 TIME =     0.00 SECS, INTEGRAL =      0.00 TIME LEFT: 172800.00
 STEP:   3 TIME =     0.02 SECS, INTEGRAL =      0.02 TIME LEFT: 172799.98
 STEP:   4 TIME =     0.00 SECS, INTEGRAL =      0.02 TIME LEFT: 172799.98
 STEP:   5 TIME =     0.00 SECS, INTEGRAL =      0.02 TIME LEFT: 172799.98
 STEP:   6 TIME =     0.00 SECS, INTEGRAL =      0.02 TIME LEFT: 172799.98
 STEP:   7 TIME =     0.00 SECS, INTEGRAL =      0.02 TIME LEFT: 172799.98
 STEP:   8 TIME =     0.00 SECS, INTEGRAL =      0.02 TIME LEFT: 172799.98
 STEP:   9 TIME =     0.00 SECS, INTEGRAL =      0.02 TIME LEFT: 172799.98
 STEP:  10                       INTEGRAL =      0.02 TIME LEFT: 172799.98
 STEP:  11                       INTEGRAL =      0.02 TIME LEFT: 172799.98
 STEP:  12                       INTEGRAL =      0.02 TIME LEFT: 172799.98
           INITIAL VELOCITY IN DRC (Angstroms/Femtosecond)
        -0.00000        -0.04854        -0.00000
        -0.00000         0.09586         0.00000
         0.38528        -0.18593        -0.00000
        -0.38528        -0.18593        -0.00000
 BY DEFAULT, ONE QUANTUM OF ENERGY, EQUIVALENT TO  2675.044 CM(-1)
 WILL BE USED TO START THE DRC
 THIS REPRESENTS AN ENERGY OF   7.65 KCALS/MOLE

 TIME PRIORITY, INTERVAL = 0.25 FEMTOSECONDS



 FEMTOSECONDS  POINT  POTENTIAL + KINETIC  =   TOTAL     ERROR    REF%   MOVEMENT
     0.000       1   -25.54240    7.64664   -17.89577   0.00000     1   %  0.0000
     0.250       3   -25.43171    7.53581   -17.89590  -0.00013     2   %  0.0288
     0.500       3   -25.09400    7.19817   -17.89583  -0.00006     3   %  0.0571
     0.750       8   -24.56187    6.66572   -17.89615  -0.00038     4   %  0.0845
     1.000      10   -23.86921    5.97302   -17.89619  -0.00042     5   %  0.1107
     1.250      13   -23.06182    5.16561   -17.89621  -0.00044     6   %  0.1353
     1.500      15   -22.18880    4.29260   -17.89620  -0.00043     7   %  0.1579
     1.750      18   -21.29857    3.40244   -17.89613  -0.00036     8   %  0.1783
     2.000      20   -20.43918    2.54295   -17.89623  -0.00045     9   %  0.1963
     2.250      22   -19.65399    1.75765   -17.89633  -0.00056    10   %  0.2115
     2.500      24   -18.98106    1.08464   -17.89642  -0.00065    11   %  0.2238
     2.750      26   -18.45206    0.55558   -17.89648  -0.00071    12   %  0.2331
     3.000      28   -18.09140    0.19487   -17.89653  -0.00075    13   %  0.2393
     3.250      29   -17.91499    0.01809   -17.89689  -0.00112    14   %  0.2423
     3.500      31   -17.93168    0.03477   -17.89691  -0.00114    15   %  0.2420
     3.750      32   -18.14038    0.25253   -17.88785   0.00792    16   %  0.2385
     4.000      33   -18.53520    0.63085   -17.90435  -0.00858    17   %  0.2318
     4.250      34   -19.08927    1.20303   -17.88623   0.00954    18   %  0.2220
     4.500      36   -19.78586    1.88906   -17.89680  -0.00103    19   %  0.2091
     4.750      37   -20.58681    2.69164   -17.89517   0.00061    20   %  0.1934
     5.000      40   -21.45505    3.55972   -17.89533   0.00045    21   %  0.1751
     5.250      42   -22.34538    4.45001   -17.89538   0.00040    22   %  0.1543
     5.500      45   -23.21027    5.31493   -17.89534   0.00044    23   %  0.1313
     5.750      47   -24.00044    6.10511   -17.89533   0.00045    24   %  0.1065
     6.000      50   -24.66802    6.77268   -17.89534   0.00044    25   %  0.0802
     6.250      52   -25.16912    7.27374   -17.89538   0.00040    26   %  0.0528
     6.500      55   -25.46726    7.57181   -17.89545   0.00033    27   %  0.0249
     6.750      57   -25.53630    7.64075   -17.89555   0.00023    28   %  0.0106
     7.000      60   -25.36343    7.46775   -17.89569   0.00010    29   %  0.0348
     7.250      62   -24.95143    7.05559   -17.89584  -0.00005    30   %  0.0624
     7.500      65   -24.31979    6.42379   -17.89600  -0.00021    31   %  0.0892
     7.750      67   -23.50507    5.60891   -17.89615  -0.00037    32   %  0.1147
     8.000      70   -22.55896    4.66267   -17.89629  -0.00050    33   %  0.1383
     8.250      72   -21.54586    3.64946   -17.89639  -0.00061    34   %  0.1595
     8.500      75   -20.53774    2.64128   -17.89645  -0.00066    35   %  0.1779
     8.750      77   -19.60925    1.71280   -17.89645  -0.00066    36   %  0.1932
     9.000      80   -18.83085    0.93441   -17.89644  -0.00065    37   %  0.2051
     9.250      82   -18.26308    0.36655   -17.89653  -0.00074    38   %  0.2133
     9.500      84   -17.95098    0.05426   -17.89672  -0.00093    39   %  0.2177
     9.750      86   -17.91962    0.02483   -17.89478   0.00101    40   %  0.2181
    10.000      87   -18.17508    0.27596   -17.89912  -0.00333    41   %  0.2146
    10.250      89   -18.69269    0.79731   -17.89538   0.00041    42   %  0.2072
    10.500      91   -19.43142    1.53640   -17.89502   0.00077    43   %  0.1962
    10.750      93   -20.33381    2.43855   -17.89526   0.00053    44   %  0.1816
    11.000      96   -21.33133    3.43612   -17.89521   0.00058    45   %  0.1639
    11.250      98   -22.34887    4.45364   -17.89523   0.00056    46   %  0.1434
    11.500     101   -23.31417    5.41888   -17.89530   0.00050    47   %  0.1204
    11.750     103   -24.16028    6.26488   -17.89541   0.00039    48   %  0.0955
    12.000     106   -24.83317    6.93763   -17.89554   0.00025    49   %  0.0692
    12.250     108   -25.29267    7.39698   -17.89569   0.00011    50   %  0.0424
    12.500     111   -25.51594    7.62011   -17.89584  -0.00004    51   %  0.0186



 **********************
 *                    *
 * JOB ENDED NORMALLY *
 *                    *
 **********************



 TOTAL JOB TIME:             0.22 SECONDS

 == MOPAC DONE ==
