 *******************************************************************************
 ** Site#: 37037        For non-commercial use only           Version 21.148W **
 *******************************************************************************
 ** Cite this program as: MOPAC2016, Version: 21.148W, James J. P. Stewart,   **
 ** Stewart Computational Chemistry, web: HTTP://OpenMOPAC.net. Days left: 364**
 *******************************************************************************
 **                                                                           **
 **                                MOPAC2016                                  **
 **                                                                           **
 *******************************************************************************

                              PM7 CALCULATION RESULTS

 *******************************************************************************
 *  CALCULATION DONE:                                Sat May 29 10:55:49 2021  *
 *  RESIDUES   - DETERMINE THE SEQUENCE OF RESIDUES
 *  IRC=N      - INTRINSIC REACTION COORDINATE  3 DEFINED
 *  DRC        - DYNAMIC REACTION COORDINATE CALCULATION
 *  T=         - A TIME OF 172800.0 SECONDS REQUESTED
 *  DUMP=N     - RESTART FILE WRITTEN EVERY 7200.0 SECONDS REQUESTED
 *  BIGCYCLES  - DO 1 BIG STEPS
 *  HTML       - WRITE HTML SCRIPT TO GENERATE ANIMATION USING JSMOL
 *             - TO DISPLAY IN PDB FORMAT, ADD "PDBOUT"
 *  T-PRIOR    - TIME TAKES PRIORITY IN DRC
 *******************************************************************************
 irc=3 DRC BIGCYCLES=1 html t-priority=0.5
 Formaldehyde, Vibration 3

   ATOM   CHEMICAL          X               Y               Z
  NUMBER   SYMBOL      (ANGSTROMS)     (ANGSTROMS)     (ANGSTROMS)
 
     1       O          0.00000000      0.00000000      0.00000000   
     2       C          1.20614535      0.00000000      0.00000000   
     3       H          1.77263363      0.93258650      0.00000000   
     4       H          1.77263363     -0.93258650      0.00000000   
 


          CARTESIAN COORDINATES 

    NO.       ATOM           X           Y           Z

     1         O          0.0000      0.0000      0.0000
     2         C          1.2061      0.0000      0.0000
     3         H          1.7726      0.9326      0.0000
     4         H          1.7726     -0.9326      0.0000

 General Reference for PM7:
 "Optimization of Parameters for Semiempirical Methods VI: More Modifications to the 
 NDDO Approximations and Re-optimization of Parameters", J. J. P. Stewart, J. Mol. Mod., 1:32, 19 (2013)
 https://link.springer.com/article/10.1007/s00894-012-1667-x

           Empirical Formula: C H2 O  =     4 atoms



      MOLECULAR POINT GROUP   :   C2v 


      RHF CALCULATION, NO. OF DOUBLY OCCUPIED LEVELS = 6



          HEAT OF FORMATION =     -25.542415 KCALS/MOLE


          GRADIENT NORM =   0.62092

          MOLECULAR WEIGHT =   30.03


          ESTIMATED TIME TO COMPLETE CALCULATION =        0.00 SECONDS

    FOR POINT-GROUP C2v  THERE ARE   4 UNIQUE SYMMETRY FUNCTIONS.

 STEP:   1 TIME =     0.02 SECS, INTEGRAL =      0.02 TIME LEFT: 172799.98
 STEP:   2 TIME =     0.00 SECS, INTEGRAL =      0.02 TIME LEFT: 172799.98
 STEP:   3 TIME =     0.00 SECS, INTEGRAL =      0.02 TIME LEFT: 172799.98
 STEP:   4 TIME =     0.00 SECS, INTEGRAL =      0.02 TIME LEFT: 172799.98
 STEP:   5 TIME =     0.00 SECS, INTEGRAL =      0.02 TIME LEFT: 172799.98
 STEP:   6 TIME =     0.00 SECS, INTEGRAL =      0.02 TIME LEFT: 172799.98
 STEP:   7 TIME =     0.02 SECS, INTEGRAL =      0.03 TIME LEFT: 172799.97
 STEP:   8 TIME =     0.00 SECS, INTEGRAL =      0.03 TIME LEFT: 172799.97
 STEP:   9 TIME =     0.00 SECS, INTEGRAL =      0.03 TIME LEFT: 172799.97
 STEP:  10                       INTEGRAL =      0.03 TIME LEFT: 172799.97
 STEP:  11                       INTEGRAL =      0.03 TIME LEFT: 172799.97
 STEP:  12                       INTEGRAL =      0.03 TIME LEFT: 172799.97
           INITIAL VELOCITY IN DRC (Angstroms/Femtosecond)
        -0.00000        -0.04854        -0.00000
        -0.00000         0.09586         0.00000
         0.38528        -0.18593        -0.00000
        -0.38528        -0.18593        -0.00000
 BY DEFAULT, ONE QUANTUM OF ENERGY, EQUIVALENT TO  1376.771 CM(-1)
 WILL BE USED TO START THE DRC
 THIS REPRESENTS AN ENERGY OF   3.94 KCALS/MOLE

 TIME PRIORITY, INTERVAL = 0.50 FEMTOSECONDS



 FEMTOSECONDS  POINT  POTENTIAL + KINETIC  =   TOTAL     ERROR    REF%   MOVEMENT
     0.000       1   -25.54240    3.93551   -21.60689   0.00000     1   %  0.0000
     0.500       5   -25.48802    3.88119   -21.60683   0.00006     2   %  0.0416
     1.000       5   -25.30534    3.69857   -21.60678   0.00011     3   %  0.0827
     1.500      12   -25.00981    3.40290   -21.60690  -0.00001     4   %  0.1223
     2.000      14   -24.61838    3.01139   -21.60699  -0.00009     5   %  0.1600
     2.500      17   -24.15841    2.55130   -21.60711  -0.00021     6   %  0.1951
     3.000      19   -23.66032    2.05306   -21.60726  -0.00036     7   %  0.2270
     3.500      21   -23.15747    1.55003   -21.60743  -0.00054     8   %  0.2552
     4.000      22   -22.68282    1.07521   -21.60761  -0.00071     9   %  0.2792
     4.500      24   -22.26726    0.65949   -21.60777  -0.00087    10   %  0.2987
     5.000      25   -21.93869    0.33081   -21.60789  -0.00099    11   %  0.3133
     5.500      27   -21.71714    0.10915   -21.60799  -0.00109    12   %  0.3228
     6.000      28   -21.61745    0.00833   -21.60912  -0.00222    13   %  0.3271
     6.500      29   -21.64519    0.04847   -21.59672   0.01017    14   %  0.3260
     7.000      31   -21.80815    0.18521   -21.62295  -0.01605    15   %  0.3192
     7.500      32   -22.07469    0.48629   -21.58841   0.01849    16   %  0.3078
     8.000      33   -22.44967    0.83286   -21.61681  -0.00991    17   %  0.2908
     8.500      34   -22.88977    1.29285   -21.59692   0.00998    18   %  0.2694
     9.000      35   -23.37829    1.77115   -21.60715  -0.00025    19   %  0.2434
     9.500      36   -23.87962    2.27442   -21.60519   0.00170    20   %  0.2136
    10.000      38   -24.36143    2.75569   -21.60574   0.00116    21   %  0.1803
    10.500      39   -24.79402    3.18791   -21.60610   0.00080    22   %  0.1440
    11.000      41   -25.14720    3.54085   -21.60635   0.00055    23   %  0.1054
    11.500      43   -25.39716    3.79061   -21.60655   0.00035    24   %  0.0650
    12.000      45   -25.52616    3.91944   -21.60672   0.00018    25   %  0.0221
    12.500      47   -25.52417    3.91729   -21.60688   0.00003    26   %  0.0184
    13.000      49   -25.39008    3.78306   -21.60702  -0.00011    27   %  0.0595
    13.500      51   -25.13216    3.52499   -21.60717  -0.00027    28   %  0.0998
    14.000      53   -24.76781    3.16046   -21.60735  -0.00044    29   %  0.1384
    14.500      54   -24.32231    2.71473   -21.60758  -0.00067    30   %  0.1745
    15.000      56   -23.82642    2.21855   -21.60788  -0.00097    31   %  0.2076
    15.500      58   -23.31602    1.70782   -21.60820  -0.00129    32   %  0.2370
    16.000      59   -22.82597    1.21746   -21.60851  -0.00159    33   %  0.2623
    16.500      60   -22.39090    0.78216   -21.60874  -0.00183    34   %  0.2831
    17.000      62   -22.03818    0.42930   -21.60887  -0.00196    35   %  0.2990
    17.500      63   -21.79141    0.18251   -21.60890  -0.00198    36   %  0.3098
    18.000      64   -21.66499    0.05629   -21.60871  -0.00179    37   %  0.3153
    18.500      65   -21.66522    0.05998   -21.60524   0.00168    38   %  0.3154
    19.000      66   -21.79210    0.18350   -21.60860  -0.00169    39   %  0.3101
    19.500      67   -22.03255    0.42964   -21.60291   0.00400    40   %  0.2996
    20.000      68   -22.37263    0.76651   -21.60612   0.00080    41   %  0.2841
    20.500      69   -22.79014    1.18548   -21.60466   0.00226    42   %  0.2638
    21.000      71   -23.26032    1.65482   -21.60550   0.00142    43   %  0.2390
    21.500      72   -23.75470    2.14938   -21.60532   0.00160    44   %  0.2101
    22.000      73   -24.24108    2.63569   -21.60538   0.00153    45   %  0.1777
    22.500      75   -24.68898    3.08335   -21.60563   0.00128    46   %  0.1422
    23.000      77   -25.06631    3.46038   -21.60593   0.00099    47   %  0.1043
    23.500      78   -25.34651    3.74034   -21.60618   0.00074    48   %  0.0644
    24.000      80   -25.50693    3.90053   -21.60640   0.00052    49   %  0.0226



 **********************
 *                    *
 * JOB ENDED NORMALLY *
 *                    *
 **********************



 TOTAL JOB TIME:             0.20 SECONDS

 == MOPAC DONE ==
