 *******************************************************************************
 ** Site#: 37037        For non-commercial use only           Version 21.148W **
 *******************************************************************************
 ** Cite this program as: MOPAC2016, Version: 21.148W, James J. P. Stewart,   **
 ** Stewart Computational Chemistry, web: HTTP://OpenMOPAC.net. Days left: 364**
 *******************************************************************************
 **                                                                           **
 **                                MOPAC2016                                  **
 **                                                                           **
 *******************************************************************************

                              PM7 CALCULATION RESULTS

 *******************************************************************************
 *  CALCULATION DONE:                                Sat May 29 10:55:53 2021  *
 *  RESIDUES   - DETERMINE THE SEQUENCE OF RESIDUES
 *  IRC=N      - INTRINSIC REACTION COORDINATE  4 DEFINED
 *  DRC        - DYNAMIC REACTION COORDINATE CALCULATION
 *  T=         - A TIME OF 172800.0 SECONDS REQUESTED
 *  DUMP=N     - RESTART FILE WRITTEN EVERY 7200.0 SECONDS REQUESTED
 *  BIGCYCLES  - DO 1 BIG STEPS
 *  HTML       - WRITE HTML SCRIPT TO GENERATE ANIMATION USING JSMOL
 *             - TO DISPLAY IN PDB FORMAT, ADD "PDBOUT"
 *  T-PRIOR    - TIME TAKES PRIORITY IN DRC
 *******************************************************************************
 irc=4 DRC BIGCYCLES=1 html t-priority=0.25
 Formaldehyde, Vibration 4

   ATOM   CHEMICAL          X               Y               Z
  NUMBER   SYMBOL      (ANGSTROMS)     (ANGSTROMS)     (ANGSTROMS)
 
     1       O          0.00000000      0.00000000      0.00000000   
     2       C          1.20614535      0.00000000      0.00000000   
     3       H          1.77263363      0.93258650      0.00000000   
     4       H          1.77263363     -0.93258650      0.00000000   
 


          CARTESIAN COORDINATES 

    NO.       ATOM           X           Y           Z

     1         O          0.0000      0.0000      0.0000
     2         C          1.2061      0.0000      0.0000
     3         H          1.7726      0.9326      0.0000
     4         H          1.7726     -0.9326      0.0000

 General Reference for PM7:
 "Optimization of Parameters for Semiempirical Methods VI: More Modifications to the 
 NDDO Approximations and Re-optimization of Parameters", J. J. P. Stewart, J. Mol. Mod., 1:32, 19 (2013)
 https://link.springer.com/article/10.1007/s00894-012-1667-x

           Empirical Formula: C H2 O  =     4 atoms



      MOLECULAR POINT GROUP   :   C2v 


      RHF CALCULATION, NO. OF DOUBLY OCCUPIED LEVELS = 6



          HEAT OF FORMATION =     -25.542415 KCALS/MOLE


          GRADIENT NORM =   0.62092

          MOLECULAR WEIGHT =   30.03


          ESTIMATED TIME TO COMPLETE CALCULATION =        0.00 SECONDS

    FOR POINT-GROUP C2v  THERE ARE   4 UNIQUE SYMMETRY FUNCTIONS.

 STEP:   1 TIME =     0.00 SECS, INTEGRAL =      0.00 TIME LEFT: 172800.00
 STEP:   2 TIME =     0.00 SECS, INTEGRAL =      0.00 TIME LEFT: 172800.00
 STEP:   3 TIME =     0.00 SECS, INTEGRAL =      0.00 TIME LEFT: 172800.00
 STEP:   4 TIME =     0.00 SECS, INTEGRAL =      0.00 TIME LEFT: 172800.00
 STEP:   5 TIME =     0.02 SECS, INTEGRAL =      0.02 TIME LEFT: 172799.98
 STEP:   6 TIME =     0.00 SECS, INTEGRAL =      0.02 TIME LEFT: 172799.98
 STEP:   7 TIME =     0.00 SECS, INTEGRAL =      0.02 TIME LEFT: 172799.98
 STEP:   8 TIME =     0.00 SECS, INTEGRAL =      0.02 TIME LEFT: 172799.98
 STEP:   9 TIME =     0.00 SECS, INTEGRAL =      0.02 TIME LEFT: 172799.98
 STEP:  10                       INTEGRAL =      0.02 TIME LEFT: 172799.98
 STEP:  11                       INTEGRAL =      0.02 TIME LEFT: 172799.98
 STEP:  12                       INTEGRAL =      0.02 TIME LEFT: 172799.98
           INITIAL VELOCITY IN DRC (Angstroms/Femtosecond)
        -0.00000        -0.04854        -0.00000
        -0.00000         0.09586         0.00000
         0.38528        -0.18593        -0.00000
        -0.38528        -0.18593        -0.00000
 BY DEFAULT, ONE QUANTUM OF ENERGY, EQUIVALENT TO  1840.415 CM(-1)
 WILL BE USED TO START THE DRC
 THIS REPRESENTS AN ENERGY OF   5.26 KCALS/MOLE

 TIME PRIORITY, INTERVAL = 0.25 FEMTOSECONDS



 FEMTOSECONDS  POINT  POTENTIAL + KINETIC  =   TOTAL     ERROR    REF%   MOVEMENT
     0.000       1   -25.54240    5.26084   -20.28156   0.00000     1   %  0.0000
     0.250       3   -25.50098    5.21949   -20.28149   0.00007     2   %  0.0098
     0.500       3   -25.37952    5.09808   -20.28144   0.00012     3   %  0.0194
     0.750       8   -25.17967    4.89813   -20.28154   0.00002     4   %  0.0289
     1.000      10   -24.90545    4.62389   -20.28156   0.00001     5   %  0.0381
     1.250      13   -24.56377    4.28219   -20.28157  -0.00001     6   %  0.0471
     1.500      15   -24.16443    3.88284   -20.28159  -0.00002     7   %  0.0556
     1.750      18   -23.71943    3.43783   -20.28160  -0.00004     8   %  0.0637
     2.000      20   -23.24340    2.96178   -20.28162  -0.00005     9   %  0.0712
     2.250      23   -22.75227    2.47064   -20.28163  -0.00006    10   %  0.0781
     2.500      25   -22.26364    1.98201   -20.28164  -0.00007    11   %  0.0844
     2.750      28   -21.79514    1.51349   -20.28164  -0.00008    12   %  0.0900
     3.000      30   -21.36461    1.08297   -20.28164  -0.00008    13   %  0.0948
     3.250      33   -20.98843    0.70680   -20.28164  -0.00007    14   %  0.0988
     3.500      35   -20.68157    0.39993   -20.28164  -0.00007    15   %  0.1019
     3.750      38   -20.45610    0.17446   -20.28164  -0.00008    16   %  0.1042
     4.000      40   -20.32122    0.03957   -20.28165  -0.00009    17   %  0.1056
     4.250      41   -20.28238    0.00071   -20.28167  -0.00010    18   %  0.1061
     4.500      43   -20.34219    0.05834   -20.28385  -0.00229    19   %  0.1056
     4.750      45   -20.49622    0.21575   -20.28047   0.00110    20   %  0.1042
     5.000      46   -20.73983    0.45923   -20.28059   0.00097    21   %  0.1020
     5.250      49   -21.06255    0.78108   -20.28148   0.00009    22   %  0.0988
     5.500      51   -21.45141    1.16991   -20.28150   0.00007    23   %  0.0948
     5.750      54   -21.89133    1.60984   -20.28149   0.00008    24   %  0.0900
     6.000      56   -22.36539    2.08390   -20.28148   0.00008    25   %  0.0844
     6.250      59   -22.85592    2.57443   -20.28148   0.00008    26   %  0.0781
     6.500      61   -23.34505    3.06357   -20.28149   0.00008    27   %  0.0711
     6.750      64   -23.81571    3.53422   -20.28149   0.00008    28   %  0.0635
     7.000      66   -24.25202    3.97052   -20.28150   0.00007    29   %  0.0553
     7.250      69   -24.64007    4.35856   -20.28151   0.00006    30   %  0.0467
     7.500      71   -24.96816    4.68664   -20.28152   0.00005    31   %  0.0377
     7.750      74   -25.22724    4.94570   -20.28154   0.00004    32   %  0.0284
     8.000      76   -25.41093    5.12938   -20.28155   0.00002    33   %  0.0189
     8.250      79   -25.51564    5.23408   -20.28156   0.00001    34   %  0.0094
     8.500      81   -25.54046    5.25888   -20.28157   0.00000    35   %  0.0037
     8.750      84   -25.48697    5.20538   -20.28158  -0.00001    36   %  0.0116
     9.000      86   -25.35903    5.07744   -20.28159  -0.00002    37   %  0.0212
     9.250      89   -25.16246    4.88086   -20.28160  -0.00002    38   %  0.0309
     9.500      91   -24.90476    4.62315   -20.28161  -0.00003    39   %  0.0404
     9.750      94   -24.59467    4.31305   -20.28161  -0.00003    40   %  0.0496
    10.000      96   -24.24198    3.96037   -20.28162  -0.00004    41   %  0.0586
    10.250      99   -23.85706    3.57545   -20.28162  -0.00004    42   %  0.0671
    10.500     101   -23.45069    3.16908   -20.28162  -0.00004    43   %  0.0753
    10.750     104   -23.03364    2.75202   -20.28162  -0.00004    44   %  0.0829
    11.000     106   -22.61654    2.33493   -20.28162  -0.00004    45   %  0.0900
    11.250     109   -22.20959    1.92797   -20.28162  -0.00003    46   %  0.0964
    11.500     111   -21.82241    1.54078   -20.28162  -0.00004    47   %  0.1023
    11.750     113   -21.46387    1.18224   -20.28163  -0.00005    48   %  0.1074
    12.000     115   -21.14194    0.86029   -20.28165  -0.00006    49   %  0.1118
    12.250     117   -20.86361    0.58195   -20.28166  -0.00008    50   %  0.1155
    12.500     119   -20.63486    0.35319   -20.28167  -0.00009    51   %  0.1184
    12.750     120   -20.46037    0.17869   -20.28168  -0.00009    52   %  0.1206
    13.000     122   -20.34383    0.06215   -20.28168  -0.00010    53   %  0.1219
    13.250     123   -20.28751    0.00565   -20.28186  -0.00028    54   %  0.1225
    13.500     124   -20.29249    0.01254   -20.27995   0.00163    55   %  0.1222
    13.750     125   -20.36043    0.07534   -20.28509  -0.00351    56   %  0.1211
    14.000     126   -20.48588    0.20871   -20.27717   0.00441    57   %  0.1193
    14.250     127   -20.67120    0.38649   -20.28471  -0.00313    58   %  0.1166
    14.500     128   -20.90807    0.62876   -20.27931   0.00228    59   %  0.1132
    14.750     130   -21.19436    0.91257   -20.28179  -0.00020    60   %  0.1090
    15.000     131   -21.52261    1.24111   -20.28150   0.00008    61   %  0.1042
    15.250     133   -21.88615    1.60463   -20.28152   0.00007    62   %  0.0987
    15.500     136   -22.27674    1.99521   -20.28154   0.00005    63   %  0.0925
    15.750     138   -22.68548    2.40394   -20.28154   0.00005    64   %  0.0857
    16.000     141   -23.10257    2.82104   -20.28154   0.00005    65   %  0.0784
    16.250     143   -23.51791    3.23638   -20.28153   0.00006    66   %  0.0706
    16.500     146   -23.92074    3.63922   -20.28153   0.00006    67   %  0.0623
    16.750     148   -24.30046    4.01893   -20.28152   0.00006    68   %  0.0536
    17.000     151   -24.64624    4.36471   -20.28152   0.00007    69   %  0.0446
    17.250     153   -24.94796    4.66644   -20.28152   0.00007    70   %  0.0354
    17.500     156   -25.19591    4.91439   -20.28152   0.00007    71   %  0.0259
    17.750     158   -25.38162    5.10010   -20.28153   0.00006    72   %  0.0163
    18.000     161   -25.49778    5.21625   -20.28153   0.00006    73   %  0.0072
    18.250     163   -25.53893    5.25739   -20.28154   0.00005    74   %  0.0044



 **********************
 *                    *
 * JOB ENDED NORMALLY *
 *                    *
 **********************



 TOTAL JOB TIME:             0.28 SECONDS

 == MOPAC DONE ==
