 *******************************************************************************
 ** Site#: 37037        For non-commercial use only           Version 21.148W **
 *******************************************************************************
 ** Cite this program as: MOPAC2016, Version: 21.148W, James J. P. Stewart,   **
 ** Stewart Computational Chemistry, web: HTTP://OpenMOPAC.net. Days left: 364**
 *******************************************************************************
 **                                                                           **
 **                                MOPAC2016                                  **
 **                                                                           **
 *******************************************************************************

                              PM7 CALCULATION RESULTS

 *******************************************************************************
 *  CALCULATION DONE:                                Sat May 29 10:55:18 2021  *
 *  RESIDUES   - DETERMINE THE SEQUENCE OF RESIDUES
 *  IRC=N      - INTRINSIC REACTION COORDINATE  1 DEFINED
 *  DRC        - DYNAMIC REACTION COORDINATE CALCULATION
 *  T=         - A TIME OF 172800.0 SECONDS REQUESTED
 *  DUMP=N     - RESTART FILE WRITTEN EVERY 7200.0 SECONDS REQUESTED
 *  BIGCYCLES  - DO 1 BIG STEPS
 *  HTML       - WRITE HTML SCRIPT TO GENERATE ANIMATION USING JSMOL
 *             - TO DISPLAY IN PDB FORMAT, ADD "PDBOUT"
 *  T-PRIOR    - TIME TAKES PRIORITY IN DRC
 *******************************************************************************
 irc=1* DRC BIGCYCLES=1 html t-priority=0.5
 Formaldehyde, Vibration 1

   ATOM   CHEMICAL          X               Y               Z
  NUMBER   SYMBOL      (ANGSTROMS)     (ANGSTROMS)     (ANGSTROMS)
 
     1       O          0.00000000      0.00000000      0.00000000   
     2       C          1.20614535      0.00000000      0.00000000   
     3       H          1.77263363      0.93258650      0.00000000   
     4       H          1.77263363     -0.93258650      0.00000000   
 


          CARTESIAN COORDINATES 

    NO.       ATOM           X           Y           Z

     1         O          0.0000      0.0000      0.0000
     2         C          1.2061      0.0000      0.0000
     3         H          1.7726      0.9326      0.0000
     4         H          1.7726     -0.9326      0.0000

 General Reference for PM7:
 "Optimization of Parameters for Semiempirical Methods VI: More Modifications to the 
 NDDO Approximations and Re-optimization of Parameters", J. J. P. Stewart, J. Mol. Mod., 1:32, 19 (2013)
 https://link.springer.com/article/10.1007/s00894-012-1667-x

           Empirical Formula: C H2 O  =     4 atoms



      MOLECULAR POINT GROUP   :   C2v 


      RHF CALCULATION, NO. OF DOUBLY OCCUPIED LEVELS = 6



          HEAT OF FORMATION =     -25.542415 KCALS/MOLE


          GRADIENT NORM =   0.62092

          MOLECULAR WEIGHT =   30.03


          ESTIMATED TIME TO COMPLETE CALCULATION =        0.00 SECONDS

    FOR POINT-GROUP C2v  THERE ARE   4 UNIQUE SYMMETRY FUNCTIONS.

 STEP:   1 TIME =     0.00 SECS, INTEGRAL =      0.00 TIME LEFT: 172800.00
 STEP:   2 TIME =     0.00 SECS, INTEGRAL =      0.00 TIME LEFT: 172800.00
 STEP:   3 TIME =     0.00 SECS, INTEGRAL =      0.00 TIME LEFT: 172800.00
 STEP:   4 TIME =     0.00 SECS, INTEGRAL =      0.00 TIME LEFT: 172800.00
 STEP:   5 TIME =     0.00 SECS, INTEGRAL =      0.00 TIME LEFT: 172800.00
 STEP:   6 TIME =     0.00 SECS, INTEGRAL =      0.00 TIME LEFT: 172800.00
 STEP:   7 TIME =     0.00 SECS, INTEGRAL =      0.00 TIME LEFT: 172800.00
 STEP:   8 TIME =     0.00 SECS, INTEGRAL =      0.00 TIME LEFT: 172800.00
 STEP:   9 TIME =     0.00 SECS, INTEGRAL =      0.00 TIME LEFT: 172800.00
 STEP:  10                       INTEGRAL =      0.00 TIME LEFT: 172800.00
 STEP:  11                       INTEGRAL =      0.00 TIME LEFT: 172800.00
 STEP:  12                       INTEGRAL =      0.00 TIME LEFT: 172800.00
           INITIAL VELOCITY IN DRC (Angstroms/Femtosecond)
        -0.00000        -0.04854        -0.00000
        -0.00000         0.09586         0.00000
         0.38528        -0.18593        -0.00000
        -0.38528        -0.18593        -0.00000
 BY DEFAULT, ONE QUANTUM OF ENERGY, EQUIVALENT TO  1103.928 CM(-1)
 WILL BE USED TO START THE DRC
 THIS REPRESENTS AN ENERGY OF   3.16 KCALS/MOLE

 TIME PRIORITY, INTERVAL = 0.50 FEMTOSECONDS



 FEMTOSECONDS  POINT  POTENTIAL + KINETIC  =   TOTAL     ERROR    REF%   MOVEMENT
     0.000       1   -25.54240    3.15559   -22.38681   0.00000     1   %  0.0000
     0.500       5   -25.50877    3.12205   -22.38673   0.00009     2   %  0.0357
     1.000       5   -25.40894    3.02224   -22.38669   0.00012     3   %  0.0710
     1.500      12   -25.24790    2.86117   -22.38673   0.00009     4   %  0.1055
     2.000      14   -25.03132    2.64457   -22.38675   0.00007     5   %  0.1389
     2.500      17   -24.76864    2.38185   -22.38679   0.00003     6   %  0.1708
     3.000      19   -24.47095    2.08411   -22.38684  -0.00002     7   %  0.2009
     3.500      21   -24.15131    1.76440   -22.38691  -0.00009     8   %  0.2288
     4.000      22   -23.82369    1.43670   -22.38699  -0.00017     9   %  0.2542
     4.500      24   -23.50243    1.11536   -22.38707  -0.00025    10   %  0.2769
     5.000      25   -23.20230    0.81516   -22.38714  -0.00032    11   %  0.2965
     5.500      27   -22.93566    0.54846   -22.38719  -0.00037    12   %  0.3130
     6.000      28   -22.71474    0.32752   -22.38721  -0.00039    13   %  0.3260
     6.500      29   -22.54852    0.16130   -22.38721  -0.00039    14   %  0.3356
     7.000      31   -22.44347    0.05626   -22.38721  -0.00039    15   %  0.3415
     7.500      32   -22.40357    0.01663   -22.38693  -0.00011    16   %  0.3437
     8.000      33   -22.43014    0.04336   -22.38678   0.00004    17   %  0.3423
     8.500      34   -22.52142    0.13467   -22.38675   0.00007    18   %  0.3372
     9.000      35   -22.67285    0.28703   -22.38583   0.00099    19   %  0.3284
     9.500      36   -22.87845    0.49166   -22.38679   0.00003    20   %  0.3162
    10.000      36   -23.12997    0.74451   -22.38545   0.00137    21   %  0.3006
    10.500      37   -23.41778    1.03239   -22.38539   0.00143    22   %  0.2818
    11.000      38   -23.72886    1.34297   -22.38589   0.00093    23   %  0.2599
    11.500      39   -24.05130    1.66542   -22.38588   0.00094    24   %  0.2353
    12.000      41   -24.37130    1.98518   -22.38612   0.00070    25   %  0.2082
    12.500      42   -24.67419    2.28799   -22.38621   0.00062    26   %  0.1788
    13.000      44   -24.94638    2.56006   -22.38632   0.00050    27   %  0.1476
    13.500      45   -25.17506    2.78860   -22.38646   0.00036    28   %  0.1148
    14.000      47   -25.34971    2.96313   -22.38659   0.00024    29   %  0.0809
    14.500      49   -25.46227    3.07557   -22.38670   0.00013    30   %  0.0462
    15.000      51   -25.50816    3.12135   -22.38681   0.00002    31   %  0.0220
    15.500      53   -25.48635    3.09944   -22.38691  -0.00008    32   %  0.0302
    16.000      55   -25.39930    3.01230   -22.38701  -0.00018    33   %  0.0616
    16.500      56   -25.25241    2.86531   -22.38709  -0.00026    34   %  0.0954
    17.000      58   -25.05359    2.66642   -22.38717  -0.00034    35   %  0.1284
    17.500      60   -24.81267    2.42546   -22.38722  -0.00038    36   %  0.1600
    18.000      61   -24.54012    2.15289   -22.38723  -0.00039    37   %  0.1899
    18.500      63   -24.24697    1.85979   -22.38718  -0.00035    38   %  0.2178
    19.000      64   -23.94422    1.55711   -22.38711  -0.00028    39   %  0.2434
    19.500      65   -23.64277    1.25571   -22.38706  -0.00023    40   %  0.2664
    20.000      67   -23.35238    0.96531   -22.38707  -0.00023    41   %  0.2866
    20.500      68   -23.08410    0.69691   -22.38719  -0.00035    42   %  0.3039
    21.000      69   -22.84801    0.46061   -22.38740  -0.00057    43   %  0.3180
    21.500      70   -22.65407    0.26640   -22.38767  -0.00083    44   %  0.3287
    22.000      71   -22.51175    0.12379   -22.38796  -0.00112    45   %  0.3360
    22.500      72   -22.42950    0.04124   -22.38827  -0.00143    46   %  0.3397
    23.000      73   -22.41393    0.02645   -22.38747  -0.00063    47   %  0.3398
    23.500      74   -22.46977    0.08403   -22.38574   0.00110    48   %  0.3362
    24.000      75   -22.59734    0.21008   -22.38726  -0.00043    49   %  0.3288
    24.500      76   -22.79069    0.40518   -22.38551   0.00133    50   %  0.3179
    25.000      77   -23.04008    0.65676   -22.38331   0.00352    51   %  0.3035
    25.500      77   -23.33332    0.94972   -22.38359   0.00324    52   %  0.2858
    26.000      79   -23.65531    1.26978   -22.38553   0.00131    53   %  0.2650
    26.500      80   -23.98662    1.60099   -22.38563   0.00121    54   %  0.2415
    27.000      82   -24.31060    1.92471   -22.38589   0.00094    55   %  0.2155
    27.500      83   -24.61106    2.22500   -22.38606   0.00078    56   %  0.1873
    28.000      85   -24.87524    2.48906   -22.38619   0.00065    57   %  0.1574
    28.500      87   -25.09316    2.70687   -22.38630   0.00054    58   %  0.1263
    29.000      89   -25.25868    2.87228   -22.38640   0.00044    59   %  0.0945
    29.500      91   -25.36880    2.98230   -22.38650   0.00034    60   %  0.0631
    30.000      92   -25.42295    3.03636   -22.38659   0.00025    61   %  0.0369


           INITIAL VELOCITY IN DRC (Angstroms/Femtosecond)
         0.00000         0.04854         0.00000
         0.00000        -0.09586        -0.00000
        -0.38528         0.18593         0.00000
         0.38528         0.18593         0.00000
 BY DEFAULT, ONE QUANTUM OF ENERGY, EQUIVALENT TO  1103.928 CM(-1)
 WILL BE USED TO START THE DRC
 THIS REPRESENTS AN ENERGY OF   3.16 KCALS/MOLE

 TIME PRIORITY, INTERVAL = 0.50 FEMTOSECONDS



 FEMTOSECONDS  POINT  POTENTIAL + KINETIC  =   TOTAL     ERROR    REF%   MOVEMENT
     0.000       1   -25.54242    3.15559   -22.38683   0.00000     1   %  0.0000
     0.500       5   -25.50878    3.12189   -22.38689  -0.00006     2   %  0.0357
     1.000       5   -25.40895    3.02206   -22.38688  -0.00006     3   %  0.0710
     1.500      12   -25.24793    2.86099   -22.38694  -0.00011     4   %  0.1055
     2.000      14   -25.03137    2.64439   -22.38698  -0.00015     5   %  0.1389
     2.500      17   -24.76871    2.38167   -22.38704  -0.00020     6   %  0.1708
     3.000      19   -24.47106    2.08396   -22.38710  -0.00027     7   %  0.2009
     3.500      21   -24.15146    1.76428   -22.38718  -0.00035     8   %  0.2287
     4.000      22   -23.82388    1.43662   -22.38727  -0.00043     9   %  0.2542
     4.500      24   -23.50266    1.11532   -22.38735  -0.00051    10   %  0.2768
     5.000      25   -23.20258    0.81516   -22.38741  -0.00058    11   %  0.2965
     5.500      27   -22.93597    0.54851   -22.38745  -0.00062    12   %  0.3129
     6.000      28   -22.71507    0.32760   -22.38747  -0.00063    13   %  0.3260
     6.500      29   -22.54886    0.16140   -22.38745  -0.00062    14   %  0.3355
     7.000      31   -22.44380    0.05635   -22.38745  -0.00061    15   %  0.3414
     7.500      32   -22.40384    0.01681   -22.38703  -0.00020    16   %  0.3437
     8.000      33   -22.43048    0.04368   -22.38679   0.00004    17   %  0.3422
     8.500      34   -22.52192    0.13512   -22.38679   0.00004    18   %  0.3371
     9.000      35   -22.67342    0.28792   -22.38551   0.00133    19   %  0.3283
     9.500      36   -22.87924    0.49229   -22.38695  -0.00012    20   %  0.3161
    10.000      36   -23.13080    0.74570   -22.38510   0.00174    21   %  0.3004
    10.500      37   -23.41875    1.03358   -22.38517   0.00167    22   %  0.2816
    11.000      38   -23.72991    1.34425   -22.38565   0.00118    23   %  0.2597
    11.500      39   -24.05239    1.66681   -22.38558   0.00125    24   %  0.2351
    12.000      41   -24.37242    1.98658   -22.38584   0.00099    25   %  0.2080
    12.500      42   -24.67526    2.28933   -22.38593   0.00091    26   %  0.1786
    13.000      44   -24.94735    2.56132   -22.38603   0.00081    27   %  0.1473
    13.500      45   -25.17584    2.78968   -22.38617   0.00067    28   %  0.1145
    14.000      47   -25.35025    2.96396   -22.38629   0.00055    29   %  0.0806
    14.500      49   -25.46251    3.07610   -22.38641   0.00043    30   %  0.0458
    15.000      51   -25.50805    3.12154   -22.38652   0.00032    31   %  0.0220
    15.500      53   -25.48589    3.09927   -22.38662   0.00022    32   %  0.0305
    16.000      55   -25.39851    3.01180   -22.38671   0.00013    33   %  0.0620
    16.500      56   -25.25133    2.86453   -22.38679   0.00005    34   %  0.0958
    17.000      58   -25.05228    2.66542   -22.38686  -0.00002    35   %  0.1288
    17.500      60   -24.81123    2.42432   -22.38691  -0.00006    36   %  0.1604
    18.000      61   -24.53861    2.15170   -22.38691  -0.00006    37   %  0.1903
    18.500      63   -24.24547    1.85859   -22.38687  -0.00002    38   %  0.2182
    19.000      64   -23.94277    1.55597   -22.38680   0.00005    39   %  0.2438
    19.500      66   -23.64143    1.25467   -22.38676   0.00009    40   %  0.2668
    20.000      67   -23.35115    0.96437   -22.38678   0.00007    41   %  0.2871
    20.500      68   -23.08300    0.69609   -22.38691  -0.00006    42   %  0.3043
    21.000      69   -22.84706    0.45992   -22.38714  -0.00029    43   %  0.3184
    21.500      70   -22.65326    0.26583   -22.38743  -0.00058    44   %  0.3291
    22.000      71   -22.51111    0.12338   -22.38773  -0.00088    45   %  0.3364
    22.500      72   -22.42906    0.04101   -22.38805  -0.00120    46   %  0.3401
    23.000      73   -22.41372    0.02624   -22.38747  -0.00062    47   %  0.3402
    23.500      74   -22.46965    0.08391   -22.38574   0.00112    48   %  0.3366
    24.000      75   -22.59732    0.20988   -22.38743  -0.00058    49   %  0.3293
    24.500      76   -22.79071    0.40512   -22.38559   0.00126    50   %  0.3184
    25.000      77   -23.04016    0.65663   -22.38353   0.00332    51   %  0.3040
    25.500      77   -23.33323    0.94925   -22.38398   0.00287    52   %  0.2864
    26.000      79   -23.65517    1.26944   -22.38573   0.00112    53   %  0.2656
    26.500      80   -23.98631    1.60044   -22.38587   0.00098    54   %  0.2421
    27.000      82   -24.31016    1.92401   -22.38615   0.00070    55   %  0.2161
    27.500      84   -24.61048    2.22416   -22.38632   0.00053    56   %  0.1880
    28.000      85   -24.87459    2.48813   -22.38646   0.00039    57   %  0.1582
    28.500      87   -25.09253    2.70594   -22.38659   0.00027    58   %  0.1270
    29.000      89   -25.25815    2.87144   -22.38670   0.00015    59   %  0.0952
    29.500      91   -25.36846    2.98164   -22.38682   0.00004    60   %  0.0639
    30.000      92   -25.42289    3.03596   -22.38692  -0.00007    61   %  0.0372



 **********************
 *                    *
 * JOB ENDED NORMALLY *
 *                    *
 **********************



 TOTAL JOB TIME:             0.39 SECONDS

 == MOPAC DONE ==
