 *******************************************************************************
 ** Site#: 10005        For non-commercial use only    Version 17.037W 64BITS **
 *******************************************************************************
 ** Cite this program as: MOPAC2016, Version: 17.037W, James J. P. Stewart,   **
 ** Stewart Computational Chemistry, web: HTTP://OpenMOPAC.net. Days left: 361**
 *******************************************************************************
 **                                                                           **
 **                                MOPAC2016                                  **
 **                                                                           **
 *******************************************************************************

                              PM7 CALCULATION RESULTS


 *******************************************************************************
 *  CALCULATION DONE:                                Fri Feb 10 09:49:54 2017  *
 *  START_RES- STARTING RESIDUE NUMBERS DEFINED
 *  Keyword:   START_RES=(1E 16F 150G 250C 297G 298F 299G 300F) 
 *  CHAIN      - PDB CHAIN LETTERS EXPLICITLY DEFINED
 *  Keyword:   CHAINS=(EFGCGFGFEFGC) 
 *  MOZYME     - USE LOCALIZED M.O.s IN SOLVING THE SCF EQUATIONS
 *
 *
 *
 *                 CHARGE ON SYSTEM =    -1
 *
 *
 *
 *  EPS= 78.40 - USE ANDREAS KLAMT'S COSMO IMPLICIT SOLVATION MODEL
 *  1SCF       - DO 1 SCF AND THEN STOP 
 *  T=         - A TIME OF      2.0 WEEKS   REQUESTED
 *  DUMP=N     - RESTART FILE WRITTEN EVERY  7200.000 SECONDS
 *  GNORM=     - EXIT WHEN GRADIENT NORM DROPS BELOW  1.000    
 *  OUTPUT     - MINIMIZE OUTPUT
 *  ALLBONDS   - ALL SIGNIFICANT BOND-ORDERS TO BE PRINTED
 *  HTML       - WRITE HTML SCRIPT TO READ PDB FILE USING JSMOL
 *******************************************************************************
output START_RES=(1E 16F 150G 250C 297G 298F 299G 300F)  CHAINS=(EFGCGFGFEFGC) T=2W  mozyme EPS=78.4 GNORM=1 html  charge=-1 1SCF ALLbonds
 Chymotrypsin Mechanism, Step 4
 Peptide bond between Trp 252 and Thr 253 breaks.
 

 General Reference for PM7:
 "Optimization of Parameters for Semiempirical Methods VI: More Modifications to the 
 NDDO Approximations and Re-optimization of Parameters", J. J. P. Stewart, J. Mol. Mod., 1:32, 19 (2013)
 http://www.springerlink.com/openurl.asp?genre=article&id=doi:10.1007/s00894-012-1667-x

           Empirical Formula: C1115 H2449 N302 O704 S16  =  4586 atoms


   Ion Atom No.           Label               Charge
 
    1   N  144   (ATOM    144  N   SER E  11)   +1  (2.5 Angstroms from anion  O  214, Label: ATOM    215  OE2 GLU F  20)
    2   N  148   (ATOM    149  N   ILE F  16)   +1  (2.6 Angstroms from anion  O 2727, Label: ATOM   2729  OD2 ASP G 194)
    3   C 2141   (ATOM   2143  CZ  ARG G 154)   +1  (4.4 Angstroms from anion  O  229, Label: ATOM    230  OE2 GLU F  21)
 
    1   O  214   (ATOM    215  OE2 GLU F  20)   -1  (2.5 Angstroms from cation  N  144, Label: ATOM    144  N   SER E  11)
    2   O  229   (ATOM    230  OE2 GLU F  21)   -1  (4.4 Angstroms from cation  C 2141, Label: ATOM   2143  CZ  ARG G 154)
    3   O 1445   (ATOM   1446  OD2 ASP F 102)   -1
    4   O 2727   (ATOM   2729  OD2 ASP G 194)   -1  (2.6 Angstroms from cation  N  148, Label: ATOM    149  N   ILE F  16)

          COMPUTED CHARGE ON SYSTEM: -1

 -------------------------------------------------------------------------------
output START_RES=(1E 16F 150G 250C 297G 298F 299G 300F)  CHAINS=(EFGCGFGFEFGC) T=2W  mozyme EPS=78.4 GNORM=1 html  charge=-1 1SCF ALLbonds
 Chymotrypsin Mechanism, Step 4
 Peptide bond between Trp 252 and Thr 253 breaks.


     1SCF WAS SPECIFIED, SO BFGS WAS NOT USED                 
     SCF FIELD WAS ACHIEVED                                   


                              PM7 CALCULATION
                                                       MOPAC2016 (Version: 17.037W)
                                                       Fri Feb 10 10:17:14 2017
                                                       No. of days remaining = 361




          FINAL HEAT OF FORMATION =     -47895.48384 KCAL/MOL = -200394.70437 KJ/MOL
          VAN DER WAALS AREA      =       7507.87 SQUARE ANGSTROMS


          TOTAL ENERGY            =    -437388.72713 EV
          ELECTRONIC ENERGY       =  -66831423.36926 EV
          CORE-CORE REPULSION     =   66391603.16191 EV
          DIELECTRIC ENERGY       =        -58.67456 EV
          COSMO AREA              =       7507.87 SQUARE ANGSTROMS
          COSMO VOLUME            =      35559.18 CUBIC ANGSTROMS

          NO. OF FILLED LEVELS    =       6370
          MOLECULAR WEIGHT        =      31867.1731

          MOLECULAR DIMENSIONS (Angstroms)

            Atom       Atom       Distance
            O  4293    O  3780    53.87283
            O  4557    O  3527    48.19511
            H  4141    H  4256    47.01205


          SCF CALCULATIONS        =          1
 
          WALL-CLOCK TIME         = 27 MINUTES AND 19.914 SECONDS
          COMPUTATION TIME        = 24 MINUTES AND 18.765 SECONDS





           Empirical Formula: C1115 H2449 N302 O704 S16  =  4586 atoms


          NET CHARGE ON RESIDUES

      Residue         Charge  Anion or
                              Cation?
      CYS E   1       +0.102
      GLY E   2       -0.084
      VAL E   3       +0.018
      PRO E   4       +0.071
      ALA E   5       -0.010
      ILE E   6       +0.069
      GLN E   7       +0.031
      PRO E   8       +0.011
      VAL E   9       +0.035
      LEU E  10       +0.255
      SER E  11       +0.609  CATION
      ILE F  16       +0.838  CATION
      VAL F  17       +0.025
      ASN F  18       +0.071
      GLY F  19       +0.017
      GLU F  20       -0.791  ANION
      GLU F  21       -0.862  ANION
      ALA F  22       +0.055
      VAL F  23       +0.008
      PRO F  24       +0.044
      GLY F  25       -0.017
      SER F  26       +0.054
      TRP F  27       -0.063
      PRO F  28       +0.059
      TRP F  29       +0.017
      GLN F  30       -0.022
      VAL F  31       +0.033
      SER F  32       +0.015
      LEU F  33       -0.018
      GLN F  34       +0.036
      ASP F  35       -0.050
      LYS F  36       +0.073
      THR F  37       +0.013
      GLY F  38       +0.035
      PHE F  39       -0.004
      HIS F  40       +0.019
      PHE F  41       +0.023
      CYS F  42       -0.003
      GLY F  43       +0.076
      GLY F  44       -0.024
      SER F  45       -0.078
      LEU F  46       +0.043
      ILE F  47       -0.020
      ASN F  48       +0.014
      GLU F  49       +0.059
      ASN F  50       -0.036
      TRP F  51       +0.022
      VAL F  52       +0.000
      VAL F  53       -0.036
      THR F  54       +0.030
      ALA F  55       +0.006
      ALA F  56       -0.041
      HIS F  57       +0.079
      CYS F  58       -0.081
      GLY F  59       +0.040
      VAL F  60       +0.059
      THR F  61       -0.009
      THR F  62       -0.048
      SER F  63       +0.047
      ASP F  64       -0.082
      VAL F  65       +0.047
      VAL F  66       +0.009
      VAL F  67       +0.004
      ALA F  68       +0.015
      GLY F  69       -0.042
      GLU F  70       +0.097
      PHE F  71       +0.033
      ASP F  72       -0.102
      GLN F  73       -0.011
      GLY F  74       +0.090
      SER F  75       -0.036
      SER F  76       +0.064
      SER F  77       -0.043
      GLU F  78       -0.060
      LYS F  79       +0.137
      ILE F  80       +0.075
      GLN F  81       -0.034
      LYS F  82       -0.039
      LEU F  83       +0.080
      LYS F  84       +0.114
      ILE F  85       +0.035
      ALA F  86       -0.025
      LYS F  87       +0.024
      VAL F  88       -0.025
      PHE F  89       -0.013
      LYS F  90       +0.097
      ASN F  91       -0.034
      SER F  92       +0.028
      LYS F  93       -0.010
      TYR F  94       -0.012
      ASN F  95       +0.024
      SER F  96       +0.007
      LEU F  97       +0.087
      THR F  98       -0.072
      ILE F  99       +0.124
      ASN F 100       -0.073
      ASN F 101       -0.018
      ASP F 102       -0.812  ANION
      ILE F 103       -0.026
      THR F 104       -0.036
      LEU F 105       +0.024
      LEU F 106       -0.005
      LYS F 107       +0.000
      LEU F 108       +0.070
      SER F 109       -0.049
      THR F 110       -0.006
      ALA F 111       +0.021
      ALA F 112       +0.033
      SER F 113       -0.055
      PHE F 114       +0.117
      SER F 115       -0.019
      GLN F 116       +0.028
      THR F 117       -0.032
      VAL F 118       +0.004
      SER F 119       +0.062
      ALA F 120       -0.037
      VAL F 121       +0.050
      CYS F 122       -0.050
      LEU F 123       +0.011
      PRO F 124       +0.068
      SER F 125       -0.050
      ALA F 126       +0.061
      SER F 127       +0.039
      ASP F 128       -0.159
      ASP F 129       +0.067
      PHE F 130       -0.011
      ALA F 131       -0.004
      ALA F 132       +0.072
      GLY F 133       +0.029
      THR F 134       +0.026
      THR F 135       -0.061
      CYS F 136       +0.034
      VAL F 137       +0.008
      THR F 138       -0.033
      THR F 139       +0.041
      GLY F 140       +0.008
      TRP F 141       +0.050
      GLY F 142       -0.054
      LEU F 143       +0.070
      THR F 144       -0.039
      ARG F 145       +0.079
      TYR F 146       +0.005
      ASN G 150       -0.017
      THR G 151       -0.040
      PRO G 152       +0.162
      ASP G 153       -0.081
      ARG G 154       +1.013  CATION
      LEU G 155       +0.049
      GLN G 156       +0.037
      GLN G 157       +0.021
      ALA G 158       -0.026
      SER G 159       -0.012
      LEU G 160       +0.042
      PRO G 161       +0.043
      LEU G 162       +0.013
      LEU G 163       -0.001
      SER G 164       +0.041
      ASN G 165       -0.015
      THR G 166       +0.004
      ASN G 167       +0.101
      CYS G 168       -0.125
      LYS G 169       +0.091
      LYS G 170       +0.107
      TYR G 171       -0.002
      TRP G 172       -0.007
      GLY G 173       +0.037
      THR G 174       -0.013
      LYS G 175       +0.064
      ILE G 176       +0.005
      LYS G 177       +0.082
      ASP G 178       +0.008
      ALA G 179       +0.000
      MET G 180       +0.050
      ILE G 181       +0.012
      CYS G 182       +0.001
      ALA G 183       -0.025
      GLY G 184       +0.087
      ALA G 185       -0.020
      SER G 186       -0.005
      GLY G 187       +0.008
      VAL G 188       +0.037
      SER G 189       -0.086
      SER G 190       +0.039
      CYS G 191       -0.056
      MET G 192       -0.023
      GLY G 193       +0.118
      ASP G 194       -0.916  ANION
      SER G 195       -0.091
      GLY G 196       -0.001
      GLY G 197       -0.014
      PRO G 198       +0.076
      LEU G 199       -0.040
      VAL G 200       +0.016
      CYS G 201       -0.054
      LYS G 202       +0.139
      LYS G 203       +0.029
      ASN G 204       +0.019
      GLY G 205       +0.031
      ALA G 206       -0.027
      TRP G 207       +0.026
      THR G 208       -0.021
      LEU G 209       +0.012
      VAL G 210       -0.016
      GLY G 211       +0.020
      ILE G 212       -0.015
      VAL G 213       +0.013
      SER G 214       -0.030
      TRP G 215       +0.032
      GLY G 216       +0.020
      SER G 217       -0.057
      SER G 218       +0.068
      THR G 219       +0.027
      CYS G 220       +0.028
      SER G 221       -0.018
      THR G 222       +0.007
      SER G 223       +0.016
      THR G 224       +0.043
      PRO G 225       -0.035
      GLY G 226       -0.040
      VAL G 227       +0.021
      TYR G 228       +0.022
      ALA G 229       -0.017
      ARG G 230       +0.019
      VAL G 231       -0.040
      THR G 232       +0.024
      ALA G 233       +0.002
      LEU G 234       +0.037
      VAL G 235       +0.017
      ASN G 236       +0.008
      TRP G 237       +0.029
      VAL G 238       +0.030
      GLN G 239       +0.002
      GLN G 240       +0.091
      THR G 241       -0.047
      LEU G 242       +0.024
      ALA G 243       +0.054
      ALA G 244       +0.031
      ASN G 245       -0.030
      GLY C 250       +0.010
      ALA C 251       +0.115
      TRP C 252       +0.050
      THR C 253       -0.032
      LEU C 254       +0.039
      SO4 G 297       -0.110
      SO4 F 298       -0.018
      SO4 G 299       -0.264
      SO4 F 300       -0.026
      HOH G 637       +0.136
 


                   Salt Bridges Found

     No.          Cationic site                            Anionic site                Dist. (Angstroms)

      1  (ATOM    144  N   SER E  11)   E11(+)    (ATOM    215  OE2 GLU F  20)   F20(-)      2.49
      2  (ATOM   2144  NH1 ARG G 154)  G154(+)    (ATOM    229  OE1 GLU F  21)   F21(-)      2.56
      3  (ATOM    149  N   ILE F  16)   F16(+)    (ATOM   2729  OD2 ASP G 194)  G194(-)      2.62


 DIPOLE           X         Y         Z       TOTAL
 POINT-CHG.   189.620   160.216   318.337   403.687
 HYBRID        27.087    23.954    37.443    52.053
 SUM          216.707   184.170   355.780   455.477

                          BOND ORDERS BETWEEN ATOMS (VALENCIES)

     1  N(ATOM      1  N   CYS E   1)     (3.073) C(ATOM      2  CA  CYS E   1) 0.986
                                                  H(ATOM      7 1H   CYS E   1) 0.900
                                                  H(ATOM      8 2H   CYS E   1) 0.897
                                                  H(HETATM 3561 2H   HOH E 315) 0.087
                                                  O(HETATM 3559  O   HOH E 315) 0.030
                                                  C(ATOM      5  CB  CYS E   1) 0.017
                                                  H(ATOM      9 1HB  CYS E   1) 0.005
                                                  N(ATOM     12  N   GLY E   2) 0.004
                                                  C(ATOM      3  C   CYS E   1) 0.004
                                                  O(ATOM      4  O   CYS E   1) 0.002
                                                  H(HETATM 3560 1H   HOH E 315) 0.001
                                                  H(ATOM     11  HA  CYS E   1) 0.001
                                                  H(ATOM     10 2HB  CYS E   1) 0.001
                                                  C(ATOM     13  CA  GLY E   2) 0.001
 
     2  C(ATOM      2  CA  CYS E   1)     (3.958) N(ATOM      1  N   CYS E   1) 0.986
                                                  C(ATOM      5  CB  CYS E   1) 0.980
                                                  H(ATOM     11  HA  CYS E   1) 0.933
                                                  C(ATOM      3  C   CYS E   1) 0.928
                                                  O(ATOM      4  O   CYS E   1) 0.050
                                                  N(ATOM     12  N   GLY E   2) 0.018
                                                  C(ATOM     13  CA  GLY E   2) 0.017
                                                  S(ATOM      6  SG  CYS E   1) 0.009
                                                  H(ATOM      8 2H   CYS E   1) 0.005
                                                  H(ATOM      7 1H   CYS E   1) 0.005
                                                  C(ATOM   1710  CB  ALA F 120) 0.004
                                                  O(HETATM 3559  O   HOH E 315) 0.003
                                                  S(ATOM   1737  SG  CYS F 122) 0.001
 
     3  C(ATOM      3  C   CYS E   1)     (3.818) O(ATOM      4  O   CYS E   1) 1.659
                                                  N(ATOM     12  N   GLY E   2) 1.140
                                                  C(ATOM      2  CA  CYS E   1) 0.928
                                                  C(ATOM     13  CA  GLY E   2) 0.017
                                                  H(ATOM     18  H   GLY E   2) 0.011
                                                  H(ATOM      7 1H   CYS E   1) 0.007
                                                  C(ATOM      5  CB  CYS E   1) 0.007
                                                  H(ATOM     17 2HA  GLY E   2) 0.006
                                                  C(ATOM     14  C   GLY E   2) 0.006
                                                  H(ATOM     10 2HB  CYS E   1) 0.004
                                                  N(ATOM      1  N   CYS E   1) 0.004
                                                  H(ATOM     11  HA  CYS E   1) 0.004
                                                  S(ATOM      6  SG  CYS E   1) 0.003
                                                  H(ATOM     16 1HA  GLY E   2) 0.002
                                                  O(ATOM     15  O   GLY E   2) 0.001
                                                  H(ATOM     32  H   VAL E   3) 0.001
 
     4  O(ATOM      4  O   CYS E   1)     (2.030) C(ATOM      3  C   CYS E   1) 1.659
                                                  N(ATOM     12  N   GLY E   2) 0.152
                                                  C(ATOM      2  CA  CYS E   1) 0.050
                                                  H(ATOM     18  H   GLY E   2) 0.016
                                                  C(ATOM     13  CA  GLY E   2) 0.009
                                                  C(ATOM      5  CB  CYS E   1) 0.007
                                                  H(ATOM     11  HA  CYS E   1) 0.005
                                                  H(ATOM     32  H   VAL E   3) 0.004
                                                  C(ATOM     14  C   GLY E   2) 0.003
                                                  N(ATOM      1  N   CYS E   1) 0.002
                                                  H(ATOM     16 1HA  GLY E   2) 0.002
                                                  N(ATOM     19  N   VAL E   3) 0.002
                                                  H(ATOM      8 2H   CYS E   1) 0.001
 
     5  C(ATOM      5  CB  CYS E   1)     (3.932) S(ATOM      6  SG  CYS E   1) 0.985
                                                  C(ATOM      2  CA  CYS E   1) 0.980
                                                  H(ATOM      9 1HB  CYS E   1) 0.948
                                                  H(ATOM     10 2HB  CYS E   1) 0.926
                                                  S(ATOM   1737  SG  CYS F 122) 0.038
                                                  N(ATOM      1  N   CYS E   1) 0.017
                                                  O(ATOM      4  O   CYS E   1) 0.007
                                                  C(ATOM      3  C   CYS E   1) 0.007
                                                  N(ATOM     12  N   GLY E   2) 0.004
                                                  C(ATOM   1733  CA  CYS F 122) 0.003
                                                  H(ATOM      7 1H   CYS E   1) 0.001
                                                  O(HETATM 3571  O   HOH E 463) 0.001
 
     6  S(ATOM      6  SG  CYS E   1)     (2.293) S(ATOM   1737  SG  CYS F 122) 1.258
                                                  C(ATOM      5  CB  CYS E   1) 0.985
                                                  C(ATOM   1736  CB  CYS F 122) 0.038
                                                  C(ATOM      2  CA  CYS E   1) 0.009
                                                  H(ATOM     10 2HB  CYS E   1) 0.007
                                                  H(ATOM     11  HA  CYS E   1) 0.006
                                                  H(ATOM   1738 1HB  CYS F 122) 0.006
                                                  H(ATOM      9 1HB  CYS E   1) 0.004
                                                  C(ATOM   1733  CA  CYS F 122) 0.003
                                                  C(ATOM      3  C   CYS E   1) 0.003
                                                  H(ATOM   1741  HA  CYS F 122) 0.001
 
     7  H(ATOM      7 1H   CYS E   1)     (0.920) N(ATOM      1  N   CYS E   1) 0.900
                                                  C(ATOM      3  C   CYS E   1) 0.007
                                                  C(ATOM      2  CA  CYS E   1) 0.005
                                                  H(ATOM      8 2H   CYS E   1) 0.002
                                                  O(HETATM 3559  O   HOH E 315) 0.001
                                                  C(ATOM      5  CB  CYS E   1) 0.001
 
     8  H(ATOM      8 2H   CYS E   1)     (0.914) N(ATOM      1  N   CYS E   1) 0.897
                                                  H(ATOM     11  HA  CYS E   1) 0.006
                                                  C(ATOM      2  CA  CYS E   1) 0.005
                                                  H(ATOM      7 1H   CYS E   1) 0.002
                                                  O(ATOM      4  O   CYS E   1) 0.001
 
     9  H(ATOM      9 1HB  CYS E   1)     (0.969) C(ATOM      5  CB  CYS E   1) 0.948
                                                  N(ATOM      1  N   CYS E   1) 0.005
                                                  S(ATOM      6  SG  CYS E   1) 0.004
                                                  H(ATOM     10 2HB  CYS E   1) 0.004
                                                  H(ATOM   1741  HA  CYS F 122) 0.002
                                                  S(ATOM   1737  SG  CYS F 122) 0.002
 
    10  H(ATOM     10 2HB  CYS E   1)     (0.953) C(ATOM      5  CB  CYS E   1) 0.926
                                                  S(ATOM      6  SG  CYS E   1) 0.007
                                                  S(ATOM   1737  SG  CYS F 122) 0.005
                                                  C(ATOM      3  C   CYS E   1) 0.004
                                                  H(ATOM      9 1HB  CYS E   1) 0.004
                                                  O(HETATM 3571  O   HOH E 463) 0.001
                                                  O(HETATM 4021  O   HOH F 515) 0.001
                                                  N(ATOM      1  N   CYS E   1) 0.001
 
    11  H(ATOM     11  HA  CYS E   1)     (0.965) C(ATOM      2  CA  CYS E   1) 0.933
                                                  H(ATOM      8 2H   CYS E   1) 0.006
                                                  S(ATOM      6  SG  CYS E   1) 0.006
                                                  O(ATOM      4  O   CYS E   1) 0.005
                                                  H(ATOM   1712 2HB  ALA F 120) 0.004
                                                  C(ATOM      3  C   CYS E   1) 0.004
                                                  N(ATOM      1  N   CYS E   1) 0.001
                                                  O(ATOM   1709  O   ALA F 120) 0.001
                                                  N(ATOM     12  N   GLY E   2) 0.001
 
    12  N(ATOM     12  N   GLY E   2)     (3.188) C(ATOM      3  C   CYS E   1) 1.140
                                                  C(ATOM     13  CA  GLY E   2) 0.937
                                                  H(ATOM     18  H   GLY E   2) 0.823
                                                  O(ATOM      4  O   CYS E   1) 0.152
                                                  C(ATOM      2  CA  CYS E   1) 0.018
                                                  C(ATOM     14  C   GLY E   2) 0.014
                                                  O(ATOM     15  O   GLY E   2) 0.006
                                                  N(ATOM      1  N   CYS E   1) 0.004
                                                  O(ATOM   1709  O   ALA F 120) 0.004
                                                  C(ATOM      5  CB  CYS E   1) 0.004
                                                  C(ATOM   1708  C   ALA F 120) 0.002
                                                  H(ATOM     16 1HA  GLY E   2) 0.002
                                                  N(ATOM     19  N   VAL E   3) 0.002
                                                  H(ATOM     11  HA  CYS E   1) 0.001
 
    13  C(ATOM     13  CA  GLY E   2)     (3.925) C(ATOM     14  C   GLY E   2) 0.939
                                                  N(ATOM     12  N   GLY E   2) 0.937
                                                  H(ATOM     17 2HA  GLY E   2) 0.936
                                                  H(ATOM     16 1HA  GLY E   2) 0.927
                                                  O(ATOM     15  O   GLY E   2) 0.042
                                                  C(ATOM     20  CA  VAL E   3) 0.017
                                                  N(ATOM     19  N   VAL E   3) 0.017
                                                  C(ATOM      2  CA  CYS E   1) 0.017
                                                  C(ATOM      3  C   CYS E   1) 0.017
                                                  H(ATOM     18  H   GLY E   2) 0.011
                                                  O(ATOM      4  O   CYS E   1) 0.009
                                                  C(ATOM   2884  CB  ALA G 206) 0.005
                                                  O(ATOM   2893  O   TRP G 207) 0.001
                                                  N(ATOM      1  N   CYS E   1) 0.001
 
    14  C(ATOM     14  C   GLY E   2)     (3.809) O(ATOM     15  O   GLY E   2) 1.502
                                                  N(ATOM     19  N   VAL E   3) 1.261
                                                  C(ATOM     13  CA  GLY E   2) 0.939
                                                  C(ATOM     20  CA  VAL E   3) 0.015
                                                  N(ATOM     12  N   GLY E   2) 0.014
                                                  H(ATOM     32  H   VAL E   3) 0.012
                                                  C(ATOM     21  C   VAL E   3) 0.008
                                                  C(ATOM     23  CB  VAL E   3) 0.008
                                                  H(ATOM     16 1HA  GLY E   2) 0.007
                                                  C(ATOM      3  C   CYS E   1) 0.006
                                                  O(ATOM      4  O   CYS E   1) 0.003
                                                  H(ATOM     17 2HA  GLY E   2) 0.003
                                                  N(ATOM   2890  N   TRP G 207) 0.002
                                                  H(ATOM     18  H   GLY E   2) 0.002
                                                  C(ATOM     24  CG1 VAL E   3) 0.001
                                                  O(ATOM     22  O   VAL E   3) 0.001
                                                  N(ATOM     35  N   PRO E   4) 0.001
                                                  H(ATOM     33  HA  VAL E   3) 0.001
 
    15  O(ATOM     15  O   GLY E   2)     (1.885) C(ATOM     14  C   GLY E   2) 1.502
                                                  N(ATOM     19  N   VAL E   3) 0.147
                                                  C(ATOM     13  CA  GLY E   2) 0.042
                                                  H(ATOM   2906  H   TRP G 207) 0.035
                                                  H(ATOM     32  H   VAL E   3) 0.014
                                                  N(ATOM   2890  N   TRP G 207) 0.012
                                                  C(ATOM     20  CA  VAL E   3) 0.007
                                                  N(ATOM     12  N   GLY E   2) 0.006
                                                  H(ATOM     16 1HA  GLY E   2) 0.005
                                                  H(ATOM     43 2HD  PRO E   4) 0.003
                                                  C(ATOM     21  C   VAL E   3) 0.003
                                                  H(ATOM     33  HA  VAL E   3) 0.002
                                                  C(ATOM     41  CD  PRO E   4) 0.002
                                                  H(ATOM   2908  HD1 TRP G 207) 0.002
                                                  C(ATOM   2882  C   ALA G 206) 0.001
                                                  C(ATOM     23  CB  VAL E   3) 0.001
                                                  C(ATOM   2891  CA  TRP G 207) 0.001
                                                  H(ATOM     17 2HA  GLY E   2) 0.001
                                                  C(ATOM      3  C   CYS E   1) 0.001
 
    16  H(ATOM     16 1HA  GLY E   2)     (0.962) C(ATOM     13  CA  GLY E   2) 0.927
                                                  C(ATOM     14  C   GLY E   2) 0.007
                                                  H(ATOM   2887 3HB  ALA G 206) 0.006
                                                  O(ATOM     15  O   GLY E   2) 0.005
                                                  N(ATOM     19  N   VAL E   3) 0.004
                                                  H(ATOM     18  H   GLY E   2) 0.003
                                                  N(ATOM     12  N   GLY E   2) 0.002
                                                  C(ATOM      3  C   CYS E   1) 0.002
                                                  O(ATOM      4  O   CYS E   1) 0.002
                                                  H(ATOM     17 2HA  GLY E   2) 0.001
                                                  S(ATOM   1737  SG  CYS F 122) 0.001
 
    17  H(ATOM     17 2HA  GLY E   2)     (0.959) C(ATOM     13  CA  GLY E   2) 0.936
                                                  C(ATOM      3  C   CYS E   1) 0.006
                                                  N(ATOM     19  N   VAL E   3) 0.004
                                                  C(ATOM     14  C   GLY E   2) 0.003
                                                  O(ATOM   2893  O   TRP G 207) 0.002
                                                  H(ATOM     16 1HA  GLY E   2) 0.001
                                                  O(ATOM     15  O   GLY E   2) 0.001
 
    18  H(ATOM     18  H   GLY E   2)     (0.883) N(ATOM     12  N   GLY E   2) 0.823
                                                  O(ATOM      4  O   CYS E   1) 0.016
                                                  O(ATOM   1709  O   ALA F 120) 0.013
                                                  C(ATOM      3  C   CYS E   1) 0.011
                                                  C(ATOM     13  CA  GLY E   2) 0.011
                                                  H(ATOM     16 1HA  GLY E   2) 0.003
                                                  C(ATOM     14  C   GLY E   2) 0.002
 
    19  N(ATOM     19  N   VAL E   3)     (3.210) C(ATOM     14  C   GLY E   2) 1.261
                                                  C(ATOM     20  CA  VAL E   3) 0.915
                                                  H(ATOM     32  H   VAL E   3) 0.803
                                                  O(ATOM     15  O   GLY E   2) 0.147
                                                  C(ATOM     13  CA  GLY E   2) 0.017
                                                  C(ATOM     21  C   VAL E   3) 0.013
                                                  N(ATOM     35  N   PRO E   4) 0.006
                                                  C(ATOM     24  CG1 VAL E   3) 0.005
                                                  C(ATOM     23  CB  VAL E   3) 0.005
                                                  O(HETATM 3568  O   HOH E 428) 0.005
                                                  O(ATOM     22  O   VAL E   3) 0.004
                                                  H(ATOM     16 1HA  GLY E   2) 0.004
                                                  H(ATOM     17 2HA  GLY E   2) 0.004
                                                  O(ATOM      4  O   CYS E   1) 0.002
                                                  N(ATOM     12  N   GLY E   2) 0.002
                                                  C(ATOM     25  CG2 VAL E   3) 0.001
 
    20  C(ATOM     20  CA  VAL E   3)     (3.921) C(ATOM     23  CB  VAL E   3) 0.967
                                                  H(ATOM     33  HA  VAL E   3) 0.942
                                                  C(ATOM     21  C   VAL E   3) 0.923
                                                  N(ATOM     19  N   VAL E   3) 0.915
                                                  O(ATOM     22  O   VAL E   3) 0.042
                                                  C(ATOM     13  CA  GLY E   2) 0.017
                                                  C(ATOM     36  CA  PRO E   4) 0.016
                                                  C(ATOM     14  C   GLY E   2) 0.015
                                                  N(ATOM     35  N   PRO E   4) 0.015
                                                  H(ATOM     32  H   VAL E   3) 0.012
                                                  O(ATOM     15  O   GLY E   2) 0.007
                                                  H(ATOM     30 2HG2 VAL E   3) 0.005
                                                  H(ATOM     28 3HG1 VAL E   3) 0.005
                                                  C(ATOM     24  CG1 VAL E   3) 0.004
                                                  C(ATOM     25  CG2 VAL E   3) 0.003
                                                  C(ATOM     41  CD  PRO E   4) 0.001
 
    21  C(ATOM     21  C   VAL E   3)     (3.813) O(ATOM     22  O   VAL E   3) 1.483
                                                  N(ATOM     35  N   PRO E   4) 1.261
                                                  C(ATOM     20  CA  VAL E   3) 0.923
                                                  C(ATOM     41  CD  PRO E   4) 0.019
                                                  C(ATOM     36  CA  PRO E   4) 0.017
                                                  N(ATOM     19  N   VAL E   3) 0.013
                                                  C(ATOM     14  C   GLY E   2) 0.008
                                                  C(ATOM     40  CG  PRO E   4) 0.008
                                                  C(ATOM     39  CB  PRO E   4) 0.008
                                                  C(ATOM     37  C   PRO E   4) 0.006
                                                  C(ATOM     25  CG2 VAL E   3) 0.006
                                                  H(ATOM     42 1HD  PRO E   4) 0.005
                                                  C(ATOM     23  CB  VAL E   3) 0.005
                                                  O(HETATM 3577  O   HOH E 477) 0.005
                                                  H(ATOM     48  HA  PRO E   4) 0.004
                                                  O(HETATM 3568  O   HOH E 428) 0.003
                                                  H(ATOM     43 2HD  PRO E   4) 0.003
                                                  O(ATOM     15  O   GLY E   2) 0.003
                                                  H(HETATM 3570 2H   HOH E 428) 0.002
                                                  H(ATOM     33  HA  VAL E   3) 0.002
                                                  H(ATOM     26 1HG1 VAL E   3) 0.001
                                                  O(ATOM     38  O   PRO E   4) 0.001
 
    22  O(ATOM     22  O   VAL E   3)     (1.925) C(ATOM     21  C   VAL E   3) 1.483
                                                  N(ATOM     35  N   PRO E   4) 0.148
                                                  C(ATOM     20  CA  VAL E   3) 0.042
                                                  H(HETATM 3570 2H   HOH E 428) 0.033
                                                  H(HETATM 3579 2H   HOH E 477) 0.025
                                                  C(ATOM     41  CD  PRO E   4) 0.021
                                                  O(HETATM 3568  O   HOH E 428) 0.013
                                                  O(HETATM 3577  O   HOH E 477) 0.009
                                                  C(ATOM     36  CA  PRO E   4) 0.007
                                                  N(ATOM     19  N   VAL E   3) 0.004
                                                  H(ATOM     33  HA  VAL E   3) 0.004
                                                  C(ATOM     37  C   PRO E   4) 0.004
                                                  C(ATOM     23  CB  VAL E   3) 0.002
                                                  H(ATOM     42 1HD  PRO E   4) 0.002
                                                  H(ATOM     48  HA  PRO E   4) 0.002
                                                  C(ATOM     14  C   GLY E   2) 0.001
 
    23  C(ATOM     23  CB  VAL E   3)     (3.978) C(ATOM     25  CG2 VAL E   3) 1.004
                                                  C(ATOM     24  CG1 VAL E   3) 1.001
                                                  C(ATOM     20  CA  VAL E   3) 0.967
                                                  H(ATOM     34  HB  VAL E   3) 0.962
                                                  C(ATOM     14  C   GLY E   2) 0.008
                                                  C(ATOM     21  C   VAL E   3) 0.005
                                                  N(ATOM     19  N   VAL E   3) 0.005
                                                  N(ATOM     35  N   PRO E   4) 0.004
                                                  O(ATOM     22  O   VAL E   3) 0.002
                                                  O(ATOM     15  O   GLY E   2) 0.001
                                                  C(ATOM     36  CA  PRO E   4) 0.001
                                                  O(HETATM 3577  O   HOH E 477) 0.001
 
    24  C(ATOM     24  CG1 VAL E   3)     (3.921) C(ATOM     23  CB  VAL E   3) 1.001
                                                  H(ATOM     27 2HG1 VAL E   3) 0.968
                                                  H(ATOM     26 1HG1 VAL E   3) 0.963
                                                  H(ATOM     28 3HG1 VAL E   3) 0.960
                                                  N(ATOM     19  N   VAL E   3) 0.005
                                                  H(ATOM     29 1HG2 VAL E   3) 0.005
                                                  C(ATOM     20  CA  VAL E   3) 0.004
                                                  C(ATOM     25  CG2 VAL E   3) 0.002
                                                  C(ATOM     14  C   GLY E   2) 0.001
 
    25  C(ATOM     25  CG2 VAL E   3)     (3.919) C(ATOM     23  CB  VAL E   3) 1.004
                                                  H(ATOM     29 1HG2 VAL E   3) 0.967
                                                  H(ATOM     30 2HG2 VAL E   3) 0.962
                                                  H(ATOM     31 3HG2 VAL E   3) 0.960
                                                  C(ATOM     21  C   VAL E   3) 0.006
                                                  H(ATOM     26 1HG1 VAL E   3) 0.005
                                                  C(ATOM     20  CA  VAL E   3) 0.003
                                                  C(ATOM     24  CG1 VAL E   3) 0.002
                                                  N(ATOM     19  N   VAL E   3) 0.001
 
    26  H(ATOM     26 1HG1 VAL E   3)     (0.973) C(ATOM     24  CG1 VAL E   3) 0.963
                                                  C(ATOM     25  CG2 VAL E   3) 0.005
                                                  H(ATOM     28 3HG1 VAL E   3) 0.001
                                                  H(ATOM     27 2HG1 VAL E   3) 0.001
                                                  C(ATOM     21  C   VAL E   3) 0.001
 
    27  H(ATOM     27 2HG1 VAL E   3)     (0.977) C(ATOM     24  CG1 VAL E   3) 0.968
                                                  H(ATOM     34  HB  VAL E   3) 0.004
                                                  H(ATOM     28 3HG1 VAL E   3) 0.002
                                                  H(ATOM     26 1HG1 VAL E   3) 0.001
 
    28  H(ATOM     28 3HG1 VAL E   3)     (0.970) C(ATOM     24  CG1 VAL E   3) 0.960
                                                  C(ATOM     20  CA  VAL E   3) 0.005
                                                  H(ATOM     27 2HG1 VAL E   3) 0.002
                                                  H(ATOM     26 1HG1 VAL E   3) 0.001
 
    29  H(ATOM     29 1HG2 VAL E   3)     (0.977) C(ATOM     25  CG2 VAL E   3) 0.967
                                                  C(ATOM     24  CG1 VAL E   3) 0.005
                                                  H(ATOM     31 3HG2 VAL E   3) 0.001
                                                  H(ATOM     30 2HG2 VAL E   3) 0.001
 
    30  H(ATOM     30 2HG2 VAL E   3)     (0.973) C(ATOM     25  CG2 VAL E   3) 0.962
                                                  C(ATOM     20  CA  VAL E   3) 0.005
                                                  H(ATOM     31 3HG2 VAL E   3) 0.002
                                                  H(ATOM     29 1HG2 VAL E   3) 0.001
 
    31  H(ATOM     31 3HG2 VAL E   3)     (0.971) C(ATOM     25  CG2 VAL E   3) 0.960
                                                  H(ATOM     34  HB  VAL E   3) 0.004
                                                  H(ATOM     30 2HG2 VAL E   3) 0.002
                                                  O(ATOM   2876  O   GLY G 205) 0.002
                                                  H(ATOM     29 1HG2 VAL E   3) 0.001
 
    32  H(ATOM     32  H   VAL E   3)     (0.865) N(ATOM     19  N   VAL E   3) 0.803
                                                  O(ATOM     15  O   GLY E   2) 0.014
                                                  C(ATOM     20  CA  VAL E   3) 0.012
                                                  C(ATOM     14  C   GLY E   2) 0.012
                                                  O(HETATM 3568  O   HOH E 428) 0.010
                                                  H(ATOM     33  HA  VAL E   3) 0.005
                                                  O(ATOM      4  O   CYS E   1) 0.004
                                                  C(ATOM      3  C   CYS E   1) 0.001
 
    33  H(ATOM     33  HA  VAL E   3)     (0.963) C(ATOM     20  CA  VAL E   3) 0.942
                                                  H(ATOM     32  H   VAL E   3) 0.005
                                                  O(ATOM     22  O   VAL E   3) 0.004
                                                  H(ATOM     34  HB  VAL E   3) 0.003
                                                  O(ATOM     15  O   GLY E   2) 0.002
                                                  C(ATOM     21  C   VAL E   3) 0.002
                                                  C(ATOM     14  C   GLY E   2) 0.001
 
    34  H(ATOM     34  HB  VAL E   3)     (0.979) C(ATOM     23  CB  VAL E   3) 0.962
                                                  H(ATOM     27 2HG1 VAL E   3) 0.004
                                                  H(ATOM     31 3HG2 VAL E   3) 0.004
                                                  H(ATOM     33  HA  VAL E   3) 0.003
 
    35  N(ATOM     35  N   PRO E   4)     (3.297) C(ATOM     21  C   VAL E   3) 1.261
                                                  C(ATOM     36  CA  PRO E   4) 0.886
                                                  C(ATOM     41  CD  PRO E   4) 0.876
                                                  O(ATOM     22  O   VAL E   3) 0.148
                                                  C(ATOM     20  CA  VAL E   3) 0.015
                                                  C(ATOM     37  C   PRO E   4) 0.008
                                                  N(ATOM     19  N   VAL E   3) 0.006
                                                  C(ATOM     40  CG  PRO E   4) 0.006
                                                  N(ATOM     49  N   ALA E   5) 0.005
                                                  C(ATOM     39  CB  PRO E   4) 0.005
                                                  C(ATOM     23  CB  VAL E   3) 0.004
                                                  H(ATOM     46 1HG  PRO E   4) 0.003
                                                  O(ATOM     38  O   PRO E   4) 0.003
                                                  H(ATOM     44 1HB  PRO E   4) 0.003
                                                  H(ATOM     42 1HD  PRO E   4) 0.002
                                                  H(ATOM     48  HA  PRO E   4) 0.002
                                                  H(ATOM     43 2HD  PRO E   4) 0.001
                                                  C(ATOM     14  C   GLY E   2) 0.001
 
    36  C(ATOM     36  CA  PRO E   4)     (3.937) C(ATOM     39  CB  PRO E   4) 0.986
                                                  H(ATOM     48  HA  PRO E   4) 0.933
                                                  C(ATOM     37  C   PRO E   4) 0.927
                                                  N(ATOM     35  N   PRO E   4) 0.886
                                                  O(ATOM     38  O   PRO E   4) 0.046
                                                  C(ATOM     50  CA  ALA E   5) 0.017
                                                  C(ATOM     41  CD  PRO E   4) 0.017
                                                  C(ATOM     21  C   VAL E   3) 0.017
                                                  N(ATOM     49  N   ALA E   5) 0.016
                                                  C(ATOM     20  CA  VAL E   3) 0.016
                                                  C(ATOM    324  CG  PRO F  28) 0.013
                                                  O(ATOM     22  O   VAL E   3) 0.007
                                                  H(ATOM     43 2HD  PRO E   4) 0.005
                                                  C(ATOM     40  CG  PRO E   4) 0.005
                                                  H(ATOM     46 1HG  PRO E   4) 0.004
                                                  H(ATOM     44 1HB  PRO E   4) 0.001
                                                  H(ATOM     42 1HD  PRO E   4) 0.001
                                                  C(ATOM     23  CB  VAL E   3) 0.001
 
    37  C(ATOM     37  C   PRO E   4)     (3.814) O(ATOM     38  O   PRO E   4) 1.578
                                                  N(ATOM     49  N   ALA E   5) 1.210
                                                  C(ATOM     36  CA  PRO E   4) 0.927
                                                  C(ATOM     50  CA  ALA E   5) 0.014
                                                  H(ATOM     57  H   ALA E   5) 0.012
                                                  C(ATOM     53  CB  ALA E   5) 0.008
                                                  N(ATOM     35  N   PRO E   4) 0.008
                                                  C(ATOM     51  C   ALA E   5) 0.007
                                                  C(ATOM     39  CB  PRO E   4) 0.006
                                                  C(ATOM     21  C   VAL E   3) 0.006
                                                  O(ATOM     22  O   VAL E   3) 0.004
                                                  O(HETATM 3574  O   HOH E 475) 0.004
                                                  C(ATOM     40  CG  PRO E   4) 0.003
                                                  C(ATOM     41  CD  PRO E   4) 0.003
                                                  H(ATOM     58  HA  ALA E   5) 0.002
                                                  H(ATOM     45 2HB  PRO E   4) 0.002
                                                  H(ATOM     48  HA  PRO E   4) 0.002
                                                  O(ATOM     52  O   ALA E   5) 0.001
 
    38  O(ATOM     38  O   PRO E   4)     (2.026) C(ATOM     37  C   PRO E   4) 1.578
                                                  N(ATOM     49  N   ALA E   5) 0.152
                                                  C(ATOM     36  CA  PRO E   4) 0.046
                                                  H(HETATM 3575 1H   HOH E 475) 0.029
                                                  H(ATOM     57  H   ALA E   5) 0.015
                                                  O(HETATM 3574  O   HOH E 475) 0.011
                                                  C(ATOM     50  CA  ALA E   5) 0.007
                                                  C(ATOM     39  CB  PRO E   4) 0.005
                                                  H(ATOM     48  HA  PRO E   4) 0.004
                                                  C(ATOM     51  C   ALA E   5) 0.004
                                                  N(ATOM     35  N   PRO E   4) 0.003
                                                  H(ATOM     58  HA  ALA E   5) 0.002
                                                  C(ATOM     21  C   VAL E   3) 0.001
 
    39  C(ATOM     39  CB  PRO E   4)     (3.945) C(ATOM     40  CG  PRO E   4) 0.992
                                                  C(ATOM     36  CA  PRO E   4) 0.986
                                                  H(ATOM     45 2HB  PRO E   4) 0.951
                                                  H(ATOM     44 1HB  PRO E   4) 0.945
                                                  C(ATOM     21  C   VAL E   3) 0.008
                                                  C(ATOM     37  C   PRO E   4) 0.006
                                                  O(ATOM     38  O   PRO E   4) 0.005
                                                  N(ATOM     35  N   PRO E   4) 0.005
                                                  N(ATOM     49  N   ALA E   5) 0.005
                                                  C(ATOM     41  CD  PRO E   4) 0.005
                                                  C(ATOM    325  CD  PRO F  28) 0.003
                                                  H(ATOM     43 2HD  PRO E   4) 0.003
                                                  C(ATOM    101  CD  PRO E   8) 0.001
                                                  O(HETATM 3574  O   HOH E 475) 0.001
                                                  C(ATOM     61  C   ILE E   6) 0.001
 
    40  C(ATOM     40  CG  PRO E   4)     (3.960) C(ATOM     41  CD  PRO E   4) 1.002
                                                  C(ATOM     39  CB  PRO E   4) 0.992
                                                  H(ATOM     47 2HG  PRO E   4) 0.965
                                                  H(ATOM     46 1HG  PRO E   4) 0.957
                                                  C(ATOM     21  C   VAL E   3) 0.008
                                                  N(ATOM     35  N   PRO E   4) 0.006
                                                  C(ATOM     36  CA  PRO E   4) 0.005
                                                  C(ATOM     37  C   PRO E   4) 0.003
                                                  C(ATOM    101  CD  PRO E   8) 0.002
                                                  C(ATOM    325  CD  PRO F  28) 0.001
 
    41  C(ATOM     41  CD  PRO E   4)     (3.905) C(ATOM     40  CG  PRO E   4) 1.002
                                                  H(ATOM     42 1HD  PRO E   4) 0.958
                                                  H(ATOM     43 2HD  PRO E   4) 0.950
                                                  N(ATOM     35  N   PRO E   4) 0.876
                                                  O(ATOM     22  O   VAL E   3) 0.021
                                                  C(ATOM     21  C   VAL E   3) 0.019
                                                  C(ATOM     36  CA  PRO E   4) 0.017
                                                  C(ATOM     39  CB  PRO E   4) 0.005
                                                  H(ATOM     44 1HB  PRO E   4) 0.004
                                                  C(ATOM   2896  CD1 TRP G 207) 0.004
                                                  H(ATOM     48  HA  PRO E   4) 0.003
                                                  C(ATOM     37  C   PRO E   4) 0.003
                                                  O(ATOM     15  O   GLY E   2) 0.002
                                                  H(ATOM     46 1HG  PRO E   4) 0.002
                                                  C(ATOM     20  CA  VAL E   3) 0.001
 
    42  H(ATOM     42 1HD  PRO E   4)     (0.976) C(ATOM     41  CD  PRO E   4) 0.958
                                                  C(ATOM     21  C   VAL E   3) 0.005
                                                  H(ATOM     47 2HG  PRO E   4) 0.003
                                                  N(ATOM     35  N   PRO E   4) 0.002
                                                  O(ATOM     22  O   VAL E   3) 0.002
                                                  C(ATOM     36  CA  PRO E   4) 0.001
 
    43  H(ATOM     43 2HD  PRO E   4)     (0.973) C(ATOM     41  CD  PRO E   4) 0.950
                                                  C(ATOM     36  CA  PRO E   4) 0.005
                                                  H(ATOM   2908  HD1 TRP G 207) 0.004
                                                  O(ATOM     15  O   GLY E   2) 0.003
                                                  C(ATOM     21  C   VAL E   3) 0.003
                                                  C(ATOM     39  CB  PRO E   4) 0.003
                                                  N(ATOM     35  N   PRO E   4) 0.001
 
    44  H(ATOM     44 1HB  PRO E   4)     (0.965) C(ATOM     39  CB  PRO E   4) 0.945
                                                  C(ATOM     41  CD  PRO E   4) 0.004
                                                  H(ATOM    327 2HD  PRO F  28) 0.003
                                                  N(ATOM     35  N   PRO E   4) 0.003
                                                  H(ATOM     45 2HB  PRO E   4) 0.002
                                                  C(ATOM     36  CA  PRO E   4) 0.001
                                                  O(ATOM    287  O   SER F  26) 0.001
 
    45  H(ATOM     45 2HB  PRO E   4)     (0.968) C(ATOM     39  CB  PRO E   4) 0.951
                                                  H(ATOM     47 2HG  PRO E   4) 0.003
                                                  H(ATOM     48  HA  PRO E   4) 0.002
                                                  H(ATOM     44 1HB  PRO E   4) 0.002
                                                  O(ATOM     62  O   ILE E   6) 0.002
                                                  C(ATOM     37  C   PRO E   4) 0.002
                                                  H(ATOM    103 2HD  PRO E   8) 0.001
                                                  H(HETATM 3575 1H   HOH E 475) 0.001
 
    46  H(ATOM     46 1HG  PRO E   4)     (0.974) C(ATOM     40  CG  PRO E   4) 0.957
                                                  C(ATOM     36  CA  PRO E   4) 0.004
                                                  N(ATOM     35  N   PRO E   4) 0.003
                                                  C(ATOM     41  CD  PRO E   4) 0.002
                                                  H(ATOM     47 2HG  PRO E   4) 0.001
 
    47  H(ATOM     47 2HG  PRO E   4)     (0.977) C(ATOM     40  CG  PRO E   4) 0.965
                                                  H(ATOM     42 1HD  PRO E   4) 0.003
                                                  H(ATOM     45 2HB  PRO E   4) 0.003
                                                  H(ATOM     46 1HG  PRO E   4) 0.001
                                                  H(ATOM    326 1HD  PRO F  28) 0.001
 
    48  H(ATOM     48  HA  PRO E   4)     (0.970) C(ATOM     36  CA  PRO E   4) 0.933
                                                  H(ATOM    331 2HG  PRO F  28) 0.013
                                                  C(ATOM     21  C   VAL E   3) 0.004
                                                  O(ATOM     38  O   PRO E   4) 0.004
                                                  C(ATOM     41  CD  PRO E   4) 0.003
                                                  H(ATOM     45 2HB  PRO E   4) 0.002
                                                  O(ATOM     22  O   VAL E   3) 0.002
                                                  C(ATOM     37  C   PRO E   4) 0.002
                                                  N(ATOM     35  N   PRO E   4) 0.002
 
    49  N(ATOM     49  N   ALA E   5)     (3.229) C(ATOM     37  C   PRO E   4) 1.210
                                                  C(ATOM     50  CA  ALA E   5) 0.920
                                                  H(ATOM     57  H   ALA E   5) 0.801
                                                  O(ATOM     38  O   PRO E   4) 0.152
                                                  C(ATOM     36  CA  PRO E   4) 0.016
                                                  C(ATOM     51  C   ALA E   5) 0.014
                                                  O(ATOM     52  O   ALA E   5) 0.006
                                                  O(HETATM 3649  O   HOH F 312) 0.005
                                                  N(ATOM     35  N   PRO E   4) 0.005
                                                  C(ATOM     39  CB  PRO E   4) 0.005
                                                  H(ATOM     56 3HB  ALA E   5) 0.005
                                                  C(ATOM     53  CB  ALA E   5) 0.004
                                                  N(ATOM     59  N   ILE E   6) 0.002
                                                  H(ATOM     58  HA  ALA E   5) 0.002
                                                  H(ATOM     75  H   ILE E   6) 0.001
                                                  H(HETATM 3651 2H   HOH F 312) 0.001
 
    50  C(ATOM     50  CA  ALA E   5)     (3.924) C(ATOM     53  CB  ALA E   5) 0.995
                                                  H(ATOM     58  HA  ALA E   5) 0.935
                                                  N(ATOM     49  N   ALA E   5) 0.920
                                                  C(ATOM     51  C   ALA E   5) 0.919
                                                  O(ATOM     52  O   ALA E   5) 0.040
                                                  C(ATOM     60  CA  ILE E   6) 0.018
                                                  C(ATOM     36  CA  PRO E   4) 0.017
                                                  N(ATOM     59  N   ILE E   6) 0.016
                                                  C(ATOM     37  C   PRO E   4) 0.014
                                                  H(ATOM     57  H   ALA E   5) 0.012
                                                  O(ATOM     38  O   PRO E   4) 0.007
                                                  H(ATOM     56 3HB  ALA E   5) 0.002
                                                  H(ATOM     54 1HB  ALA E   5) 0.001
 
    51  C(ATOM     51  C   ALA E   5)     (3.800) O(ATOM     52  O   ALA E   5) 1.476
                                                  N(ATOM     59  N   ILE E   6) 1.272
                                                  C(ATOM     50  CA  ALA E   5) 0.919
                                                  C(ATOM     60  CA  ILE E   6) 0.015
                                                  N(ATOM     49  N   ALA E   5) 0.014
                                                  H(ATOM     75  H   ILE E   6) 0.012
                                                  C(ATOM     63  CB  ILE E   6) 0.009
                                                  C(ATOM     61  C   ILE E   6) 0.008
                                                  C(ATOM     53  CB  ALA E   5) 0.008
                                                  C(ATOM     37  C   PRO E   4) 0.007
                                                  H(ATOM     54 1HB  ALA E   5) 0.005
                                                  H(ATOM     58  HA  ALA E   5) 0.005
                                                  O(HETATM 3604  O   HOH E 542) 0.004
                                                  O(ATOM     38  O   PRO E   4) 0.004
                                                  O(HETATM 3922  O   HOH F 445) 0.003
                                                  O(ATOM     62  O   ILE E   6) 0.002
                                                  O(HETATM 3646  O   HOH F 311) 0.001
                                                  C(ATOM     65  CG2 ILE E   6) 0.001
                                                  H(ATOM     57  H   ALA E   5) 0.001
                                                  N(ATOM     78  N   GLN E   7) 0.001
 
    52  O(ATOM     52  O   ALA E   5)     (1.890) C(ATOM     51  C   ALA E   5) 1.476
                                                  N(ATOM     59  N   ILE E   6) 0.143
                                                  C(ATOM     50  CA  ALA E   5) 0.040
                                                  H(HETATM 3605 1H   HOH E 542) 0.032
                                                  H(HETATM 3923 1H   HOH F 445) 0.026
                                                  H(ATOM     75  H   ILE E   6) 0.014
                                                  O(HETATM 3604  O   HOH E 542) 0.012
                                                  O(HETATM 3922  O   HOH F 445) 0.010
                                                  C(ATOM     60  CA  ILE E   6) 0.007
                                                  N(ATOM     49  N   ALA E   5) 0.006
                                                  C(ATOM     53  CB  ALA E   5) 0.005
                                                  C(ATOM     61  C   ILE E   6) 0.003
                                                  H(ATOM     58  HA  ALA E   5) 0.001
                                                  C(ATOM     37  C   PRO E   4) 0.001
                                                  H(ATOM     76  HA  ILE E   6) 0.001
                                                  C(ATOM     63  CB  ILE E   6) 0.001
 
    53  C(ATOM     53  CB  ALA E   5)     (3.917) C(ATOM     50  CA  ALA E   5) 0.995
                                                  H(ATOM     55 2HB  ALA E   5) 0.963
                                                  H(ATOM     56 3HB  ALA E   5) 0.953
                                                  H(ATOM     54 1HB  ALA E   5) 0.952
                                                  C(ATOM     37  C   PRO E   4) 0.008
                                                  C(ATOM     51  C   ALA E   5) 0.008
                                                  N(ATOM     59  N   ILE E   6) 0.005
                                                  C(ATOM   1649  CA  GLN F 116) 0.005
                                                  O(ATOM     52  O   ALA E   5) 0.005
                                                  N(ATOM     49  N   ALA E   5) 0.004
                                                  H(ATOM     57  H   ALA E   5) 0.002
                                                  O(HETATM 3784  O   HOH F 382) 0.001
 
    54  H(ATOM     54 1HB  ALA E   5)     (0.965) C(ATOM     53  CB  ALA E   5) 0.952
                                                  C(ATOM     51  C   ALA E   5) 0.005
                                                  H(ATOM     56 3HB  ALA E   5) 0.002
                                                  H(ATOM     55 2HB  ALA E   5) 0.001
                                                  C(ATOM     50  CA  ALA E   5) 0.001
 
    55  H(ATOM     55 2HB  ALA E   5)     (0.977) C(ATOM     53  CB  ALA E   5) 0.963
                                                  H(ATOM   1664  HA  GLN F 116) 0.005
                                                  H(ATOM     58  HA  ALA E   5) 0.003
                                                  H(ATOM     54 1HB  ALA E   5) 0.001
 
    56  H(ATOM     56 3HB  ALA E   5)     (0.968) C(ATOM     53  CB  ALA E   5) 0.953
                                                  N(ATOM     49  N   ALA E   5) 0.005
                                                  H(ATOM     54 1HB  ALA E   5) 0.002
                                                  C(ATOM     50  CA  ALA E   5) 0.002
                                                  H(HETATM 3786 2H   HOH F 382) 0.001
 
    57  H(ATOM     57  H   ALA E   5)     (0.866) N(ATOM     49  N   ALA E   5) 0.801
                                                  O(ATOM     38  O   PRO E   4) 0.015
                                                  O(HETATM 3649  O   HOH F 312) 0.014
                                                  C(ATOM     50  CA  ALA E   5) 0.012
                                                  C(ATOM     37  C   PRO E   4) 0.012
                                                  H(ATOM     58  HA  ALA E   5) 0.004
                                                  C(ATOM     53  CB  ALA E   5) 0.002
                                                  C(ATOM     51  C   ALA E   5) 0.001
 
    58  H(ATOM     58  HA  ALA E   5)     (0.959) C(ATOM     50  CA  ALA E   5) 0.935
                                                  C(ATOM     51  C   ALA E   5) 0.005
                                                  N(ATOM     59  N   ILE E   6) 0.004
                                                  H(ATOM     57  H   ALA E   5) 0.004
                                                  H(ATOM     55 2HB  ALA E   5) 0.003
                                                  C(ATOM     37  C   PRO E   4) 0.002
                                                  O(ATOM     38  O   PRO E   4) 0.002
                                                  N(ATOM     49  N   ALA E   5) 0.002
                                                  O(ATOM     52  O   ALA E   5) 0.001
 
    59  N(ATOM     59  N   ILE E   6)     (3.277) C(ATOM     51  C   ALA E   5) 1.272
                                                  C(ATOM     60  CA  ILE E   6) 0.912
                                                  H(ATOM     75  H   ILE E   6) 0.783
                                                  O(ATOM     52  O   ALA E   5) 0.143
                                                  C(ATOM     50  CA  ALA E   5) 0.016
                                                  C(ATOM     61  C   ILE E   6) 0.014
                                                  O(HETATM 3646  O   HOH F 311) 0.011
                                                  O(ATOM     62  O   ILE E   6) 0.006
                                                  C(ATOM     65  CG2 ILE E   6) 0.005
                                                  C(ATOM     53  CB  ALA E   5) 0.005
                                                  N(ATOM     78  N   GLN E   7) 0.005
                                                  C(ATOM     63  CB  ILE E   6) 0.005
                                                  H(ATOM     58  HA  ALA E   5) 0.004
                                                  N(ATOM     49  N   ALA E   5) 0.002
 
    60  C(ATOM     60  CA  ILE E   6)     (3.936) C(ATOM     63  CB  ILE E   6) 0.973
                                                  H(ATOM     76  HA  ILE E   6) 0.947
                                                  C(ATOM     61  C   ILE E   6) 0.914
                                                  N(ATOM     59  N   ILE E   6) 0.912
                                                  O(ATOM     62  O   ILE E   6) 0.047
                                                  C(ATOM     50  CA  ALA E   5) 0.018
                                                  C(ATOM     79  CA  GLN E   7) 0.018
                                                  N(ATOM     78  N   GLN E   7) 0.017
                                                  C(ATOM     51  C   ALA E   5) 0.015
                                                  H(ATOM     75  H   ILE E   6) 0.010
                                                  O(ATOM     52  O   ALA E   5) 0.007
                                                  H(ATOM     71 3HG2 ILE E   6) 0.005
                                                  C(ATOM     66  CD1 ILE E   6) 0.005
                                                  C(ATOM     65  CG2 ILE E   6) 0.004
                                                  O(HETATM 3922  O   HOH F 445) 0.003
                                                  C(ATOM     64  CG1 ILE E   6) 0.002
                                                  H(ATOM     68 2HG1 ILE E   6) 0.002
                                                  O(HETATM 3646  O   HOH F 311) 0.001
 
    61  C(ATOM     61  C   ILE E   6)     (3.822) O(ATOM     62  O   ILE E   6) 1.628
                                                  N(ATOM     78  N   GLN E   7) 1.172
                                                  C(ATOM     60  CA  ILE E   6) 0.914
                                                  N(ATOM     59  N   ILE E   6) 0.014
                                                  H(ATOM     93  H   GLN E   7) 0.014
                                                  C(ATOM     79  CA  GLN E   7) 0.013
                                                  C(ATOM     51  C   ALA E   5) 0.008
                                                  C(ATOM     82  CB  GLN E   7) 0.008
                                                  C(ATOM     80  C   GLN E   7) 0.006
                                                  C(ATOM     64  CG1 ILE E   6) 0.005
                                                  C(ATOM     63  CB  ILE E   6) 0.004
                                                  O(ATOM     52  O   ALA E   5) 0.003
                                                  H(ATOM     76  HA  ILE E   6) 0.001
                                                  H(ATOM     69 1HG2 ILE E   6) 0.001
                                                  C(ATOM    285  CA  SER F  26) 0.001
                                                  H(ATOM     94  HA  GLN E   7) 0.001
                                                  C(ATOM     83  CG  GLN E   7) 0.001
                                                  C(ATOM     39  CB  PRO E   4) 0.001
 
    62  O(ATOM     62  O   ILE E   6)     (1.996) C(ATOM     61  C   ILE E   6) 1.628
                                                  N(ATOM     78  N   GLN E   7) 0.158
                                                  C(ATOM     60  CA  ILE E   6) 0.047
                                                  H(ATOM     93  H   GLN E   7) 0.017
                                                  C(ATOM     79  CA  GLN E   7) 0.007
                                                  N(ATOM     59  N   ILE E   6) 0.006
                                                  H(ATOM    293  HA  SER F  26) 0.004
                                                  H(ATOM     76  HA  ILE E   6) 0.004
                                                  C(ATOM     80  C   GLN E   7) 0.004
                                                  C(ATOM     63  CB  ILE E   6) 0.003
                                                  C(ATOM    285  CA  SER F  26) 0.002
                                                  H(ATOM     45 2HB  PRO E   4) 0.002
                                                  H(ATOM     94  HA  GLN E   7) 0.002
                                                  C(ATOM     51  C   ALA E   5) 0.002
                                                  H(ATOM    103 2HD  PRO E   8) 0.001
 
    63  C(ATOM     63  CB  ILE E   6)     (3.971) C(ATOM     65  CG2 ILE E   6) 1.001
                                                  C(ATOM     64  CG1 ILE E   6) 0.995
                                                  C(ATOM     60  CA  ILE E   6) 0.973
                                                  H(ATOM     77  HB  ILE E   6) 0.956
                                                  C(ATOM     51  C   ALA E   5) 0.009
                                                  N(ATOM     59  N   ILE E   6) 0.005
                                                  H(ATOM     72 1HD1 ILE E   6) 0.005
                                                  N(ATOM     78  N   GLN E   7) 0.005
                                                  C(ATOM     61  C   ILE E   6) 0.004
                                                  O(ATOM     62  O   ILE E   6) 0.003
                                                  C(ATOM    285  CA  SER F  26) 0.002
                                                  C(ATOM     66  CD1 ILE E   6) 0.002
                                                  O(ATOM     52  O   ALA E   5) 0.001
 
    64  C(ATOM     64  CG1 ILE E   6)     (3.966) C(ATOM     66  CD1 ILE E   6) 1.006
                                                  C(ATOM     63  CB  ILE E   6) 0.995
                                                  H(ATOM     68 2HG1 ILE E   6) 0.967
                                                  H(ATOM     67 1HG1 ILE E   6) 0.961
                                                  C(ATOM     61  C   ILE E   6) 0.005
                                                  H(ATOM     69 1HG2 ILE E   6) 0.005
                                                  O(HETATM 3868  O   HOH F 421) 0.002
                                                  C(ATOM   1652  CB  GLN F 116) 0.002
                                                  C(ATOM     65  CG2 ILE E   6) 0.002
                                                  C(ATOM     60  CA  ILE E   6) 0.002
 
    65  C(ATOM     65  CG2 ILE E   6)     (3.925) C(ATOM     63  CB  ILE E   6) 1.001
                                                  H(ATOM     69 1HG2 ILE E   6) 0.965
                                                  H(ATOM     70 2HG2 ILE E   6) 0.964
                                                  H(ATOM     71 3HG2 ILE E   6) 0.959
                                                  N(ATOM     59  N   ILE E   6) 0.005
                                                  C(ATOM     60  CA  ILE E   6) 0.004
                                                  H(ATOM     68 2HG1 ILE E   6) 0.004
                                                  C(ATOM    288  CB  SER F  26) 0.003
                                                  C(ATOM     64  CG1 ILE E   6) 0.002
                                                  H(ATOM     67 1HG1 ILE E   6) 0.001
                                                  C(ATOM     51  C   ALA E   5) 0.001
                                                  C(ATOM    252  CG1 VAL F  23) 0.001
 
    66  C(ATOM     66  CD1 ILE E   6)     (3.934) C(ATOM     64  CG1 ILE E   6) 1.006
                                                  H(ATOM     73 2HD1 ILE E   6) 0.969
                                                  H(ATOM     72 1HD1 ILE E   6) 0.969
                                                  H(ATOM     74 3HD1 ILE E   6) 0.964
                                                  C(ATOM     60  CA  ILE E   6) 0.005
                                                  O(HETATM 3916  O   HOH F 443) 0.002
                                                  C(ATOM     63  CB  ILE E   6) 0.002
                                                  C(ATOM   1671  CG2 THR F 117) 0.001
                                                  H(ATOM     77  HB  ILE E   6) 0.001
                                                  C(ATOM    278  CA  GLY F  25) 0.001
                                                  H(HETATM 3917 1H   HOH F 443) 0.001
 
    67  H(ATOM     67 1HG1 ILE E   6)     (0.974) C(ATOM     64  CG1 ILE E   6) 0.961
                                                  H(ATOM     73 2HD1 ILE E   6) 0.004
                                                  H(ATOM     77  HB  ILE E   6) 0.003
                                                  O(HETATM 3868  O   HOH F 421) 0.001
                                                  C(ATOM     65  CG2 ILE E   6) 0.001
                                                  H(ATOM     68 2HG1 ILE E   6) 0.001
 
    68  H(ATOM     68 2HG1 ILE E   6)     (0.981) C(ATOM     64  CG1 ILE E   6) 0.967
                                                  H(ATOM     74 3HD1 ILE E   6) 0.004
                                                  C(ATOM     65  CG2 ILE E   6) 0.004
                                                  H(ATOM   1657 1HB  GLN F 116) 0.002
                                                  C(ATOM     60  CA  ILE E   6) 0.002
                                                  H(ATOM     67 1HG1 ILE E   6) 0.001
 
    69  H(ATOM     69 1HG2 ILE E   6)     (0.978) C(ATOM     65  CG2 ILE E   6) 0.965
                                                  C(ATOM     64  CG1 ILE E   6) 0.005
                                                  H(ATOM    291 2HB  SER F  26) 0.003
                                                  H(ATOM     71 3HG2 ILE E   6) 0.002
                                                  C(ATOM     61  C   ILE E   6) 0.001
                                                  H(ATOM     70 2HG2 ILE E   6) 0.001
 
    70  H(ATOM     70 2HG2 ILE E   6)     (0.972) C(ATOM     65  CG2 ILE E   6) 0.964
                                                  H(ATOM     77  HB  ILE E   6) 0.004
                                                  H(ATOM     71 3HG2 ILE E   6) 0.001
                                                  H(ATOM     69 1HG2 ILE E   6) 0.001
 
    71  H(ATOM     71 3HG2 ILE E   6)     (0.972) C(ATOM     65  CG2 ILE E   6) 0.959
                                                  C(ATOM     60  CA  ILE E   6) 0.005
                                                  H(ATOM     69 1HG2 ILE E   6) 0.002
                                                  H(ATOM     70 2HG2 ILE E   6) 0.001
                                                  O(ATOM    266  O   PRO F  24) 0.001
 
    72  H(ATOM     72 1HD1 ILE E   6)     (0.978) C(ATOM     66  CD1 ILE E   6) 0.969
                                                  C(ATOM     63  CB  ILE E   6) 0.005
                                                  H(HETATM 3917 1H   HOH F 443) 0.001
 
    73  H(ATOM     73 2HD1 ILE E   6)     (0.978) C(ATOM     66  CD1 ILE E   6) 0.969
                                                  H(ATOM     67 1HG1 ILE E   6) 0.004
 
    74  H(ATOM     74 3HD1 ILE E   6)     (0.976) C(ATOM     66  CD1 ILE E   6) 0.964
                                                  H(ATOM     68 2HG1 ILE E   6) 0.004
                                                  O(ATOM    266  O   PRO F  24) 0.001
 
    75  H(ATOM     75  H   ILE E   6)     (0.858) N(ATOM     59  N   ILE E   6) 0.783
                                                  O(HETATM 3646  O   HOH F 311) 0.028
                                                  O(ATOM     52  O   ALA E   5) 0.014
                                                  C(ATOM     51  C   ALA E   5) 0.012
[...]
                                                  O(HETATM 4516  O   HOH G 594) 0.002
 
  4553  H(HETATM 4560 2H   HOH G 634)     (0.853) O(HETATM 4558  O   HOH G 634) 0.806
                                                  O(HETATM 4267  O   HOH G 344) 0.040
                                                  H(HETATM 4559 1H   HOH G 634) 0.003
                                                  O(HETATM 4516  O   HOH G 594) 0.002
                                                  H(HETATM 4268 1H   HOH G 344) 0.001
 
  4554  O(HETATM 4561  O   HOH G 637)     (2.122) H(HETATM 4563 2H   HOH G 637) 0.798
                                                  H(HETATM 4562 1H   HOH G 637) 0.797
                                                  H(HETATM 3550  H1  SO4 G 299) 0.289
                                                  O(HETATM 3545  O1  SO4 G 299) 0.060
                                                  O(HETATM 4114  O   HOH F 574) 0.020
                                                  O(ATOM   2097  O   THR G 151) 0.013
                                                  S(HETATM 3544  S   SO4 G 299) 0.009
                                                  C(ATOM   2096  C   THR G 151) 0.005
                                                  C(ATOM   2109  CA  PRO G 152) 0.003
                                                  H(ATOM   2088 2H   ASN G 150) 0.003
                                                  H(HETATM 4116 2H   HOH F 574) 0.003
                                                  O(HETATM 3547  O3  SO4 G 299) 0.003
                                                  N(ATOM   2079  N   ASN G 150) 0.002
                                                  H(HETATM 4115 1H   HOH F 574) 0.002
                                                  N(ATOM   2108  N   PRO G 152) 0.001
 
  4555  H(HETATM 4562 1H   HOH G 637)     (0.847) O(HETATM 4561  O   HOH G 637) 0.797
                                                  O(ATOM   2097  O   THR G 151) 0.039
                                                  C(ATOM   2096  C   THR G 151) 0.002
                                                  O(HETATM 3545  O1  SO4 G 299) 0.002
                                                  H(HETATM 3550  H1  SO4 G 299) 0.001
                                                  H(ATOM   2121  HA  PRO G 152) 0.001
 
  4556  H(HETATM 4563 2H   HOH G 637)     (0.857) O(HETATM 4561  O   HOH G 637) 0.798
                                                  O(HETATM 4114  O   HOH F 574) 0.050
                                                  O(HETATM 3545  O1  SO4 G 299) 0.002
                                                  H(HETATM 3550  H1  SO4 G 299) 0.001
                                                  H(ATOM   2121  HA  PRO G 152) 0.001
 
  4557  O(HETATM 4564  O   HOH G 638)     (1.831) H(HETATM 4565 1H   HOH G 638) 0.855
                                                  H(HETATM 4566 2H   HOH G 638) 0.820
                                                  O(ATOM   3433  O   ALA G 243) 0.013
                                                  C(ATOM   3432  C   ALA G 243) 0.004
                                                  O(ATOM   3443  O   ALA G 244) 0.003
                                                  C(ATOM   3441  CA  ALA G 244) 0.003
                                                  C(ATOM   3431  CA  ALA G 243) 0.001
                                                  C(ATOM   3442  C   ALA G 244) 0.001
 
  4558  H(HETATM 4565 1H   HOH G 638)     (0.866) O(HETATM 4564  O   HOH G 638) 0.855
                                                  O(ATOM   3443  O   ALA G 244) 0.007
                                                  C(ATOM   3442  C   ALA G 244) 0.001
                                                  H(HETATM 4566 2H   HOH G 638) 0.001
 
  4559  H(HETATM 4566 2H   HOH G 638)     (0.858) O(HETATM 4564  O   HOH G 638) 0.820
                                                  O(ATOM   3433  O   ALA G 243) 0.033
                                                  H(ATOM   3449  HA  ALA G 244) 0.002
                                                  H(HETATM 4565 1H   HOH G 638) 0.001
 
  4560  O(HETATM 4567  O   HOH G 643)     (1.908) H(HETATM 4568 1H   HOH G 643) 0.858
                                                  H(HETATM 4569 2H   HOH G 643) 0.841
                                                  H(ATOM   2879  H   GLY G 205) 0.024
                                                  N(ATOM   2873  N   GLY G 205) 0.009
                                                  N(ATOM   2838  N   LYS G 203) 0.002
                                                  C(ATOM   2839  CA  LYS G 203) 0.002
                                                  C(ATOM   2822  CG  LYS G 202) 0.001
                                                  C(ATOM   2861  C   ASN G 204) 0.001
 
  4561  H(HETATM 4568 1H   HOH G 643)     (0.869) O(HETATM 4567  O   HOH G 643) 0.858
                                                  N(ATOM   2838  N   LYS G 203) 0.003
                                                  N(ATOM   2873  N   GLY G 205) 0.001
                                                  H(ATOM   2858  HA  LYS G 203) 0.001
                                                  C(ATOM   2839  CA  LYS G 203) 0.001
                                                  H(ATOM   2829 2HG  LYS G 202) 0.001
 
  4562  H(HETATM 4569 2H   HOH G 643)     (0.844) O(HETATM 4567  O   HOH G 643) 0.841
                                                  N(ATOM   2873  N   GLY G 205) 0.001
 
  4563  O(HETATM 4570  O   HOH C 453)     (1.864) H(HETATM 4572 2H   HOH C 453) 0.814
                                                  H(HETATM 4571 1H   HOH C 453) 0.809
                                                  H(HETATM 4582 2H   HOH C 502) 0.031
                                                  O(ATOM   3050  O   SER G 217) 0.012
                                                  O(HETATM 4580  O   HOH C 502) 0.011
                                                  O(ATOM   3470  O   GLY C 250) 0.009
                                                  H(ATOM   3067  HA  SER G 218) 0.005
                                                  C(ATOM   3059  CA  SER G 218) 0.005
                                                  C(ATOM   3049  C   SER G 217) 0.004
                                                  C(ATOM   3469  C   GLY C 250) 0.002
                                                  N(ATOM   3493  NE1 TRP C 252) 0.002
                                                  N(ATOM   3467  N   GLY C 250) 0.001
 
  4564  H(HETATM 4571 1H   HOH C 453)     (0.856) O(HETATM 4570  O   HOH C 453) 0.809
                                                  O(ATOM   3050  O   SER G 217) 0.032
                                                  O(HETATM 4580  O   HOH C 502) 0.004
                                                  H(ATOM   3067  HA  SER G 218) 0.003
                                                  C(ATOM   3049  C   SER G 217) 0.002
                                                  H(ATOM   3504  HE1 TRP C 252) 0.002
                                                  C(ATOM   3059  CA  SER G 218) 0.001
 
  4565  H(HETATM 4572 2H   HOH C 453)     (0.847) O(HETATM 4570  O   HOH C 453) 0.814
                                                  O(ATOM   3470  O   GLY C 250) 0.021
                                                  C(ATOM   3469  C   GLY C 250) 0.004
                                                  O(HETATM 4580  O   HOH C 502) 0.002
                                                  C(ATOM   3059  CA  SER G 218) 0.001
 
  4566  O(HETATM 4573  O   HOH C 486)     (1.879) H(HETATM 4574 1H   HOH C 486) 0.858
                                                  H(HETATM 4575 2H   HOH C 486) 0.816
                                                  O(HETATM 4583  O   HOH C 526) 0.014
                                                  H(ATOM   3471 1H   GLY C 250) 0.004
                                                  H(HETATM 4584 1H   HOH C 526) 0.003
                                                  N(ATOM   3467  N   GLY C 250) 0.003
                                                  C(ATOM   3028  CZ3 TRP G 215) 0.002
                                                  O(HETATM 4586  O   HOH C 530) 0.002
                                                  C(ATOM   3026  CE3 TRP G 215) 0.001
                                                  H(HETATM 4585 2H   HOH C 526) 0.001
 
  4567  H(HETATM 4574 1H   HOH C 486)     (0.870) O(HETATM 4573  O   HOH C 486) 0.858
                                                  O(HETATM 4586  O   HOH C 530) 0.004
                                                  C(ATOM   3028  CZ3 TRP G 215) 0.002
                                                  H(ATOM   3038  HZ3 TRP G 215) 0.001
                                                  C(ATOM   3026  CE3 TRP G 215) 0.001
 
  4568  H(HETATM 4575 2H   HOH C 486)     (0.854) O(HETATM 4573  O   HOH C 486) 0.816
                                                  O(HETATM 4583  O   HOH C 526) 0.033
                                                  C(ATOM   3028  CZ3 TRP G 215) 0.001
                                                  C(ATOM   3026  CE3 TRP G 215) 0.001
 
  4569  O(HETATM 4580  O   HOH C 502)     (1.833) H(HETATM 4582 2H   HOH C 502) 0.817
                                                  H(HETATM 4581 1H   HOH C 502) 0.802
                                                  H(HETATM 4125 2H   HOH F 585) 0.039
                                                  O(HETATM 4123  O   HOH F 585) 0.016
                                                  O(ATOM   3478  O   ALA C 251) 0.013
                                                  O(HETATM 4570  O   HOH C 453) 0.011
                                                  H(HETATM 4571 1H   HOH C 453) 0.004
                                                  C(ATOM   3477  C   ALA C 251) 0.004
                                                  C(ATOM   2705  CE  MET G 192) 0.003
                                                  H(HETATM 4572 2H   HOH C 453) 0.002
                                                  C(ATOM   3468  CA  GLY C 250) 0.002
                                                  H(ATOM   2710 1HE  MET G 192) 0.001
 
  4570  H(HETATM 4581 1H   HOH C 502)     (0.847) O(HETATM 4580  O   HOH C 502) 0.802
                                                  O(ATOM   3478  O   ALA C 251) 0.034
                                                  H(ATOM   2710 1HE  MET G 192) 0.003
                                                  O(HETATM 4123  O   HOH F 585) 0.003
                                                  H(HETATM 4582 2H   HOH C 502) 0.002
 
  4571  H(HETATM 4582 2H   HOH C 502)     (0.856) O(HETATM 4580  O   HOH C 502) 0.817
                                                  O(HETATM 4570  O   HOH C 453) 0.031
                                                  H(HETATM 4581 1H   HOH C 502) 0.002
                                                  H(ATOM   3473 1HA  GLY C 250) 0.002
 
  4572  O(HETATM 4583  O   HOH C 526)     (1.907) H(HETATM 4585 2H   HOH C 526) 0.862
                                                  H(HETATM 4584 1H   HOH C 526) 0.810
                                                  H(HETATM 4575 2H   HOH C 486) 0.033
                                                  O(HETATM 4573  O   HOH C 486) 0.014
                                                  O(HETATM 3919  O   HOH F 444) 0.013
                                                  H(HETATM 3921 2H   HOH F 444) 0.003
                                                  C(ATOM   3023  CD2 TRP G 215) 0.001
                                                  C(ATOM   3025  CE2 TRP G 215) 0.001
                                                  C(ATOM   3027  CZ2 TRP G 215) 0.001
 
  4573  H(HETATM 4584 1H   HOH C 526)     (0.849) O(HETATM 4583  O   HOH C 526) 0.810
                                                  O(HETATM 3919  O   HOH F 444) 0.031
                                                  O(HETATM 4573  O   HOH C 486) 0.003
                                                  H(HETATM 3920 1H   HOH F 444) 0.001
                                                  H(HETATM 4585 2H   HOH C 526) 0.001
 
  4574  H(HETATM 4585 2H   HOH C 526)     (0.873) O(HETATM 4583  O   HOH C 526) 0.862
                                                  C(ATOM   3025  CE2 TRP G 215) 0.004
                                                  C(ATOM   3023  CD2 TRP G 215) 0.003
                                                  H(HETATM 4584 1H   HOH C 526) 0.001
                                                  O(HETATM 4573  O   HOH C 486) 0.001
 
  4575  O(HETATM 4586  O   HOH C 530)     (1.913) H(HETATM 4588 2H   HOH C 530) 0.852
                                                  H(HETATM 4587 1H   HOH C 530) 0.813
                                                  H(HETATM 4594 2H   HOH C 622) 0.045
                                                  O(HETATM 4592  O   HOH C 622) 0.019
                                                  O(ATOM   3043  O   GLY G 216) 0.011
                                                  C(ATOM   3042  C   GLY G 216) 0.005
                                                  H(HETATM 4574 1H   HOH C 486) 0.004
                                                  C(ATOM   3028  CZ3 TRP G 215) 0.002
                                                  O(HETATM 4573  O   HOH C 486) 0.002
                                                  C(ATOM   2437  CD2 TRP G 172) 0.002
                                                  C(ATOM   2439  CE2 TRP G 172) 0.002
                                                  N(ATOM   3047  N   SER G 217) 0.001
 
  4576  H(HETATM 4587 1H   HOH C 530)     (0.854) O(HETATM 4586  O   HOH C 530) 0.813
                                                  O(ATOM   3043  O   GLY G 216) 0.033
                                                  C(ATOM   3042  C   GLY G 216) 0.002
                                                  O(HETATM 4592  O   HOH C 622) 0.002
 
  4577  H(HETATM 4588 2H   HOH C 530)     (0.869) O(HETATM 4586  O   HOH C 530) 0.852
                                                  C(ATOM   2439  CE2 TRP G 172) 0.004
                                                  C(ATOM   2437  CD2 TRP G 172) 0.004
                                                  O(HETATM 4592  O   HOH C 622) 0.002
                                                  H(ATOM   3038  HZ3 TRP G 215) 0.002
 
  4578  O(HETATM 4589  O   HOH C 617)     (1.838) H(HETATM 4591 2H   HOH C 617) 0.826
                                                  H(HETATM 4590 1H   HOH C 617) 0.822
                                                  O(HETATM 4592  O   HOH C 622) 0.014
                                                  N(ATOM   3467  N   GLY C 250) 0.011
                                                  H(HETATM 4593 1H   HOH C 622) 0.003
                                                  C(ATOM   3062  CB  SER G 218) 0.002
                                                  C(ATOM   3468  CA  GLY C 250) 0.002
                                                  H(ATOM   3065 2HB  SER G 218) 0.001
                                                  H(HETATM 4594 2H   HOH C 622) 0.001
 
  4579  H(HETATM 4590 1H   HOH C 617)     (0.854) O(HETATM 4589  O   HOH C 617) 0.822
                                                  N(ATOM   3467  N   GLY C 250) 0.028
                                                  H(HETATM 4591 2H   HOH C 617) 0.001
                                                  H(ATOM   3065 2HB  SER G 218) 0.001
 
  4580  H(HETATM 4591 2H   HOH C 617)     (0.862) O(HETATM 4589  O   HOH C 617) 0.826
                                                  O(HETATM 4592  O   HOH C 622) 0.033
                                                  H(HETATM 4590 1H   HOH C 617) 0.001
 
  4581  O(HETATM 4592  O   HOH C 622)     (1.915) H(HETATM 4593 1H   HOH C 622) 0.842
                                                  H(HETATM 4594 2H   HOH C 622) 0.796
                                                  H(HETATM 4458 2H   HOH G 545) 0.043
                                                  H(HETATM 4591 2H   HOH C 617) 0.033
                                                  O(HETATM 4586  O   HOH C 530) 0.019
                                                  O(HETATM 4456  O   HOH G 545) 0.017
                                                  O(HETATM 4589  O   HOH C 617) 0.014
                                                  H(HETATM 4588 2H   HOH C 530) 0.002
                                                  H(HETATM 4587 1H   HOH C 530) 0.002
                                                  C(ATOM   2442  CZ3 TRP G 172) 0.001
 
  4582  H(HETATM 4593 1H   HOH C 622)     (0.852) O(HETATM 4592  O   HOH C 622) 0.842
                                                  O(HETATM 4589  O   HOH C 617) 0.003
                                                  O(HETATM 4456  O   HOH G 545) 0.002
                                                  C(ATOM   2442  CZ3 TRP G 172) 0.002
                                                  H(ATOM   2452  HZ3 TRP G 172) 0.001
 
  4583  H(HETATM 4594 2H   HOH C 622)     (0.847) O(HETATM 4592  O   HOH C 622) 0.796
                                                  O(HETATM 4586  O   HOH C 530) 0.045
                                                  O(HETATM 4456  O   HOH G 545) 0.001
                                                  O(HETATM 4589  O   HOH C 617) 0.001
 
  4584  O(HETATM 4588  O   HOH C 647)     (1.862) H(HETATM 4590 2H   HOH C 647) 0.847
                                                  H(HETATM 4589 1H   HOH C 647) 0.825
                                                  C(ATOM   3477  C   ALA C 251) 0.016
                                                  O(ATOM   3512  O   THR C 253) 0.013
                                                  O(ATOM   3478  O   ALA C 251) 0.004
                                                  N(ATOM    761  NE2 HIS F  57) 0.004
                                                  C(ATOM   3511  C   THR C 253) 0.003
                                                  N(ATOM   3485  N   TRP C 252) 0.003
                                                  C(ATOM   3479  CB  ALA C 251) 0.002
                                                  N(ATOM   3509  N   THR C 253) 0.002
                                                  C(ATOM    762  CE1 HIS F  57) 0.002
                                                  H(ATOM   3481 2HB  ALA C 251) 0.002
 
  4585  H(HETATM 4589 1H   HOH C 647)     (0.865) O(HETATM 4588  O   HOH C 647) 0.825
                                                  O(ATOM   3512  O   THR C 253) 0.032
                                                  C(ATOM   3511  C   THR C 253) 0.002
                                                  C(ATOM   3479  CB  ALA C 251) 0.001
                                                  O(ATOM   3478  O   ALA C 251) 0.001
 
  4586  H(HETATM 4590 2H   HOH C 647)     (0.868) O(HETATM 4588  O   HOH C 647) 0.847
                                                  N(ATOM    761  NE2 HIS F  57) 0.011
                                                  H(ATOM   3523  HG  SER G 195) 0.002
                                                  N(ATOM   3485  N   TRP C 252) 0.002
                                                  C(ATOM   3479  CB  ALA C 251) 0.001
                                                  H(ATOM   3482 3HB  ALA C 251) 0.001
 

 **********************
 *                    *
 * JOB ENDED NORMALLY *
 *                    *
 **********************



 TOTAL JOB TIME:          1642.50 SECONDS

 == MOPAC DONE ==
