 *******************************************************************************
 ** Site#: 10005        For non-commercial use only    Version 17.037W 64BITS **
 *******************************************************************************
 ** Cite this program as: MOPAC2016, Version: 17.037W, James J. P. Stewart,   **
 ** Stewart Computational Chemistry, web: HTTP://OpenMOPAC.net. Days left: 361**
 *******************************************************************************
 **                                                                           **
 **                                MOPAC2016                                  **
 **                                                                           **
 *******************************************************************************

                              PM7 CALCULATION RESULTS


 *******************************************************************************
 *  CALCULATION DONE:                                Fri Feb 10 09:49:50 2017  *
 *  START_RES- STARTING RESIDUE NUMBERS DEFINED
 *  Keyword:   START_RES=(1E 16F 150G 250C 297G 298F 299G 300F) 
 *  CHAIN      - PDB CHAIN LETTERS EXPLICITLY DEFINED
 *  Keyword:   CHAINS=(EFGCGFGFEFGC) 
 *  MOZYME     - USE LOCALIZED M.O.s IN SOLVING THE SCF EQUATIONS
 *
 *
 *
 *                 CHARGE ON SYSTEM =    -1
 *
 *
 *
 *  EPS= 78.40 - USE ANDREAS KLAMT'S COSMO IMPLICIT SOLVATION MODEL
 *  1SCF       - DO 1 SCF AND THEN STOP 
 *  T=         - A TIME OF      2.0 WEEKS   REQUESTED
 *  DUMP=N     - RESTART FILE WRITTEN EVERY  7200.000 SECONDS
 *  GNORM=     - EXIT WHEN GRADIENT NORM DROPS BELOW  1.000    
 *  OUTPUT     - MINIMIZE OUTPUT
 *  BONDS      - NON-HYDROGEN BOND-ORDERS TO BE PRINTED
 *  HTML       - WRITE HTML SCRIPT TO READ PDB FILE USING JSMOL
 *******************************************************************************
 1SCF output  BONDS START_RES=(1E 16F 150G 250C 297G 298F 299G 300F)  CHAINS=(EFGCGFGFEFGC) T=2W  MOZYME EPS=78.4 GNORM=1 html  charge=-1
 Chymotrypsin Mechanism, Step 3
 Hydrogen atom has migrated from His 57 to Thr 253 peptide nitrogen
 

 General Reference for PM7:
 "Optimization of Parameters for Semiempirical Methods VI: More Modifications to the 
 NDDO Approximations and Re-optimization of Parameters", J. J. P. Stewart, J. Mol. Mod., 1:32, 19 (2013)
 http://www.springerlink.com/openurl.asp?genre=article&id=doi:10.1007/s00894-012-1667-x

           Empirical Formula: C1115 H2449 N302 O704 S16  =  4586 atoms


   Ion Atom No.           Label               Charge
 
    1   N  144   (ATOM    144  N   SER E  11)   +1  (2.5 Angstroms from anion  O  214, Label: ATOM    215  OE2 GLU F  20)
    2   N  148   (ATOM    149  N   ILE F  16)   +1  (2.6 Angstroms from anion  O 2728, Label: ATOM   2730  OD2 ASP G 194)
    3   C 2142   (ATOM   2144  CZ  ARG G 154)   +1  (4.4 Angstroms from anion  O  229, Label: ATOM    230  OE2 GLU F  21)
    4   N 3507   (ATOM   3510  N   THR C 253)   +1  (2.4 Angstroms from anion  O 3486, Label: ATOM   3489  O   TRP C 252)
 
    1   O  214   (ATOM    215  OE2 GLU F  20)   -1  (2.5 Angstroms from cation  N  144, Label: ATOM    144  N   SER E  11)
    2   O  229   (ATOM    230  OE2 GLU F  21)   -1  (4.4 Angstroms from cation  C 2142, Label: ATOM   2144  CZ  ARG G 154)
    3   O 1446   (ATOM   1447  OD2 ASP F 102)   -1  (7.3 Angstroms from cation  N 3507, Label: ATOM   3510  N   THR C 253)
    4   O 2728   (ATOM   2730  OD2 ASP G 194)   -1  (2.6 Angstroms from cation  N  148, Label: ATOM    149  N   ILE F  16)
    5   O 3486   (ATOM   3489  O   TRP C 252)   -1  (2.4 Angstroms from cation  N 3507, Label: ATOM   3510  N   THR C 253)

          COMPUTED CHARGE ON SYSTEM: -1

 -------------------------------------------------------------------------------
 1SCF output  BONDS START_RES=(1E 16F 150G 250C 297G 298F 299G 300F)  CHAINS=(EFGCGFGFEFGC) T=2W  MOZYME EPS=78.4 GNORM=1 html  charge=-1
 Chymotrypsin Mechanism, Step 3
 Hydrogen atom has migrated from His 57 to Thr 253 peptide nitrogen


     1SCF WAS SPECIFIED, SO BFGS WAS NOT USED                 
     SCF FIELD WAS ACHIEVED                                   


                              PM7 CALCULATION
                                                       MOPAC2016 (Version: 17.037W)
                                                       Fri Feb 10 10:17:50 2017
                                                       No. of days remaining = 361




          FINAL HEAT OF FORMATION =     -47904.59612 KCAL/MOL = -200432.83015 KJ/MOL
          VAN DER WAALS AREA      =       7517.35 SQUARE ANGSTROMS


          TOTAL ENERGY            =    -437388.93254 EV
          ELECTRONIC ENERGY       =  -66837432.08495 EV
          CORE-CORE REPULSION     =   66397649.44153 EV
          DIELECTRIC ENERGY       =        -58.77796 EV
          COSMO AREA              =       7517.35 SQUARE ANGSTROMS
          COSMO VOLUME            =      35478.66 CUBIC ANGSTROMS

          NO. OF FILLED LEVELS    =       6370
          MOLECULAR WEIGHT        =      31867.1731

          MOLECULAR DIMENSIONS (Angstroms)

            Atom       Atom       Distance
            O  4293    O  3780    53.88905
            O  4557    O  3527    48.18210
            H  4141    H  4256    46.92531


          SCF CALCULATIONS        =          1
 
          WALL-CLOCK TIME         = 28 MINUTES AND  0.473 SECONDS
          COMPUTATION TIME        = 23 MINUTES AND 49.765 SECONDS





           Empirical Formula: C1115 H2449 N302 O704 S16  =  4586 atoms


          NET CHARGE ON RESIDUES

      Residue         Charge  Anion or
                              Cation?
      CYS E   1       +0.101
      GLY E   2       -0.083
      VAL E   3       +0.017
      PRO E   4       +0.072
      ALA E   5       -0.010
      ILE E   6       +0.069
      GLN E   7       +0.031
      PRO E   8       +0.013
      VAL E   9       +0.035
      LEU E  10       +0.254
      SER E  11       +0.610  CATION
      ILE F  16       +0.838  CATION
      VAL F  17       +0.025
      ASN F  18       +0.072
      GLY F  19       +0.015
      GLU F  20       -0.791  ANION
      GLU F  21       -0.863  ANION
      ALA F  22       +0.055
      VAL F  23       +0.009
      PRO F  24       +0.044
      GLY F  25       -0.017
      SER F  26       +0.054
      TRP F  27       -0.061
      PRO F  28       +0.057
      TRP F  29       +0.017
      GLN F  30       -0.023
      VAL F  31       +0.033
      SER F  32       +0.017
      LEU F  33       -0.019
      GLN F  34       +0.031
      ASP F  35       -0.047
      LYS F  36       +0.074
      THR F  37       +0.011
      GLY F  38       +0.036
      PHE F  39       -0.002
      HIS F  40       +0.025
      PHE F  41       +0.007
      CYS F  42       -0.003
      GLY F  43       +0.082
      GLY F  44       -0.024
      SER F  45       -0.078
      LEU F  46       +0.042
      ILE F  47       -0.019
      ASN F  48       +0.014
      GLU F  49       +0.058
      ASN F  50       -0.036
      TRP F  51       +0.021
      VAL F  52       +0.000
      VAL F  53       -0.032
      THR F  54       +0.022
      ALA F  55       +0.017
      ALA F  56       -0.046
      HIS F  57       +0.069
      CYS F  58       +0.223
      GLY F  59       +0.052
      VAL F  60       +0.057
      THR F  61       -0.008
      THR F  62       -0.047
      SER F  63       +0.047
      ASP F  64       -0.083
      VAL F  65       +0.048
      VAL F  66       +0.008
      VAL F  67       +0.003
      ALA F  68       +0.015
      GLY F  69       -0.044
      GLU F  70       +0.101
      PHE F  71       +0.033
      ASP F  72       -0.103
      GLN F  73       -0.012
      GLY F  74       +0.090
      SER F  75       -0.034
      SER F  76       +0.063
      SER F  77       -0.043
      GLU F  78       -0.058
      LYS F  79       +0.136
      ILE F  80       +0.075
      GLN F  81       -0.033
      LYS F  82       -0.041
      LEU F  83       +0.082
      LYS F  84       +0.112
      ILE F  85       +0.035
      ALA F  86       -0.026
      LYS F  87       +0.025
      VAL F  88       -0.025
      PHE F  89       -0.013
      LYS F  90       +0.099
      ASN F  91       -0.035
      SER F  92       +0.029
      LYS F  93       -0.010
      TYR F  94       -0.012
      ASN F  95       +0.025
      SER F  96       +0.006
      LEU F  97       +0.087
      THR F  98       -0.073
      ILE F  99       +0.125
      ASN F 100       -0.073
      ASN F 101       -0.019
      ASP F 102       -0.811  ANION
      ILE F 103       -0.029
      THR F 104       -0.035
      LEU F 105       +0.024
      LEU F 106       -0.005
      LYS F 107       +0.000
      LEU F 108       +0.070
      SER F 109       -0.050
      THR F 110       -0.006
      ALA F 111       +0.021
      ALA F 112       +0.034
      SER F 113       -0.056
      PHE F 114       +0.117
      SER F 115       -0.018
      GLN F 116       +0.026
      THR F 117       -0.031
      VAL F 118       +0.004
      SER F 119       +0.062
      ALA F 120       -0.038
      VAL F 121       +0.051
      CYS F 122       -0.050
      LEU F 123       +0.011
      PRO F 124       +0.069
      SER F 125       -0.050
      ALA F 126       +0.061
      SER F 127       +0.038
      ASP F 128       -0.158
      ASP F 129       +0.068
      PHE F 130       -0.011
      ALA F 131       -0.005
      ALA F 132       +0.073
      GLY F 133       +0.028
      THR F 134       +0.027
      THR F 135       -0.061
      CYS F 136       +0.034
      VAL F 137       +0.008
      THR F 138       -0.031
      THR F 139       +0.043
      GLY F 140       +0.007
      TRP F 141       +0.048
      GLY F 142       -0.052
      LEU F 143       +0.068
      THR F 144       -0.038
      ARG F 145       +0.071
      TYR F 146       +0.005
      ASN G 150       -0.018
      THR G 151       -0.041
      PRO G 152       +0.164
      ASP G 153       -0.079
      ARG G 154       +1.012  CATION
      LEU G 155       +0.047
      GLN G 156       +0.039
      GLN G 157       +0.021
      ALA G 158       -0.026
      SER G 159       -0.013
      LEU G 160       +0.043
      PRO G 161       +0.043
      LEU G 162       +0.013
      LEU G 163       +0.000
      SER G 164       +0.041
      ASN G 165       -0.014
      THR G 166       +0.004
      ASN G 167       +0.100
      CYS G 168       -0.128
      LYS G 169       +0.092
      LYS G 170       +0.106
      TYR G 171       -0.002
      TRP G 172       -0.006
      GLY G 173       +0.036
      THR G 174       -0.013
      LYS G 175       +0.064
      ILE G 176       +0.006
      LYS G 177       +0.081
      ASP G 178       +0.008
      ALA G 179       -0.001
      MET G 180       +0.051
      ILE G 181       +0.012
      CYS G 182       +0.002
      ALA G 183       -0.024
      GLY G 184       +0.086
      ALA G 185       -0.019
      SER G 186       -0.005
      GLY G 187       +0.008
      VAL G 188       +0.038
      SER G 189       -0.088
      SER G 190       +0.037
      CYS G 191       -0.040
      MET G 192       -0.019
      GLY G 193       +0.081
      ASP G 194       -0.933  ANION
      SER G 195       -0.183
      GLY G 196       -0.015
      GLY G 197       -0.016
      PRO G 198       +0.075
      LEU G 199       -0.038
      VAL G 200       +0.015
      CYS G 201       -0.054
      LYS G 202       +0.138
      LYS G 203       +0.029
      ASN G 204       +0.018
      GLY G 205       +0.031
      ALA G 206       -0.026
      TRP G 207       +0.026
      THR G 208       -0.021
      LEU G 209       +0.013
      VAL G 210       -0.015
      GLY G 211       +0.016
      ILE G 212       -0.016
      VAL G 213       +0.021
      SER G 214       -0.030
      TRP G 215       +0.034
      GLY G 216       +0.018
      SER G 217       -0.054
      SER G 218       +0.069
      THR G 219       +0.025
      CYS G 220       +0.021
      SER G 221       -0.021
      THR G 222       +0.010
      SER G 223       +0.018
      THR G 224       +0.040
      PRO G 225       -0.035
      GLY G 226       -0.041
      VAL G 227       +0.024
      TYR G 228       +0.020
      ALA G 229       -0.016
      ARG G 230       +0.018
      VAL G 231       -0.038
      THR G 232       +0.024
      ALA G 233       +0.001
      LEU G 234       +0.038
      VAL G 235       +0.017
      ASN G 236       +0.007
      TRP G 237       +0.029
      VAL G 238       +0.030
      GLN G 239       +0.002
      GLN G 240       +0.089
      THR G 241       -0.047
      LEU G 242       +0.024
      ALA G 243       +0.054
      ALA G 244       +0.031
      ASN G 245       -0.030
      GLY C 250       +0.013
      ALA C 251       +0.059
      TRP C 252       -0.166
      THR C 253       +0.031
      LEU C 254       +0.076
      SO4 G 297       -0.110
      SO4 F 298       -0.017
      SO4 G 299       -0.261
      SO4 F 300       -0.026
      HOH G 637       +0.132
 


                   Salt Bridges Found

     No.          Cationic site                            Anionic site                Dist. (Angstroms)

      1  (ATOM    144  N   SER E  11)   E11(+)    (ATOM    215  OE2 GLU F  20)   F20(-)      2.49
      2  (ATOM   2145  NH1 ARG G 154)  G154(+)    (ATOM    229  OE1 GLU F  21)   F21(-)      2.57
      3  (ATOM    149  N   ILE F  16)   F16(+)    (ATOM   2730  OD2 ASP G 194)  G194(-)      2.61


 DIPOLE           X         Y         Z       TOTAL
 POINT-CHG.   191.852   157.402   318.628   403.864
 HYBRID        27.077    24.292    38.139    52.705
 SUM          218.929   181.694   356.767   456.317

                          BOND ORDERS BETWEEN ATOMS (VALENCIES)

     1  N(ATOM      1  N   CYS E   1)     (3.074) C(ATOM      2  CA  CYS E   1) 0.986
                                                  H(ATOM      7 1H   CYS E   1) 0.900
                                                  H(ATOM      8 2H   CYS E   1) 0.897
                                                  H(HETATM 3561 2H   HOH E 315) 0.089
                                                  O(HETATM 3559  O   HOH E 315) 0.031
                                                  C(ATOM      5  CB  CYS E   1) 0.017
 
     2  C(ATOM      2  CA  CYS E   1)     (3.958) N(ATOM      1  N   CYS E   1) 0.986
                                                  C(ATOM      5  CB  CYS E   1) 0.980
                                                  H(ATOM     11  HA  CYS E   1) 0.933
                                                  C(ATOM      3  C   CYS E   1) 0.928
                                                  O(ATOM      4  O   CYS E   1) 0.050
                                                  N(ATOM     12  N   GLY E   2) 0.018
                                                  C(ATOM     13  CA  GLY E   2) 0.017
 
     3  C(ATOM      3  C   CYS E   1)     (3.818) O(ATOM      4  O   CYS E   1) 1.659
                                                  N(ATOM     12  N   GLY E   2) 1.141
                                                  C(ATOM      2  CA  CYS E   1) 0.928
                                                  C(ATOM     13  CA  GLY E   2) 0.017
                                                  H(ATOM     18  H   GLY E   2) 0.011
 
     4  O(ATOM      4  O   CYS E   1)     (2.030) C(ATOM      3  C   CYS E   1) 1.659
                                                  N(ATOM     12  N   GLY E   2) 0.152
                                                  C(ATOM      2  CA  CYS E   1) 0.050
                                                  H(ATOM     18  H   GLY E   2) 0.016
 
     5  C(ATOM      5  CB  CYS E   1)     (3.932) S(ATOM      6  SG  CYS E   1) 0.985
                                                  C(ATOM      2  CA  CYS E   1) 0.980
                                                  H(ATOM      9 1HB  CYS E   1) 0.948
                                                  H(ATOM     10 2HB  CYS E   1) 0.926
                                                  S(ATOM   1738  SG  CYS F 122) 0.038
                                                  N(ATOM      1  N   CYS E   1) 0.017
 
     6  S(ATOM      6  SG  CYS E   1)     (2.292) S(ATOM   1738  SG  CYS F 122) 1.258
                                                  C(ATOM      5  CB  CYS E   1) 0.985
                                                  C(ATOM   1737  CB  CYS F 122) 0.038
 
     7  H(ATOM      7 1H   CYS E   1)     (0.920) N(ATOM      1  N   CYS E   1) 0.900
 
     8  H(ATOM      8 2H   CYS E   1)     (0.914) N(ATOM      1  N   CYS E   1) 0.897
 
     9  H(ATOM      9 1HB  CYS E   1)     (0.969) C(ATOM      5  CB  CYS E   1) 0.948
 
    10  H(ATOM     10 2HB  CYS E   1)     (0.953) C(ATOM      5  CB  CYS E   1) 0.926
 
    11  H(ATOM     11  HA  CYS E   1)     (0.965) C(ATOM      2  CA  CYS E   1) 0.933
 
    12  N(ATOM     12  N   GLY E   2)     (3.188) C(ATOM      3  C   CYS E   1) 1.141
                                                  C(ATOM     13  CA  GLY E   2) 0.937
                                                  H(ATOM     18  H   GLY E   2) 0.823
                                                  O(ATOM      4  O   CYS E   1) 0.152
                                                  C(ATOM      2  CA  CYS E   1) 0.018
                                                  C(ATOM     14  C   GLY E   2) 0.014
 
    13  C(ATOM     13  CA  GLY E   2)     (3.925) C(ATOM     14  C   GLY E   2) 0.939
                                                  N(ATOM     12  N   GLY E   2) 0.937
                                                  H(ATOM     17 2HA  GLY E   2) 0.936
                                                  H(ATOM     16 1HA  GLY E   2) 0.927
                                                  O(ATOM     15  O   GLY E   2) 0.042
                                                  C(ATOM     20  CA  VAL E   3) 0.017
                                                  N(ATOM     19  N   VAL E   3) 0.017
                                                  C(ATOM      2  CA  CYS E   1) 0.017
                                                  C(ATOM      3  C   CYS E   1) 0.017
                                                  H(ATOM     18  H   GLY E   2) 0.011
 
    14  C(ATOM     14  C   GLY E   2)     (3.809) O(ATOM     15  O   GLY E   2) 1.502
                                                  N(ATOM     19  N   VAL E   3) 1.260
                                                  C(ATOM     13  CA  GLY E   2) 0.939
                                                  C(ATOM     20  CA  VAL E   3) 0.015
                                                  N(ATOM     12  N   GLY E   2) 0.014
                                                  H(ATOM     32  H   VAL E   3) 0.012
 
    15  O(ATOM     15  O   GLY E   2)     (1.886) C(ATOM     14  C   GLY E   2) 1.502
                                                  N(ATOM     19  N   VAL E   3) 0.147
                                                  C(ATOM     13  CA  GLY E   2) 0.042
                                                  H(ATOM   2907  H   TRP G 207) 0.034
                                                  H(ATOM     32  H   VAL E   3) 0.014
                                                  N(ATOM   2891  N   TRP G 207) 0.012
 
    16  H(ATOM     16 1HA  GLY E   2)     (0.962) C(ATOM     13  CA  GLY E   2) 0.927
 
    17  H(ATOM     17 2HA  GLY E   2)     (0.959) C(ATOM     13  CA  GLY E   2) 0.936
 
    18  H(ATOM     18  H   GLY E   2)     (0.883) N(ATOM     12  N   GLY E   2) 0.823
                                                  O(ATOM      4  O   CYS E   1) 0.016
                                                  O(ATOM   1710  O   ALA F 120) 0.013
                                                  C(ATOM      3  C   CYS E   1) 0.011
                                                  C(ATOM     13  CA  GLY E   2) 0.011
 
    19  N(ATOM     19  N   VAL E   3)     (3.210) C(ATOM     14  C   GLY E   2) 1.260
                                                  C(ATOM     20  CA  VAL E   3) 0.915
                                                  H(ATOM     32  H   VAL E   3) 0.803
                                                  O(ATOM     15  O   GLY E   2) 0.147
                                                  C(ATOM     13  CA  GLY E   2) 0.017
                                                  C(ATOM     21  C   VAL E   3) 0.013
 
    20  C(ATOM     20  CA  VAL E   3)     (3.921) C(ATOM     23  CB  VAL E   3) 0.967
                                                  H(ATOM     33  HA  VAL E   3) 0.942
                                                  C(ATOM     21  C   VAL E   3) 0.923
                                                  N(ATOM     19  N   VAL E   3) 0.915
                                                  O(ATOM     22  O   VAL E   3) 0.042
                                                  C(ATOM     13  CA  GLY E   2) 0.017
                                                  C(ATOM     36  CA  PRO E   4) 0.016
                                                  C(ATOM     14  C   GLY E   2) 0.015
                                                  N(ATOM     35  N   PRO E   4) 0.015
                                                  H(ATOM     32  H   VAL E   3) 0.012
 
    21  C(ATOM     21  C   VAL E   3)     (3.813) O(ATOM     22  O   VAL E   3) 1.481
                                                  N(ATOM     35  N   PRO E   4) 1.263
                                                  C(ATOM     20  CA  VAL E   3) 0.923
                                                  C(ATOM     41  CD  PRO E   4) 0.019
                                                  C(ATOM     36  CA  PRO E   4) 0.017
                                                  N(ATOM     19  N   VAL E   3) 0.013
 
    22  O(ATOM     22  O   VAL E   3)     (1.924) C(ATOM     21  C   VAL E   3) 1.481
                                                  N(ATOM     35  N   PRO E   4) 0.148
                                                  C(ATOM     20  CA  VAL E   3) 0.042
                                                  H(HETATM 3570 2H   HOH E 428) 0.033
                                                  H(HETATM 3579 2H   HOH E 477) 0.026
                                                  C(ATOM     41  CD  PRO E   4) 0.021
                                                  O(HETATM 3568  O   HOH E 428) 0.013
 
    23  C(ATOM     23  CB  VAL E   3)     (3.978) C(ATOM     25  CG2 VAL E   3) 1.004
                                                  C(ATOM     24  CG1 VAL E   3) 1.001
                                                  C(ATOM     20  CA  VAL E   3) 0.967
                                                  H(ATOM     34  HB  VAL E   3) 0.962
 
    24  C(ATOM     24  CG1 VAL E   3)     (3.921) C(ATOM     23  CB  VAL E   3) 1.001
                                                  H(ATOM     27 2HG1 VAL E   3) 0.968
                                                  H(ATOM     26 1HG1 VAL E   3) 0.963
                                                  H(ATOM     28 3HG1 VAL E   3) 0.960
 
    25  C(ATOM     25  CG2 VAL E   3)     (3.919) C(ATOM     23  CB  VAL E   3) 1.004
                                                  H(ATOM     29 1HG2 VAL E   3) 0.967
                                                  H(ATOM     30 2HG2 VAL E   3) 0.962
                                                  H(ATOM     31 3HG2 VAL E   3) 0.960
 
    26  H(ATOM     26 1HG1 VAL E   3)     (0.973) C(ATOM     24  CG1 VAL E   3) 0.963
 
    27  H(ATOM     27 2HG1 VAL E   3)     (0.977) C(ATOM     24  CG1 VAL E   3) 0.968
 
    28  H(ATOM     28 3HG1 VAL E   3)     (0.970) C(ATOM     24  CG1 VAL E   3) 0.960
 
    29  H(ATOM     29 1HG2 VAL E   3)     (0.977) C(ATOM     25  CG2 VAL E   3) 0.967
 
    30  H(ATOM     30 2HG2 VAL E   3)     (0.972) C(ATOM     25  CG2 VAL E   3) 0.962
 
    31  H(ATOM     31 3HG2 VAL E   3)     (0.971) C(ATOM     25  CG2 VAL E   3) 0.960
 
    32  H(ATOM     32  H   VAL E   3)     (0.865) N(ATOM     19  N   VAL E   3) 0.803
                                                  O(ATOM     15  O   GLY E   2) 0.014
                                                  C(ATOM     20  CA  VAL E   3) 0.012
                                                  C(ATOM     14  C   GLY E   2) 0.012
                                                  O(HETATM 3568  O   HOH E 428) 0.010
 
    33  H(ATOM     33  HA  VAL E   3)     (0.963) C(ATOM     20  CA  VAL E   3) 0.942
 
    34  H(ATOM     34  HB  VAL E   3)     (0.979) C(ATOM     23  CB  VAL E   3) 0.962
 
    35  N(ATOM     35  N   PRO E   4)     (3.298) C(ATOM     21  C   VAL E   3) 1.263
                                                  C(ATOM     36  CA  PRO E   4) 0.886
                                                  C(ATOM     41  CD  PRO E   4) 0.876
                                                  O(ATOM     22  O   VAL E   3) 0.148
                                                  C(ATOM     20  CA  VAL E   3) 0.015
 
    36  C(ATOM     36  CA  PRO E   4)     (3.937) C(ATOM     39  CB  PRO E   4) 0.986
                                                  H(ATOM     48  HA  PRO E   4) 0.933
                                                  C(ATOM     37  C   PRO E   4) 0.927
                                                  N(ATOM     35  N   PRO E   4) 0.886
                                                  O(ATOM     38  O   PRO E   4) 0.046
                                                  C(ATOM     50  CA  ALA E   5) 0.017
                                                  C(ATOM     41  CD  PRO E   4) 0.017
                                                  C(ATOM     21  C   VAL E   3) 0.017
                                                  N(ATOM     49  N   ALA E   5) 0.016
                                                  C(ATOM     20  CA  VAL E   3) 0.016
                                                  C(ATOM    324  CG  PRO F  28) 0.013
 
    37  C(ATOM     37  C   PRO E   4)     (3.814) O(ATOM     38  O   PRO E   4) 1.578
                                                  N(ATOM     49  N   ALA E   5) 1.210
                                                  C(ATOM     36  CA  PRO E   4) 0.927
                                                  C(ATOM     50  CA  ALA E   5) 0.014
                                                  H(ATOM     57  H   ALA E   5) 0.012
 
    38  O(ATOM     38  O   PRO E   4)     (2.026) C(ATOM     37  C   PRO E   4) 1.578
                                                  N(ATOM     49  N   ALA E   5) 0.152
                                                  C(ATOM     36  CA  PRO E   4) 0.046
                                                  H(HETATM 3575 1H   HOH E 475) 0.029
                                                  H(ATOM     57  H   ALA E   5) 0.015
                                                  O(HETATM 3574  O   HOH E 475) 0.011
 
    39  C(ATOM     39  CB  PRO E   4)     (3.946) C(ATOM     40  CG  PRO E   4) 0.992
                                                  C(ATOM     36  CA  PRO E   4) 0.986
                                                  H(ATOM     45 2HB  PRO E   4) 0.951
                                                  H(ATOM     44 1HB  PRO E   4) 0.945
 
    40  C(ATOM     40  CG  PRO E   4)     (3.960) C(ATOM     41  CD  PRO E   4) 1.002
                                                  C(ATOM     39  CB  PRO E   4) 0.992
                                                  H(ATOM     47 2HG  PRO E   4) 0.965
                                                  H(ATOM     46 1HG  PRO E   4) 0.957
 
    41  C(ATOM     41  CD  PRO E   4)     (3.905) C(ATOM     40  CG  PRO E   4) 1.002
                                                  H(ATOM     42 1HD  PRO E   4) 0.958
                                                  H(ATOM     43 2HD  PRO E   4) 0.950
                                                  N(ATOM     35  N   PRO E   4) 0.876
                                                  O(ATOM     22  O   VAL E   3) 0.021
                                                  C(ATOM     21  C   VAL E   3) 0.019
                                                  C(ATOM     36  CA  PRO E   4) 0.017
 
    42  H(ATOM     42 1HD  PRO E   4)     (0.976) C(ATOM     41  CD  PRO E   4) 0.958
 
    43  H(ATOM     43 2HD  PRO E   4)     (0.973) C(ATOM     41  CD  PRO E   4) 0.950
 
    44  H(ATOM     44 1HB  PRO E   4)     (0.965) C(ATOM     39  CB  PRO E   4) 0.945
 
    45  H(ATOM     45 2HB  PRO E   4)     (0.968) C(ATOM     39  CB  PRO E   4) 0.951
 
    46  H(ATOM     46 1HG  PRO E   4)     (0.974) C(ATOM     40  CG  PRO E   4) 0.957
 
    47  H(ATOM     47 2HG  PRO E   4)     (0.977) C(ATOM     40  CG  PRO E   4) 0.965
 
    48  H(ATOM     48  HA  PRO E   4)     (0.970) C(ATOM     36  CA  PRO E   4) 0.933
                                                  H(ATOM    331 2HG  PRO F  28) 0.013
 
    49  N(ATOM     49  N   ALA E   5)     (3.229) C(ATOM     37  C   PRO E   4) 1.210
                                                  C(ATOM     50  CA  ALA E   5) 0.920
                                                  H(ATOM     57  H   ALA E   5) 0.801
                                                  O(ATOM     38  O   PRO E   4) 0.152
                                                  C(ATOM     36  CA  PRO E   4) 0.016
                                                  C(ATOM     51  C   ALA E   5) 0.014
 
    50  C(ATOM     50  CA  ALA E   5)     (3.924) C(ATOM     53  CB  ALA E   5) 0.995
                                                  H(ATOM     58  HA  ALA E   5) 0.935
                                                  N(ATOM     49  N   ALA E   5) 0.920
                                                  C(ATOM     51  C   ALA E   5) 0.919
                                                  O(ATOM     52  O   ALA E   5) 0.040
                                                  C(ATOM     60  CA  ILE E   6) 0.018
                                                  C(ATOM     36  CA  PRO E   4) 0.017
                                                  N(ATOM     59  N   ILE E   6) 0.016
                                                  C(ATOM     37  C   PRO E   4) 0.014
                                                  H(ATOM     57  H   ALA E   5) 0.012
 
    51  C(ATOM     51  C   ALA E   5)     (3.800) O(ATOM     52  O   ALA E   5) 1.477
                                                  N(ATOM     59  N   ILE E   6) 1.272
                                                  C(ATOM     50  CA  ALA E   5) 0.919
                                                  C(ATOM     60  CA  ILE E   6) 0.015
                                                  N(ATOM     49  N   ALA E   5) 0.014
                                                  H(ATOM     75  H   ILE E   6) 0.012
 
    52  O(ATOM     52  O   ALA E   5)     (1.890) C(ATOM     51  C   ALA E   5) 1.477
                                                  N(ATOM     59  N   ILE E   6) 0.143
                                                  C(ATOM     50  CA  ALA E   5) 0.040
                                                  H(HETATM 3605 1H   HOH E 542) 0.032
                                                  H(HETATM 3923 1H   HOH F 445) 0.026
                                                  H(ATOM     75  H   ILE E   6) 0.014
                                                  O(HETATM 3604  O   HOH E 542) 0.012
                                                  O(HETATM 3922  O   HOH F 445) 0.010
 
    53  C(ATOM     53  CB  ALA E   5)     (3.917) C(ATOM     50  CA  ALA E   5) 0.995
                                                  H(ATOM     55 2HB  ALA E   5) 0.963
                                                  H(ATOM     56 3HB  ALA E   5) 0.953
                                                  H(ATOM     54 1HB  ALA E   5) 0.952
 
    54  H(ATOM     54 1HB  ALA E   5)     (0.965) C(ATOM     53  CB  ALA E   5) 0.952
 
    55  H(ATOM     55 2HB  ALA E   5)     (0.977) C(ATOM     53  CB  ALA E   5) 0.963
 
    56  H(ATOM     56 3HB  ALA E   5)     (0.968) C(ATOM     53  CB  ALA E   5) 0.953
 
    57  H(ATOM     57  H   ALA E   5)     (0.866) N(ATOM     49  N   ALA E   5) 0.801
                                                  O(ATOM     38  O   PRO E   4) 0.015
                                                  O(HETATM 3649  O   HOH F 312) 0.014
                                                  C(ATOM     50  CA  ALA E   5) 0.012
                                                  C(ATOM     37  C   PRO E   4) 0.012
 
    58  H(ATOM     58  HA  ALA E   5)     (0.959) C(ATOM     50  CA  ALA E   5) 0.935
 
    59  N(ATOM     59  N   ILE E   6)     (3.277) C(ATOM     51  C   ALA E   5) 1.272
                                                  C(ATOM     60  CA  ILE E   6) 0.912
                                                  H(ATOM     75  H   ILE E   6) 0.783
                                                  O(ATOM     52  O   ALA E   5) 0.143
                                                  C(ATOM     50  CA  ALA E   5) 0.016
                                                  C(ATOM     61  C   ILE E   6) 0.014
                                                  O(HETATM 3646  O   HOH F 311) 0.011
 
    60  C(ATOM     60  CA  ILE E   6)     (3.936) C(ATOM     63  CB  ILE E   6) 0.973
                                                  H(ATOM     76  HA  ILE E   6) 0.947
                                                  C(ATOM     61  C   ILE E   6) 0.914
                                                  N(ATOM     59  N   ILE E   6) 0.912
                                                  O(ATOM     62  O   ILE E   6) 0.047
                                                  C(ATOM     50  CA  ALA E   5) 0.018
                                                  C(ATOM     79  CA  GLN E   7) 0.018
                                                  N(ATOM     78  N   GLN E   7) 0.017
                                                  C(ATOM     51  C   ALA E   5) 0.015
                                                  H(ATOM     75  H   ILE E   6) 0.010
 
    61  C(ATOM     61  C   ILE E   6)     (3.822) O(ATOM     62  O   ILE E   6) 1.628
                                                  N(ATOM     78  N   GLN E   7) 1.171
                                                  C(ATOM     60  CA  ILE E   6) 0.914
                                                  N(ATOM     59  N   ILE E   6) 0.014
                                                  H(ATOM     93  H   GLN E   7) 0.014
                                                  C(ATOM     79  CA  GLN E   7) 0.013
 
    62  O(ATOM     62  O   ILE E   6)     (1.996) C(ATOM     61  C   ILE E   6) 1.628
                                                  N(ATOM     78  N   GLN E   7) 0.158
                                                  C(ATOM     60  CA  ILE E   6) 0.047
                                                  H(ATOM     93  H   GLN E   7) 0.017
 
    63  C(ATOM     63  CB  ILE E   6)     (3.971) C(ATOM     65  CG2 ILE E   6) 1.001
                                                  C(ATOM     64  CG1 ILE E   6) 0.995
                                                  C(ATOM     60  CA  ILE E   6) 0.973
                                                  H(ATOM     77  HB  ILE E   6) 0.956
 
    64  C(ATOM     64  CG1 ILE E   6)     (3.967) C(ATOM     66  CD1 ILE E   6) 1.006
                                                  C(ATOM     63  CB  ILE E   6) 0.995
                                                  H(ATOM     68 2HG1 ILE E   6) 0.967
                                                  H(ATOM     67 1HG1 ILE E   6) 0.961
 
    65  C(ATOM     65  CG2 ILE E   6)     (3.925) C(ATOM     63  CB  ILE E   6) 1.001
                                                  H(ATOM     69 1HG2 ILE E   6) 0.965
                                                  H(ATOM     70 2HG2 ILE E   6) 0.964
                                                  H(ATOM     71 3HG2 ILE E   6) 0.959
 
    66  C(ATOM     66  CD1 ILE E   6)     (3.934) C(ATOM     64  CG1 ILE E   6) 1.006
                                                  H(ATOM     73 2HD1 ILE E   6) 0.969
                                                  H(ATOM     72 1HD1 ILE E   6) 0.969
                                                  H(ATOM     74 3HD1 ILE E   6) 0.964
 
    67  H(ATOM     67 1HG1 ILE E   6)     (0.974) C(ATOM     64  CG1 ILE E   6) 0.961
 
    68  H(ATOM     68 2HG1 ILE E   6)     (0.981) C(ATOM     64  CG1 ILE E   6) 0.967
 
    69  H(ATOM     69 1HG2 ILE E   6)     (0.978) C(ATOM     65  CG2 ILE E   6) 0.965
 
    70  H(ATOM     70 2HG2 ILE E   6)     (0.972) C(ATOM     65  CG2 ILE E   6) 0.964
 
    71  H(ATOM     71 3HG2 ILE E   6)     (0.972) C(ATOM     65  CG2 ILE E   6) 0.959
 
    72  H(ATOM     72 1HD1 ILE E   6)     (0.978) C(ATOM     66  CD1 ILE E   6) 0.969
 
    73  H(ATOM     73 2HD1 ILE E   6)     (0.978) C(ATOM     66  CD1 ILE E   6) 0.969
 
    74  H(ATOM     74 3HD1 ILE E   6)     (0.976) C(ATOM     66  CD1 ILE E   6) 0.964
 
    75  H(ATOM     75  H   ILE E   6)     (0.858) N(ATOM     59  N   ILE E   6) 0.783
                                                  O(HETATM 3646  O   HOH F 311) 0.028
                                                  O(ATOM     52  O   ALA E   5) 0.014
                                                  C(ATOM     51  C   ALA E   5) 0.012
                                                  C(ATOM     60  CA  ILE E   6) 0.010
 
    76  H(ATOM     76  HA  ILE E   6)     (0.969) C(ATOM     60  CA  ILE E   6) 0.947
 
    77  H(ATOM     77  HB  ILE E   6)     (0.974) C(ATOM     63  CB  ILE E   6) 0.956
 
    78  N(ATOM     78  N   GLN E   7)     (3.236) C(ATOM     61  C   ILE E   6) 1.171
                                                  C(ATOM     79  CA  GLN E   7) 0.927
                                                  H(ATOM     93  H   GLN E   7) 0.819
                                                  O(ATOM     62  O   ILE E   6) 0.158
                                                  C(ATOM     60  CA  ILE E   6) 0.017
                                                  C(ATOM     80  C   GLN E   7) 0.016
 
    79  C(ATOM     79  CA  GLN E   7)     (3.939) C(ATOM     82  CB  GLN E   7) 0.985
                                                  H(ATOM     94  HA  GLN E   7) 0.927
                                                  N(ATOM     78  N   GLN E   7) 0.927
                                                  C(ATOM     80  C   GLN E   7) 0.918
                                                  O(ATOM     81  O   GLN E   7) 0.044
                                                  C(ATOM     60  CA  ILE E   6) 0.018
                                                  C(ATOM     96  CA  PRO E   8) 0.016
                                                  N(ATOM     95  N   PRO E   8) 0.014
                                                  C(ATOM     61  C   ILE E   6) 0.013
                                                  H(ATOM     93  H   GLN E   7) 0.011
 
    80  C(ATOM     80  C   GLN E   7)     (3.821) O(ATOM     81  O   GLN E   7) 1.568
                                                  N(ATOM     95  N   PRO E   8) 1.196
                                                  C(ATOM     79  CA  GLN E   7) 0.918
                                                  C(ATOM    101  CD  PRO E   8) 0.020
                                                  N(ATOM     78  N   GLN E   7) 0.016
                                                  C(ATOM     96  CA  PRO E   8) 0.015
 
    81  O(ATOM     81  O   GLN E   7)     (2.039) C(ATOM     80  C   GLN E   7) 1.568
                                                  N(ATOM     95  N   PRO E   8) 0.153
                                                  C(ATOM     79  CA  GLN E   7) 0.044
                                                  H(HETATM 3602 1H   HOH E 528) 0.036
                                                  C(ATOM    101  CD  PRO E   8) 0.022
                                                  O(HETATM 3601  O   HOH E 528) 0.015
 
    82  C(ATOM     82  CB  GLN E   7)     (3.955) C(ATOM     79  CA  GLN E   7) 0.985
                                                  C(ATOM     83  CG  GLN E   7) 0.984
                                                  H(ATOM     87 1HB  GLN E   7) 0.954
                                                  H(ATOM     88 2HB  GLN E   7) 0.949
 
    83  C(ATOM     83  CG  GLN E   7)     (3.945) C(ATOM     82  CB  GLN E   7) 0.984
                                                  C(ATOM     84  CD  GLN E   7) 0.969
                                                  H(ATOM     90 2HG  GLN E   7) 0.951
                                                  H(ATOM     89 1HG  GLN E   7) 0.931
                                                  O(ATOM     85  OE1 GLN E   7) 0.039
                                                  N(ATOM     86  NE2 GLN E   7) 0.018
                                                  H(ATOM     91 1HE2 GLN E   7) 0.013
 
    84  C(ATOM     84  CD  GLN E   7)     (3.808) O(ATOM     85  OE1 GLN E   7) 1.490
                                                  N(ATOM     86  NE2 GLN E   7) 1.274
                                                  C(ATOM     83  CG  GLN E   7) 0.969
                                                  H(ATOM     92 2HE2 GLN E   7) 0.012
                                                  H(ATOM     91 1HE2 GLN E   7) 0.011
 
    85  O(ATOM     85  OE1 GLN E   7)     (1.964) C(ATOM     84  CD  GLN E   7) 1.490
                                                  N(ATOM     86  NE2 GLN E   7) 0.147
                                                  C(ATOM     83  CG  GLN E   7) 0.039
                                                  H(HETATM 3611 1H   HOH E 569) 0.038
                                                  H(HETATM 3597 2H   HOH E 498) 0.033
                                                  O(HETATM 3610  O   HOH E 569) 0.016
                                                  H(ATOM     92 2HE2 GLN E   7) 0.016
                                                  O(HETATM 3595  O   HOH E 498) 0.013
 
    86  N(ATOM     86  NE2 GLN E   7)     (3.204) C(ATOM     84  CD  GLN E   7) 1.274
                                                  H(ATOM     91 1HE2 GLN E   7) 0.851
                                                  H(ATOM     92 2HE2 GLN E   7) 0.820
                                                  O(ATOM     85  OE1 GLN E   7) 0.147
                                                  C(ATOM     83  CG  GLN E   7) 0.018
 
    87  H(ATOM     87 1HB  GLN E   7)     (0.972) C(ATOM     82  CB  GLN E   7) 0.954
 
    88  H(ATOM     88 2HB  GLN E   7)     (0.963) C(ATOM     82  CB  GLN E   7) 0.949
 
    89  H(ATOM     89 1HG  GLN E   7)     (0.957) C(ATOM     83  CG  GLN E   7) 0.931
 
    90  H(ATOM     90 2HG  GLN E   7)     (0.968) C(ATOM     83  CG  GLN E   7) 0.951
 
    91  H(ATOM     91 1HE2 GLN E   7)     (0.888) N(ATOM     86  NE2 GLN E   7) 0.851
                                                  C(ATOM     83  CG  GLN E   7) 0.013
                                                  C(ATOM     84  CD  GLN E   7) 0.011
 
    92  H(ATOM     92 2HE2 GLN E   7)     (0.878) N(ATOM     86  NE2 GLN E   7) 0.820
                                                  O(HETATM 3622  O   HOH E 628) 0.024
                                                  O(ATOM     85  OE1 GLN E   7) 0.016
                                                  C(ATOM     84  CD  GLN E   7) 0.012
 
    93  H(ATOM     93  H   GLN E   7)     (0.874) N(ATOM     78  N   GLN E   7) 0.819
                                                  O(ATOM     62  O   ILE E   6) 0.017
                                                  C(ATOM     61  C   ILE E   6) 0.014
                                                  C(ATOM     79  CA  GLN E   7) 0.011
 
    94  H(ATOM     94  HA  GLN E   7)     (0.955) C(ATOM     79  CA  GLN E   7) 0.927
 
    95  N(ATOM     95  N   PRO E   8)     (3.279) C(ATOM     80  C   GLN E   7) 1.196
                                                  C(ATOM     96  CA  PRO E   8) 0.908
                                                  C(ATOM    101  CD  PRO E   8) 0.872
                                                  O(ATOM     81  O   GLN E   7) 0.153
                                                  C(ATOM     79  CA  GLN E   7) 0.014
                                                  C(ATOM     97  C   PRO E   8) 0.010
 
    96  C(ATOM     96  CA  PRO E   8)     (3.946) C(ATOM     99  CB  PRO E   8) 0.989
                                                  H(ATOM    108  HA  PRO E   8) 0.931
                                                  C(ATOM     97  C   PRO E   8) 0.927
                                                  N(ATOM     95  N   PRO E   8) 0.908
                                                  O(ATOM     98  O   PRO E   8) 0.040
                                                  C(ATOM    110  CA  VAL E   9) 0.017
                                                  C(ATOM    101  CD  PRO E   8) 0.017
                                                  N(ATOM    109  N   VAL E   9) 0.016
                                                  C(ATOM     79  CA  GLN E   7) 0.016
                                                  C(ATOM     80  C   GLN E   7) 0.015
 
    97  C(ATOM     97  C   PRO E   8)     (3.796) O(ATOM     98  O   PRO E   8) 1.511
                                                  N(ATOM    109  N   VAL E   9) 1.236
                                                  C(ATOM     96  CA  PRO E   8) 0.927
                                                  C(ATOM    110  CA  VAL E   9) 0.014
                                                  H(ATOM    122  H   VAL E   9) 0.012
                                                  N(ATOM     95  N   PRO E   8) 0.010
 
    98  O(ATOM     98  O   PRO E   8)     (1.921) C(ATOM     97  C   PRO E   8) 1.511
                                                  N(ATOM    109  N   VAL E   9) 0.145
                                                  C(ATOM     96  CA  PRO E   8) 0.040
                                                  H(HETATM 3623 1H   HOH E 628) 0.032
                                                  H(HETATM 3617 1H   HOH E 586) 0.020
                                                  H(ATOM    122  H   VAL E   9) 0.014
                                                  O(HETATM 3622  O   HOH E 628) 0.012
 
    99  C(ATOM     99  CB  PRO E   8)     (3.955) C(ATOM     96  CA  PRO E   8) 0.989
                                                  C(ATOM    100  CG  PRO E   8) 0.989
                                                  H(ATOM    104 1HB  PRO E   8) 0.966
                                                  H(ATOM    105 2HB  PRO E   8) 0.956
 
   100  C(ATOM    100  CG  PRO E   8)     (3.958) C(ATOM    101  CD  PRO E   8) 1.003
                                                  C(ATOM     99  CB  PRO E   8) 0.989
                                                  H(ATOM    106 1HG  PRO E   8) 0.968
                                                  H(ATOM    107 2HG  PRO E   8) 0.953
 
   101  C(ATOM    101  CD  PRO E   8)     (3.911) C(ATOM    100  CG  PRO E   8) 1.003
                                                  H(ATOM    102 1HD  PRO E   8) 0.958
                                                  H(ATOM    103 2HD  PRO E   8) 0.945
                                                  N(ATOM     95  N   PRO E   8) 0.872
                                                  O(ATOM     81  O   GLN E   7) 0.022
                                                  C(ATOM     80  C   GLN E   7) 0.020
                                                  C(ATOM     96  CA  PRO E   8) 0.017
 
   102  H(ATOM    102 1HD  PRO E   8)     (0.976) C(ATOM    101  CD  PRO E   8) 0.958
 
   103  H(ATOM    103 2HD  PRO E   8)     (0.965) C(ATOM    101  CD  PRO E   8) 0.945
 
   104  H(ATOM    104 1HB  PRO E   8)     (0.979) C(ATOM     99  CB  PRO E   8) 0.966
 
   105  H(ATOM    105 2HB  PRO E   8)     (0.970) C(ATOM     99  CB  PRO E   8) 0.956
 
   106  H(ATOM    106 1HG  PRO E   8)     (0.979) C(ATOM    100  CG  PRO E   8) 0.968
 
   107  H(ATOM    107 2HG  PRO E   8)     (0.965) C(ATOM    100  CG  PRO E   8) 0.953
 
   108  H(ATOM    108  HA  PRO E   8)     (0.964) C(ATOM     96  CA  PRO E   8) 0.931
 
   109  N(ATOM    109  N   VAL E   9)     (3.248) C(ATOM     97  C   PRO E   8) 1.236
                                                  C(ATOM    110  CA  VAL E   9) 0.917
                                                  H(ATOM    122  H   VAL E   9) 0.797
                                                  O(ATOM     98  O   PRO E   8) 0.145
                                                  C(ATOM    111  C   VAL E   9) 0.017
                                                  C(ATOM     96  CA  PRO E   8) 0.016
 
   110  C(ATOM    110  CA  VAL E   9)     (3.919) C(ATOM    113  CB  VAL E   9) 0.967
                                                  H(ATOM    123  HA  VAL E   9) 0.942
                                                  C(ATOM    111  C   VAL E   9) 0.919
                                                  N(ATOM    109  N   VAL E   9) 0.917
                                                  O(ATOM    112  O   VAL E   9) 0.043
                                                  C(ATOM    126  CA  LEU E  10) 0.018
                                                  C(ATOM     96  CA  PRO E   8) 0.017
                                                  N(ATOM    125  N   LEU E  10) 0.014
                                                  C(ATOM     97  C   PRO E   8) 0.014
                                                  H(ATOM    122  H   VAL E   9) 0.012
 
   111  C(ATOM    111  C   VAL E   9)     (3.810) O(ATOM    112  O   VAL E   9) 1.528
                                                  N(ATOM    125  N   LEU E  10) 1.235
                                                  C(ATOM    110  CA  VAL E   9) 0.919
                                                  N(ATOM    109  N   VAL E   9) 0.017
                                                  C(ATOM    126  CA  LEU E  10) 0.015
                                                  H(ATOM    141  H   LEU E  10) 0.012
 
   112  O(ATOM    112  O   VAL E   9)     (1.957) C(ATOM    111  C   VAL E   9) 1.528
                                                  N(ATOM    125  N   LEU E  10) 0.150
                                                  C(ATOM    110  CA  VAL E   9) 0.043
                                                  H(HETATM 3608 1H   HOH E 546) 0.035
                                                  H(ATOM    141  H   LEU E  10) 0.014
                                                  O(HETATM 3607  O   HOH E 546) 0.012
                                                  H(ATOM   2209 1HE2 GLN G 157) 0.011
 
   113  C(ATOM    113  CB  VAL E   9)     (3.978) C(ATOM    115  CG2 VAL E   9) 1.003
                                                  C(ATOM    114  CG1 VAL E   9) 1.001
                                                  C(ATOM    110  CA  VAL E   9) 0.967
                                                  H(ATOM    124  HB  VAL E   9) 0.957
 
   114  C(ATOM    114  CG1 VAL E   9)     (3.918) C(ATOM    113  CB  VAL E   9) 1.001
                                                  H(ATOM    116 1HG1 VAL E   9) 0.966
                                                  H(ATOM    117 2HG1 VAL E   9) 0.964
                                                  H(ATOM    118 3HG1 VAL E   9) 0.958
 
   115  C(ATOM    115  CG2 VAL E   9)     (3.925) C(ATOM    113  CB  VAL E   9) 1.003
                                                  H(ATOM    120 2HG2 VAL E   9) 0.963
                                                  H(ATOM    119 1HG2 VAL E   9) 0.962
                                                  H(ATOM    121 3HG2 VAL E   9) 0.961
 
   116  H(ATOM    116 1HG1 VAL E   9)     (0.978) C(ATOM    114  CG1 VAL E   9) 0.966
 
   117  H(ATOM    117 2HG1 VAL E   9)     (0.974) C(ATOM    114  CG1 VAL E   9) 0.964
 
   118  H(ATOM    118 3HG1 VAL E   9)     (0.969) C(ATOM    114  CG1 VAL E   9) 0.958
 
   119  H(ATOM    119 1HG2 VAL E   9)     (0.973) C(ATOM    115  CG2 VAL E   9) 0.962
 
   120  H(ATOM    120 2HG2 VAL E   9)     (0.973) C(ATOM    115  CG2 VAL E   9) 0.963
 
   121  H(ATOM    121 3HG2 VAL E   9)     (0.973) C(ATOM    115  CG2 VAL E   9) 0.961
 
   122  H(ATOM    122  H   VAL E   9)     (0.861) N(ATOM    109  N   VAL E   9) 0.797
                                                  O(HETATM 4240  O   HOH G 314) 0.015
                                                  O(ATOM     98  O   PRO E   8) 0.014
                                                  C(ATOM     97  C   PRO E   8) 0.012
                                                  C(ATOM    110  CA  VAL E   9) 0.012
 
   123  H(ATOM    123  HA  VAL E   9)     (0.966) C(ATOM    110  CA  VAL E   9) 0.942
 
   124  H(ATOM    124  HB  VAL E   9)     (0.978) C(ATOM    113  CB  VAL E   9) 0.957
 
   125  N(ATOM    125  N   LEU E  10)     (3.259) C(ATOM    111  C   VAL E   9) 1.235
                                                  C(ATOM    126  CA  LEU E  10) 0.925
                                                  H(ATOM    141  H   LEU E  10) 0.794
                                                  O(ATOM    112  O   VAL E   9) 0.150
                                                  C(ATOM    110  CA  VAL E   9) 0.014
                                                  C(ATOM    127  C   LEU E  10) 0.014
 
   126  C(ATOM    126  CA  LEU E  10)     (3.941) C(ATOM    129  CB  LEU E  10) 0.984
                                                  H(ATOM    142  HA  LEU E  10) 0.931
                                                  N(ATOM    125  N   LEU E  10) 0.925
                                                  C(ATOM    127  C   LEU E  10) 0.921
                                                  O(ATOM    128  O   LEU E  10) 0.048
                                                  N(ATOM    144  N   SER E  11) 0.022
                                                  C(ATOM    110  CA  VAL E   9) 0.018
                                                  C(ATOM    111  C   VAL E   9) 0.015
                                                  H(ATOM    141  H   LEU E  10) 0.010
 
   127  C(ATOM    127  C   LEU E  10)     (3.789) O(ATOM    128  O   LEU E  10) 1.892
                                                  C(ATOM    126  CA  LEU E  10) 0.921
                                                  N(ATOM    144  N   SER E  11) 0.872
                                                  N(ATOM    125  N   LEU E  10) 0.014
 
   128  O(ATOM    128  O   LEU E  10)     (2.217) C(ATOM    127  C   LEU E  10) 1.892
                                                  N(ATOM    144  N   SER E  11) 0.088
                                                  C(ATOM    126  CA  LEU E  10) 0.048
                                                  H(ATOM    147 2H   SER E  11) 0.012
                                                  C(ATOM    129  CB  LEU E  10) 0.010
 
   129  C(ATOM    129  CB  LEU E  10)     (3.949) C(ATOM    130  CG  LEU E  10) 0.991
                                                  C(ATOM    126  CA  LEU E  10) 0.984
                                                  H(ATOM    134 2HB  LEU E  10) 0.951
                                                  H(ATOM    133 1HB  LEU E  10) 0.951
                                                  O(ATOM    128  O   LEU E  10) 0.010
 
   130  C(ATOM    130  CG  LEU E  10)     (3.985) C(ATOM    131  CD1 LEU E  10) 1.002
                                                  C(ATOM    132  CD2 LEU E  10) 1.002
                                                  C(ATOM    129  CB  LEU E  10) 0.991
                                                  H(ATOM    143  HG  LEU E  10) 0.964
 
   131  C(ATOM    131  CD1 LEU E  10)     (3.933) C(ATOM    130  CG  LEU E  10) 1.002
                                                  H(ATOM    135 1HD1 LEU E  10) 0.970
                                                  H(ATOM    137 3HD1 LEU E  10) 0.966
                                                  H(ATOM    136 2HD1 LEU E  10) 0.964
 
   132  C(ATOM    132  CD2 LEU E  10)     (3.923) C(ATOM    130  CG  LEU E  10) 1.002
                                                  H(ATOM    138 1HD2 LEU E  10) 0.965
                                                  H(ATOM    140 3HD2 LEU E  10) 0.961
                                                  H(ATOM    139 2HD2 LEU E  10) 0.960
 
   133  H(ATOM    133 1HB  LEU E  10)     (0.968) C(ATOM    129  CB  LEU E  10) 0.951
 
   134  H(ATOM    134 2HB  LEU E  10)     (0.968) C(ATOM    129  CB  LEU E  10) 0.951
 
   135  H(ATOM    135 1HD1 LEU E  10)     (0.979) C(ATOM    131  CD1 LEU E  10) 0.970
 
   136  H(ATOM    136 2HD1 LEU E  10)     (0.977) C(ATOM    131  CD1 LEU E  10) 0.964
 
   137  H(ATOM    137 3HD1 LEU E  10)     (0.979) C(ATOM    131  CD1 LEU E  10) 0.966
 
   138  H(ATOM    138 1HD2 LEU E  10)     (0.977) C(ATOM    132  CD2 LEU E  10) 0.965
 
   139  H(ATOM    139 2HD2 LEU E  10)     (0.975) C(ATOM    132  CD2 LEU E  10) 0.960
 
   140  H(ATOM    140 3HD2 LEU E  10)     (0.972) C(ATOM    132  CD2 LEU E  10) 0.961
 
   141  H(ATOM    141  H   LEU E  10)     (0.863) N(ATOM    125  N   LEU E  10) 0.794
                                                  O(HETATM 3562  O   HOH E 404) 0.019
                                                  O(ATOM    112  O   VAL E   9) 0.014
                                                  C(ATOM    111  C   VAL E   9) 0.012
                                                  C(ATOM    126  CA  LEU E  10) 0.010
 
   142  H(ATOM    142  HA  LEU E  10)     (0.960) C(ATOM    126  CA  LEU E  10) 0.931
 
   143  H(ATOM    143  HG  LEU E  10)     (0.982) C(ATOM    130  CG  LEU E  10) 0.964
 
   144  N(ATOM    144  N   SER E  11)     (3.382) C(ATOM    127  C   LEU E  10) 0.872
                                                  H(ATOM    146 1H   SER E  11) 0.858
                                                  H(ATOM    147 2H   SER E  11) 0.821
                                                  H(ATOM    148 3H   SER E  11) 0.615
                                                  O(ATOM    128  O   LEU E  10) 0.088
                                                  O(ATOM    215  OE2 GLU F  20) 0.050
                                                  C(ATOM    126  CA  LEU E  10) 0.022
                                                  O(HETATM 4489  O   HOH G 576) 0.017
 
   145  H(ATOM    146 1H   SER E  11)     (0.884) N(ATOM    144  N   SER E  11) 0.858
 
   146  H(ATOM    147 2H   SER E  11)     (0.882) N(ATOM    144  N   SER E  11) 0.821
                                                  O(HETATM 4489  O   HOH G 576) 0.037
                                                  O(ATOM    128  O   LEU E  10) 0.012
 
   147  H(ATOM    148 3H   SER E  11)     (0.831) N(ATOM    144  N   SER E  11) 0.615
                                                  O(ATOM    215  OE2 GLU F  20) 0.186
 
   148  N(ATOM    149  N   ILE F  16)     (3.494) C(ATOM    150  CA  ILE F  16) 0.933
                                                  H(ATOM    158 2H   ILE F  16) 0.859
                                                  H(ATOM    159 3H   ILE F  16) 0.834
                                                  H(ATOM    157 1H   ILE F  16) 0.759
                                                  O(ATOM   2730  OD2 ASP G 194) 0.031
                                                  O(HETATM 3715  O   HOH F 345) 0.019
 
   149  C(ATOM    150  CA  ILE F  16)     (3.927) C(ATOM    153  CB  ILE F  16) 0.969
                                                  H(ATOM    168  HA  ILE F  16) 0.934
                                                  N(ATOM    149  N   ILE F  16) 0.933
                                                  C(ATOM    151  C   ILE F  16) 0.932
                                                  O(ATOM    152  O   ILE F  16) 0.051
                                                  C(ATOM    171  CA  VAL F  17) 0.018
                                                  N(ATOM    170  N   VAL F  17) 0.015
 
   150  C(ATOM    151  C   ILE F  16)     (3.830) O(ATOM    152  O   ILE F  16) 1.548
                                                  N(ATOM    170  N   VAL F  17) 1.254
                                                  C(ATOM    150  CA  ILE F  16) 0.932
                                                  C(ATOM    171  CA  VAL F  17) 0.014
                                                  H(ATOM    183  H   VAL F  17) 0.011
 
   151  O(ATOM    152  O   ILE F  16)     (1.943) C(ATOM    151  C   ILE F  16) 1.548
                                                  N(ATOM    170  N   VAL F  17) 0.159
                                                  C(ATOM    150  CA  ILE F  16) 0.051
                                                  H(HETATM 4238 1H   HOH G 309) 0.016
                                                  H(ATOM    183  H   VAL F  17) 0.014
 
   152  C(ATOM    153  CB  ILE F  16)     (3.977) C(ATOM    155  CG2 ILE F  16) 1.001
                                                  C(ATOM    154  CG1 ILE F  16) 0.995
                                                  C(ATOM    150  CA  ILE F  16) 0.969
                                                  H(ATOM    169  HB  ILE F  16) 0.960
 
   153  C(ATOM    154  CG1 ILE F  16)     (3.961) C(ATOM    156  CD1 ILE F  16) 1.006
                                                  C(ATOM    153  CB  ILE F  16) 0.995
                                                  H(ATOM    160 1HG1 ILE F  16) 0.958
                                                  H(ATOM    161 2HG1 ILE F  16) 0.956
 
   154  C(ATOM    155  CG2 ILE F  16)     (3.926) C(ATOM    153  CB  ILE F  16) 1.001
                                                  H(ATOM    163 2HG2 ILE F  16) 0.965
                                                  H(ATOM    162 1HG2 ILE F  16) 0.961
                                                  H(ATOM    164 3HG2 ILE F  16) 0.956
 
   155  C(ATOM    156  CD1 ILE F  16)     (3.936) C(ATOM    154  CG1 ILE F  16) 1.006
                                                  H(ATOM    166 2HD1 ILE F  16) 0.970
                                                  H(ATOM    167 3HD1 ILE F  16) 0.969
                                                  H(ATOM    165 1HD1 ILE F  16) 0.961
 
   156  H(ATOM    157 1H   ILE F  16)     (0.866) N(ATOM    149  N   ILE F  16) 0.759
                                                  O(ATOM   2730  OD2 ASP G 194) 0.087
 
   157  H(ATOM    158 2H   ILE F  16)     (0.895) N(ATOM    149  N   ILE F  16) 0.859
                                                  O(ATOM   2004  O   LEU F 143) 0.011
 
   158  H(ATOM    159 3H   ILE F  16)     (0.892) N(ATOM    149  N   ILE F  16) 0.834
                                                  O(HETATM 3715  O   HOH F 345) 0.038
 
   159  H(ATOM    160 1HG1 ILE F  16)     (0.976) C(ATOM    154  CG1 ILE F  16) 0.958
 
   160  H(ATOM    161 2HG1 ILE F  16)     (0.972) C(ATOM    154  CG1 ILE F  16) 0.956
 
   161  H(ATOM    162 1HG2 ILE F  16)     (0.973) C(ATOM    155  CG2 ILE F  16) 0.961
 
   162  H(ATOM    163 2HG2 ILE F  16)     (0.976) C(ATOM    155  CG2 ILE F  16) 0.965
 
   163  H(ATOM    164 3HG2 ILE F  16)     (0.976) C(ATOM    155  CG2 ILE F  16) 0.956
 
   164  H(ATOM    165 1HD1 ILE F  16)     (0.975) C(ATOM    156  CD1 ILE F  16) 0.961
 
   165  H(ATOM    166 2HD1 ILE F  16)     (0.979) C(ATOM    156  CD1 ILE F  16) 0.970
 
   166  H(ATOM    167 3HD1 ILE F  16)     (0.979) C(ATOM    156  CD1 ILE F  16) 0.969
 
   167  H(ATOM    168  HA  ILE F  16)     (0.958) C(ATOM    150  CA  ILE F  16) 0.934
 
   168  H(ATOM    169  HB  ILE F  16)     (0.978) C(ATOM    153  CB  ILE F  16) 0.960
 
   169  N(ATOM    170  N   VAL F  17)     (3.253) C(ATOM    151  C   ILE F  16) 1.254
                                                  C(ATOM    171  CA  VAL F  17) 0.917
                                                  H(ATOM    183  H   VAL F  17) 0.793
                                                  O(ATOM    152  O   ILE F  16) 0.159
                                                  C(ATOM    150  CA  ILE F  16) 0.015
                                                  C(ATOM    172  C   VAL F  17) 0.013
                                                  O(ATOM   2670  O   SER G 189) 0.010
 
   170  C(ATOM    171  CA  VAL F  17)     (3.933) C(ATOM    174  CB  VAL F  17) 0.972
                                                  H(ATOM    184  HA  VAL F  17) 0.933
                                                  N(ATOM    170  N   VAL F  17) 0.917
                                                  C(ATOM    172  C   VAL F  17) 0.916
                                                  O(ATOM    173  O   VAL F  17) 0.046
                                                  C(ATOM    187  CA  ASN F  18) 0.018
                                                  C(ATOM    150  CA  ILE F  16) 0.018
                                                  N(ATOM    186  N   ASN F  18) 0.016
                                                  C(ATOM    151  C   ILE F  16) 0.014
                                                  H(ATOM    183  H   VAL F  17) 0.010
 
   171  C(ATOM    172  C   VAL F  17)     (3.813) O(ATOM    173  O   VAL F  17) 1.560
                                                  N(ATOM    186  N   ASN F  18) 1.223
                                                  C(ATOM    171  CA  VAL F  17) 0.916
                                                  C(ATOM    187  CA  ASN F  18) 0.015
                                                  N(ATOM    170  N   VAL F  17) 0.013
                                                  H(ATOM    198  H   ASN F  18) 0.012
 
   172  O(ATOM    173  O   VAL F  17)     (1.933) C(ATOM    172  C   VAL F  17) 1.560
                                                  N(ATOM    186  N   ASN F  18) 0.149
                                                  C(ATOM    171  CA  VAL F  17) 0.046
                                                  H(ATOM   2675  H   SER G 189) 0.016
                                                  H(ATOM    198  H   ASN F  18) 0.014
 
   173  C(ATOM    174  CB  VAL F  17)     (3.981) C(ATOM    176  CG2 VAL F  17) 1.003
                                                  C(ATOM    175  CG1 VAL F  17) 1.000
                                                  C(ATOM    171  CA  VAL F  17) 0.972
                                                  H(ATOM    185  HB  VAL F  17) 0.963
 
   174  C(ATOM    175  CG1 VAL F  17)     (3.926) C(ATOM    174  CB  VAL F  17) 1.000
                                                  H(ATOM    177 1HG1 VAL F  17) 0.964
                                                  H(ATOM    178 2HG1 VAL F  17) 0.960
                                                  H(ATOM    179 3HG1 VAL F  17) 0.958
 
   175  C(ATOM    176  CG2 VAL F  17)     (3.930) C(ATOM    174  CB  VAL F  17) 1.003
                                                  H(ATOM    180 1HG2 VAL F  17) 0.966
                                                  H(ATOM    181 2HG2 VAL F  17) 0.957
                                                  H(ATOM    182 3HG2 VAL F  17) 0.956
 
   176  H(ATOM    177 1HG1 VAL F  17)     (0.977) C(ATOM    175  CG1 VAL F  17) 0.964
 
   177  H(ATOM    178 2HG1 VAL F  17)     (0.973) C(ATOM    175  CG1 VAL F  17) 0.960
 
   178  H(ATOM    179 3HG1 VAL F  17)     (0.974) C(ATOM    175  CG1 VAL F  17) 0.958
 
   179  H(ATOM    180 1HG2 VAL F  17)     (0.979) C(ATOM    176  CG2 VAL F  17) 0.966
 
   180  H(ATOM    181 2HG2 VAL F  17)     (0.972) C(ATOM    176  CG2 VAL F  17) 0.957
 
   181  H(ATOM    182 3HG2 VAL F  17)     (0.970) C(ATOM    176  CG2 VAL F  17) 0.956
 
   182  H(ATOM    183  H   VAL F  17)     (0.871) N(ATOM    170  N   VAL F  17) 0.793
                                                  O(ATOM   2670  O   SER G 189) 0.031
                                                  O(ATOM    152  O   ILE F  16) 0.014
                                                  C(ATOM    151  C   ILE F  16) 0.011
                                                  C(ATOM    171  CA  VAL F  17) 0.010
 
   183  H(ATOM    184  HA  VAL F  17)     (0.961) C(ATOM    171  CA  VAL F  17) 0.933
 
   184  H(ATOM    185  HB  VAL F  17)     (0.982) C(ATOM    174  CB  VAL F  17) 0.963
 
   185  N(ATOM    186  N   ASN F  18)     (3.199) C(ATOM    172  C   VAL F  17) 1.223
                                                  C(ATOM    187  CA  ASN F  18) 0.927
                                                  H(ATOM    198  H   ASN F  18) 0.776
                                                  O(ATOM    173  O   VAL F  17) 0.149
                                                  C(ATOM    171  CA  VAL F  17) 0.016
                                                  O(HETATM 3781  O   HOH F 381) 0.013
 
   186  C(ATOM    187  CA  ASN F  18)     (3.950) C(ATOM    190  CB  ASN F  18) 0.980
                                                  C(ATOM    188  C   ASN F  18) 0.928
                                                  H(ATOM    199  HA  ASN F  18) 0.927
                                                  N(ATOM    186  N   ASN F  18) 0.927
                                                  O(ATOM    189  O   ASN F  18) 0.045
                                                  N(ATOM    200  N   GLY F  19) 0.019
                                                  C(ATOM    171  CA  VAL F  17) 0.018
                                                  C(ATOM    201  CA  GLY F  19) 0.016
                                                  C(ATOM    172  C   VAL F  17) 0.015
 
   187  C(ATOM    188  C   ASN F  18)     (3.803) O(ATOM    189  O   ASN F  18) 1.583
                                                  N(ATOM    200  N   GLY F  19) 1.185
                                                  C(ATOM    187  CA  ASN F  18) 0.928
                                                  C(ATOM    201  CA  GLY F  19) 0.015
                                                  H(ATOM    206  H   GLY F  19) 0.012
 
   188  O(ATOM    189  O   ASN F  18)     (1.979) C(ATOM    188  C   ASN F  18) 1.583
                                                  N(ATOM    200  N   GLY F  19) 0.138
                                                  C(ATOM    187  CA  ASN F  18) 0.045
                                                  H(HETATM 3806 1H   HOH F 392) 0.031
                                                  H(ATOM    206  H   GLY F  19) 0.016
                                                  O(HETATM 3805  O   HOH F 392) 0.012
 
   189  C(ATOM    190  CB  ASN F  18)     (3.926) C(ATOM    187  CA  ASN F  18) 0.980
                                                  C(ATOM    191  CG  ASN F  18) 0.979
                                                  H(ATOM    194 1HB  ASN F  18) 0.924
                                                  H(ATOM    195 2HB  ASN F  18) 0.915
                                                  O(ATOM    192  OD1 ASN F  18) 0.038
                                                  N(ATOM    193  ND2 ASN F  18) 0.019
                                                  H(ATOM    196 1HD2 ASN F  18) 0.013
 
   190  C(ATOM    191  CG  ASN F  18)     (3.794) O(ATOM    192  OD1 ASN F  18) 1.414
                                                  N(ATOM    193  ND2 ASN F  18) 1.328
                                                  C(ATOM    190  CB  ASN F  18) 0.979
                                                  H(ATOM    196 1HD2 ASN F  18) 0.012
                                                  H(ATOM    197 2HD2 ASN F  18) 0.011
 
   191  O(ATOM    192  OD1 ASN F  18)     (1.822) C(ATOM    191  CG  ASN F  18) 1.414
                                                  N(ATOM    193  ND2 ASN F  18) 0.141
                                                  H(HETATM 3696 2H   HOH F 337) 0.041
                                                  C(ATOM    190  CB  ASN F  18) 0.038
                                                  H(HETATM 3863 1H   HOH F 419) 0.033
                                                  H(ATOM    197 2HD2 ASN F  18) 0.016
                                                  O(HETATM 3694  O   HOH F 337) 0.016
                                                  O(HETATM 3862  O   HOH F 419) 0.012
 
   192  N(ATOM    193  ND2 ASN F  18)     (3.210) C(ATOM    191  CG  ASN F  18) 1.328
                                                  H(ATOM    196 1HD2 ASN F  18) 0.849
                                                  H(ATOM    197 2HD2 ASN F  18) 0.833
                                                  O(ATOM    192  OD1 ASN F  18) 0.141
                                                  C(ATOM    190  CB  ASN F  18) 0.019
 
   193  H(ATOM    194 1HB  ASN F  18)     (0.950) C(ATOM    190  CB  ASN F  18) 0.924
 
   194  H(ATOM    195 2HB  ASN F  18)     (0.953) C(ATOM    190  CB  ASN F  18) 0.915
 
   195  H(ATOM    196 1HD2 ASN F  18)     (0.892) N(ATOM    193  ND2 ASN F  18) 0.849
                                                  C(ATOM    190  CB  ASN F  18) 0.013
                                                  C(ATOM    191  CG  ASN F  18) 0.012
 
   196  H(ATOM    197 2HD2 ASN F  18)     (0.876) N(ATOM    193  ND2 ASN F  18) 0.833
                                                  O(ATOM    192  OD1 ASN F  18) 0.016
                                                  C(ATOM    191  CG  ASN F  18) 0.011
 
   197  H(ATOM    198  H   ASN F  18)     (0.856) N(ATOM    186  N   ASN F  18) 0.776
                                                  O(HETATM 3781  O   HOH F 381) 0.034
                                                  O(ATOM    173  O   VAL F  17) 0.014
                                                  C(ATOM    172  C   VAL F  17) 0.012
 
   198  H(ATOM    199  HA  ASN F  18)     (0.955) C(ATOM    187  CA  ASN F  18) 0.927
 
   199  N(ATOM    200  N   GLY F  19)     (3.231) C(ATOM    188  C   ASN F  18) 1.185
                                                  C(ATOM    201  CA  GLY F  19) 0.940
                                                  H(ATOM    206  H   GLY F  19) 0.832
                                                  O(ATOM    189  O   ASN F  18) 0.138
                                                  C(ATOM    187  CA  ASN F  18) 0.019
                                                  C(ATOM    202  C   GLY F  19) 0.013
 
   200  C(ATOM    201  CA  GLY F  19)     (3.941) H(ATOM    204 1HA  GLY F  19) 0.943
                                                  N(ATOM    200  N   GLY F  19) 0.940
                                                  H(ATOM    205 2HA  GLY F  19) 0.938
                                                  C(ATOM    202  C   GLY F  19) 0.933
                                                  O(ATOM    203  O   GLY F  19) 0.047
                                                  N(ATOM    207  N   GLU F  20) 0.018
                                                  C(ATOM    208  CA  GLU F  20) 0.017
                                                  C(ATOM    187  CA  ASN F  18) 0.016
                                                  C(ATOM    188  C   ASN F  18) 0.015
 
   201  C(ATOM    202  C   GLY F  19)     (3.805) O(ATOM    203  O   GLY F  19) 1.555
                                                  N(ATOM    207  N   GLU F  20) 1.216
                                                  C(ATOM    201  CA  GLY F  19) 0.933
                                                  C(ATOM    208  CA  GLU F  20) 0.013
                                                  N(ATOM    200  N   GLY F  19) 0.013
                                                  H(ATOM    220  H   GLU F  20) 0.012
 
   202  O(ATOM    203  O   GLY F  19)     (1.971) C(ATOM    202  C   GLY F  19) 1.555
                                                  N(ATOM    207  N   GLU F  20) 0.147
                                                  C(ATOM    201  CA  GLY F  19) 0.047
                                                  H(HETATM 4269 2H   HOH G 344) 0.034
                                                  H(ATOM    220  H   GLU F  20) 0.015
                                                  O(HETATM 4267  O   HOH G 344) 0.012
 
   203  H(ATOM    204 1HA  GLY F  19)     (0.968) C(ATOM    201  CA  GLY F  19) 0.943
 
   204  H(ATOM    205 2HA  GLY F  19)     (0.963) C(ATOM    201  CA  GLY F  19) 0.938
 
   205  H(ATOM    206  H   GLY F  19)     (0.883) N(ATOM    200  N   GLY F  19) 0.832
                                                  O(ATOM    189  O   ASN F  18) 0.016
                                                  C(ATOM    188  C   ASN F  18) 0.012
 
   206  N(ATOM    207  N   GLU F  20)     (3.243) C(ATOM    202  C   GLY F  19) 1.216
                                                  C(ATOM    208  CA  GLU F  20) 0.923
                                                  H(ATOM    220  H   GLU F  20) 0.807
                                                  O(ATOM    203  O   GLY F  19) 0.147
                                                  C(ATOM    201  CA  GLY F  19) 0.018
 
   207  C(ATOM    208  CA  GLU F  20)     (3.937) C(ATOM    211  CB  GLU F  20) 0.975
                                                  H(ATOM    221  HA  GLU F  20) 0.938
                                                  C(ATOM    209  C   GLU F  20) 0.924
                                                  N(ATOM    207  N   GLU F  20) 0.923
                                                  O(ATOM    210  O   GLU F  20) 0.046
                                                  C(ATOM    223  CA  GLU F  21) 0.018
                                                  N(ATOM    222  N   GLU F  21) 0.017
                                                  C(ATOM    201  CA  GLY F  19) 0.017
                                                  C(ATOM    202  C   GLY F  19) 0.013
                                                  H(ATOM    220  H   GLU F  20) 0.011
 
   208  C(ATOM    209  C   GLU F  20)     (3.807) O(ATOM    210  O   GLU F  20) 1.567
                                                  N(ATOM    222  N   GLU F  21) 1.213
                                                  C(ATOM    208  CA  GLU F  20) 0.924
                                                  C(ATOM    223  CA  GLU F  21) 0.015
                                                  H(ATOM    235  H   GLU F  21) 0.012
 
   209  O(ATOM    210  O   GLU F  20)     (2.005) C(ATOM    209  C   GLU F  20) 1.567
                                                  N(ATOM    222  N   GLU F  21) 0.154
                                                  C(ATOM    208  CA  GLU F  20) 0.046
[...]
 
  4508  H(HETATM 4515 2H   HOH G 591)     (0.860) O(HETATM 4513  O   HOH G 591) 0.855
 
  4509  O(HETATM 4516  O   HOH G 594)     (1.993) H(HETATM 4517 1H   HOH G 594) 0.796
                                                  H(HETATM 4518 2H   HOH G 594) 0.759
                                                  H(HETATM 3551  H2  SO4 G 299) 0.211
                                                  O(HETATM 3546  O2  SO4 G 299) 0.051
                                                  O(HETATM 4558  O   HOH G 634) 0.023
                                                  O(HETATM 4114  O   HOH F 574) 0.018
 
  4510  H(HETATM 4517 1H   HOH G 594)     (0.850) O(HETATM 4516  O   HOH G 594) 0.796
                                                  O(HETATM 4114  O   HOH F 574) 0.043
 
  4511  H(HETATM 4518 2H   HOH G 594)     (0.828) O(HETATM 4516  O   HOH G 594) 0.759
                                                  O(HETATM 4558  O   HOH G 634) 0.061
 
  4512  O(HETATM 4519  O   HOH G 595)     (1.836) H(HETATM 4520 1H   HOH G 595) 0.803
                                                  H(HETATM 4521 2H   HOH G 595) 0.801
                                                  H(HETATM 4524 2H   HOH G 596) 0.039
                                                  O(HETATM 4396  O   HOH G 492) 0.019
                                                  O(HETATM 4522  O   HOH G 596) 0.016
                                                  O(HETATM 4510  O   HOH G 588) 0.010
 
  4513  H(HETATM 4520 1H   HOH G 595)     (0.841) O(HETATM 4519  O   HOH G 595) 0.803
                                                  O(HETATM 4510  O   HOH G 588) 0.029
 
  4514  H(HETATM 4521 2H   HOH G 595)     (0.851) O(HETATM 4519  O   HOH G 595) 0.801
                                                  O(HETATM 4396  O   HOH G 492) 0.045
 
  4515  O(HETATM 4522  O   HOH G 596)     (1.805) H(HETATM 4523 1H   HOH G 596) 0.827
                                                  H(HETATM 4524 2H   HOH G 596) 0.801
                                                  H(ATOM   2328  H   ASN G 165) 0.024
                                                  O(HETATM 4519  O   HOH G 595) 0.016
                                                  N(ATOM   2316  N   ASN G 165) 0.011
 
  4516  H(HETATM 4523 1H   HOH G 596)     (0.853) O(HETATM 4522  O   HOH G 596) 0.827
                                                  O(HETATM 4354  O   HOH G 449) 0.017
 
  4517  H(HETATM 4524 2H   HOH G 596)     (0.846) O(HETATM 4522  O   HOH G 596) 0.801
                                                  O(HETATM 4519  O   HOH G 595) 0.039
 
  4518  O(HETATM 4525  O   HOH G 600)     (1.910) H(HETATM 4527 2H   HOH G 600) 0.835
                                                  H(HETATM 4526 1H   HOH G 600) 0.825
                                                  H(HETATM 4503 2H   HOH G 581) 0.049
                                                  O(HETATM 4501  O   HOH G 581) 0.022
 
  4519  H(HETATM 4526 1H   HOH G 600)     (0.858) O(HETATM 4525  O   HOH G 600) 0.825
                                                  O(HETATM 4450  O   HOH G 537) 0.025
 
  4520  H(HETATM 4527 2H   HOH G 600)     (0.841) O(HETATM 4525  O   HOH G 600) 0.835
 
  4521  O(HETATM 4528  O   HOH G 603)     (1.863) H(HETATM 4530 2H   HOH G 603) 0.810
                                                  H(HETATM 4529 1H   HOH G 603) 0.809
                                                  H(HETATM 4362 2H   HOH G 458) 0.049
                                                  O(HETATM 4360  O   HOH G 458) 0.024
                                                  O(HETATM 4405  O   HOH G 497) 0.020
                                                  O(HETATM 4537  O   HOH G 613) 0.017
 
  4522  H(HETATM 4529 1H   HOH G 603)     (0.853) O(HETATM 4528  O   HOH G 603) 0.809
                                                  O(HETATM 4537  O   HOH G 613) 0.040
 
  4523  H(HETATM 4530 2H   HOH G 603)     (0.858) O(HETATM 4528  O   HOH G 603) 0.810
                                                  O(HETATM 4405  O   HOH G 497) 0.042
 
  4524  O(HETATM 4531  O   HOH G 605)     (1.810) H(HETATM 4532 1H   HOH G 605) 0.807
                                                  H(HETATM 4533 2H   HOH G 605) 0.792
                                                  H(HETATM 4305 2H   HOH G 375) 0.041
                                                  O(HETATM 4513  O   HOH G 591) 0.023
                                                  O(HETATM 4303  O   HOH G 375) 0.019
                                                  O(ATOM   3367  O   GLN G 239) 0.015
                                                  H(ATOM   3378 2HE2 GLN G 239) 0.010
 
  4525  H(HETATM 4532 1H   HOH G 605)     (0.855) O(HETATM 4531  O   HOH G 605) 0.807
                                                  O(ATOM   3367  O   GLN G 239) 0.036
 
  4526  H(HETATM 4533 2H   HOH G 605)     (0.850) O(HETATM 4531  O   HOH G 605) 0.792
                                                  O(HETATM 4513  O   HOH G 591) 0.049
 
  4527  O(HETATM 4534  O   HOH G 608)     (1.863) H(HETATM 4536 2H   HOH G 608) 0.856
                                                  H(HETATM 4535 1H   HOH G 608) 0.771
                                                  H(HETATM 4473 2H   HOH G 555) 0.050
                                                  N(ATOM   2397  NZ  LYS G 170) 0.024
                                                  O(HETATM 4471  O   HOH G 555) 0.021
 
  4528  H(HETATM 4535 1H   HOH G 608)     (0.840) O(HETATM 4534  O   HOH G 608) 0.771
                                                  N(ATOM   2397  NZ  LYS G 170) 0.064
 
  4529  H(HETATM 4536 2H   HOH G 608)     (0.861) O(HETATM 4534  O   HOH G 608) 0.856
 
  4530  O(HETATM 4537  O   HOH G 613)     (1.814) H(HETATM 4539 2H   HOH G 613) 0.808
                                                  H(HETATM 4538 1H   HOH G 613) 0.790
                                                  H(HETATM 4529 1H   HOH G 603) 0.040
                                                  H(ATOM   3394 1HE2 GLN G 240) 0.018
                                                  O(HETATM 4528  O   HOH G 603) 0.017
                                                  O(ATOM   3316  OD1 ASN G 236) 0.016
                                                  O(ATOM   3313  O   ASN G 236) 0.014
 
  4531  H(HETATM 4538 1H   HOH G 613)     (0.841) O(HETATM 4537  O   HOH G 613) 0.790
                                                  O(ATOM   3316  OD1 ASN G 236) 0.042
 
  4532  H(HETATM 4539 2H   HOH G 613)     (0.853) O(HETATM 4537  O   HOH G 613) 0.808
                                                  O(ATOM   3313  O   ASN G 236) 0.034
 
  4533  O(HETATM 4540  O   HOH G 614)     (1.865) H(HETATM 4542 2H   HOH G 614) 0.850
                                                  H(HETATM 4541 1H   HOH G 614) 0.809
                                                  H(HETATM 4413 2H   HOH G 505) 0.033
                                                  O(ATOM   2226  O   SER G 159) 0.014
                                                  O(HETATM 4411  O   HOH G 505) 0.013
 
  4534  H(HETATM 4541 1H   HOH G 614)     (0.851) O(HETATM 4540  O   HOH G 614) 0.809
                                                  O(ATOM   2226  O   SER G 159) 0.036
 
  4535  H(HETATM 4542 2H   HOH G 614)     (0.854) O(HETATM 4540  O   HOH G 614) 0.850
 
  4536  O(HETATM 4543  O   HOH G 616)     (1.802) H(HETATM 4545 2H   HOH G 616) 0.825
                                                  H(HETATM 4544 1H   HOH G 616) 0.821
                                                  O(HETATM 3952  O   HOH F 462) 0.013
                                                  O(HETATM 4336  O   HOH G 402) 0.011
 
  4537  H(HETATM 4544 1H   HOH G 616)     (0.854) O(HETATM 4543  O   HOH G 616) 0.821
                                                  O(HETATM 3952  O   HOH F 462) 0.032
 
  4538  H(HETATM 4545 2H   HOH G 616)     (0.856) O(HETATM 4543  O   HOH G 616) 0.825
                                                  O(HETATM 4336  O   HOH G 402) 0.029
 
  4539  O(HETATM 4546  O   HOH G 623)     (1.853) H(HETATM 4547 1H   HOH G 623) 0.865
                                                  H(HETATM 4548 2H   HOH G 623) 0.821
                                                  O(ATOM   2350  OD1 ASN G 167) 0.013
 
  4540  H(HETATM 4547 1H   HOH G 623)     (0.870) O(HETATM 4546  O   HOH G 623) 0.865
 
  4541  H(HETATM 4548 2H   HOH G 623)     (0.861) O(HETATM 4546  O   HOH G 623) 0.821
                                                  O(ATOM   2350  OD1 ASN G 167) 0.033
 
  4542  O(HETATM 4549  O   HOH G 624)     (1.857) H(HETATM 4550 1H   HOH G 624) 0.849
                                                  H(HETATM 4551 2H   HOH G 624) 0.799
                                                  H(ATOM   2472  H   THR G 174) 0.032
                                                  O(HETATM 4492  O   HOH G 578) 0.020
                                                  N(ATOM   2462  N   THR G 174) 0.012
 
  4543  H(HETATM 4550 1H   HOH G 624)     (0.854) O(HETATM 4549  O   HOH G 624) 0.849
 
  4544  H(HETATM 4551 2H   HOH G 624)     (0.850) O(HETATM 4549  O   HOH G 624) 0.799
                                                  O(HETATM 4492  O   HOH G 578) 0.045
 
  4545  O(HETATM 4552  O   HOH G 627)     (1.878) H(HETATM 4554 2H   HOH G 627) 0.847
                                                  H(HETATM 4553 1H   HOH G 627) 0.811
                                                  H(HETATM 4557 2H   HOH G 632) 0.046
                                                  O(HETATM 4555  O   HOH G 632) 0.020
                                                  O(ATOM   2636  O   SER G 186) 0.013
 
  4546  H(HETATM 4553 1H   HOH G 627)     (0.855) O(HETATM 4552  O   HOH G 627) 0.811
                                                  O(ATOM   2636  O   SER G 186) 0.035
 
  4547  H(HETATM 4554 2H   HOH G 627)     (0.850) O(HETATM 4552  O   HOH G 627) 0.847
 
  4548  O(HETATM 4555  O   HOH G 632)     (1.866) H(HETATM 4556 1H   HOH G 632) 0.804
                                                  H(HETATM 4557 2H   HOH G 632) 0.800
                                                  H(HETATM 4433 1H   HOH G 521) 0.074
                                                  O(HETATM 4432  O   HOH G 521) 0.030
                                                  O(HETATM 4552  O   HOH G 627) 0.020
                                                  O(HETATM 4315  O   HOH G 387) 0.015
 
  4549  H(HETATM 4556 1H   HOH G 632)     (0.849) O(HETATM 4555  O   HOH G 632) 0.804
                                                  O(HETATM 4315  O   HOH G 387) 0.040
 
  4550  H(HETATM 4557 2H   HOH G 632)     (0.851) O(HETATM 4555  O   HOH G 632) 0.800
                                                  O(HETATM 4552  O   HOH G 627) 0.046
 
  4551  O(HETATM 4558  O   HOH G 634)     (1.864) H(HETATM 4559 1H   HOH G 634) 0.809
                                                  H(HETATM 4560 2H   HOH G 634) 0.805
                                                  H(HETATM 4518 2H   HOH G 594) 0.061
                                                  O(HETATM 4516  O   HOH G 594) 0.023
                                                  O(HETATM 4267  O   HOH G 344) 0.018
                                                  O(HETATM 3721  O   HOH F 347) 0.012
 
  4552  H(HETATM 4559 1H   HOH G 634)     (0.849) O(HETATM 4558  O   HOH G 634) 0.809
                                                  O(HETATM 3721  O   HOH F 347) 0.031
 
  4553  H(HETATM 4560 2H   HOH G 634)     (0.853) O(HETATM 4558  O   HOH G 634) 0.805
                                                  O(HETATM 4267  O   HOH G 344) 0.040
 
  4554  O(HETATM 4561  O   HOH G 637)     (2.117) H(HETATM 4563 2H   HOH G 637) 0.798
                                                  H(HETATM 4562 1H   HOH G 637) 0.797
                                                  H(HETATM 3550  H1  SO4 G 299) 0.284
                                                  O(HETATM 3545  O1  SO4 G 299) 0.060
                                                  O(HETATM 4114  O   HOH F 574) 0.020
                                                  O(ATOM   2098  O   THR G 151) 0.014
 
  4555  H(HETATM 4562 1H   HOH G 637)     (0.847) O(HETATM 4561  O   HOH G 637) 0.797
                                                  O(ATOM   2098  O   THR G 151) 0.039
 
  4556  H(HETATM 4563 2H   HOH G 637)     (0.856) O(HETATM 4561  O   HOH G 637) 0.798
                                                  O(HETATM 4114  O   HOH F 574) 0.050
 
  4557  O(HETATM 4564  O   HOH G 638)     (1.830) H(HETATM 4565 1H   HOH G 638) 0.855
                                                  H(HETATM 4566 2H   HOH G 638) 0.820
                                                  O(ATOM   3434  O   ALA G 243) 0.013
 
  4558  H(HETATM 4565 1H   HOH G 638)     (0.866) O(HETATM 4564  O   HOH G 638) 0.855
 
  4559  H(HETATM 4566 2H   HOH G 638)     (0.858) O(HETATM 4564  O   HOH G 638) 0.820
                                                  O(ATOM   3434  O   ALA G 243) 0.033
 
  4560  O(HETATM 4567  O   HOH G 643)     (1.908) H(HETATM 4568 1H   HOH G 643) 0.858
                                                  H(HETATM 4569 2H   HOH G 643) 0.841
                                                  H(ATOM   2880  H   GLY G 205) 0.024
 
  4561  H(HETATM 4568 1H   HOH G 643)     (0.869) O(HETATM 4567  O   HOH G 643) 0.858
 
  4562  H(HETATM 4569 2H   HOH G 643)     (0.844) O(HETATM 4567  O   HOH G 643) 0.841
 
  4563  O(HETATM 4570  O   HOH C 453)     (1.853) H(HETATM 4572 2H   HOH C 453) 0.812
                                                  H(HETATM 4571 1H   HOH C 453) 0.806
                                                  H(HETATM 4582 2H   HOH C 502) 0.031
                                                  O(ATOM   3051  O   SER G 217) 0.012
                                                  O(HETATM 4580  O   HOH C 502) 0.011
                                                  O(ATOM   3471  O   GLY C 250) 0.010
 
  4564  H(HETATM 4571 1H   HOH C 453)     (0.854) O(HETATM 4570  O   HOH C 453) 0.806
                                                  O(ATOM   3051  O   SER G 217) 0.033
 
  4565  H(HETATM 4572 2H   HOH C 453)     (0.847) O(HETATM 4570  O   HOH C 453) 0.812
                                                  O(ATOM   3471  O   GLY C 250) 0.024
 
  4566  O(HETATM 4573  O   HOH C 486)     (1.872) H(HETATM 4574 1H   HOH C 486) 0.859
                                                  H(HETATM 4575 2H   HOH C 486) 0.817
                                                  O(HETATM 4583  O   HOH C 526) 0.014
 
  4567  H(HETATM 4574 1H   HOH C 486)     (0.871) O(HETATM 4573  O   HOH C 486) 0.859
 
  4568  H(HETATM 4575 2H   HOH C 486)     (0.854) O(HETATM 4573  O   HOH C 486) 0.817
                                                  O(HETATM 4583  O   HOH C 526) 0.033
 
  4569  O(HETATM 4580  O   HOH C 502)     (1.832) H(HETATM 4582 2H   HOH C 502) 0.818
                                                  H(HETATM 4581 1H   HOH C 502) 0.809
                                                  H(HETATM 4125 2H   HOH F 585) 0.036
                                                  O(HETATM 4123  O   HOH F 585) 0.015
                                                  O(HETATM 4570  O   HOH C 453) 0.011
                                                  O(ATOM   3479  O   ALA C 251) 0.011
 
  4570  H(HETATM 4581 1H   HOH C 502)     (0.849) O(HETATM 4580  O   HOH C 502) 0.809
                                                  O(ATOM   3479  O   ALA C 251) 0.031
 
  4571  H(HETATM 4582 2H   HOH C 502)     (0.856) O(HETATM 4580  O   HOH C 502) 0.818
                                                  O(HETATM 4570  O   HOH C 453) 0.031
 
  4572  O(HETATM 4583  O   HOH C 526)     (1.910) H(HETATM 4585 2H   HOH C 526) 0.862
                                                  H(HETATM 4584 1H   HOH C 526) 0.811
                                                  H(HETATM 4575 2H   HOH C 486) 0.033
                                                  O(HETATM 4573  O   HOH C 486) 0.014
                                                  O(HETATM 3919  O   HOH F 444) 0.013
 
  4573  H(HETATM 4584 1H   HOH C 526)     (0.849) O(HETATM 4583  O   HOH C 526) 0.811
                                                  O(HETATM 3919  O   HOH F 444) 0.030
 
  4574  H(HETATM 4585 2H   HOH C 526)     (0.874) O(HETATM 4583  O   HOH C 526) 0.862
 
  4575  O(HETATM 4586  O   HOH C 530)     (1.918) H(HETATM 4588 2H   HOH C 530) 0.851
                                                  H(HETATM 4587 1H   HOH C 530) 0.814
                                                  H(HETATM 4594 2H   HOH C 622) 0.046
                                                  O(HETATM 4592  O   HOH C 622) 0.019
                                                  O(ATOM   3044  O   GLY G 216) 0.011
 
  4576  H(HETATM 4587 1H   HOH C 530)     (0.854) O(HETATM 4586  O   HOH C 530) 0.814
                                                  O(ATOM   3044  O   GLY G 216) 0.032
 
  4577  H(HETATM 4588 2H   HOH C 530)     (0.868) O(HETATM 4586  O   HOH C 530) 0.851
 
  4578  O(HETATM 4589  O   HOH C 617)     (1.834) H(HETATM 4591 2H   HOH C 617) 0.825
                                                  H(HETATM 4590 1H   HOH C 617) 0.822
                                                  O(HETATM 4592  O   HOH C 622) 0.015
                                                  N(ATOM   3468  N   GLY C 250) 0.011
 
  4579  H(HETATM 4590 1H   HOH C 617)     (0.853) O(HETATM 4589  O   HOH C 617) 0.822
                                                  N(ATOM   3468  N   GLY C 250) 0.027
 
  4580  H(HETATM 4591 2H   HOH C 617)     (0.862) O(HETATM 4589  O   HOH C 617) 0.825
                                                  O(HETATM 4592  O   HOH C 622) 0.033
 
  4581  O(HETATM 4592  O   HOH C 622)     (1.915) H(HETATM 4593 1H   HOH C 622) 0.842
                                                  H(HETATM 4594 2H   HOH C 622) 0.794
                                                  H(HETATM 4458 2H   HOH G 545) 0.043
                                                  H(HETATM 4591 2H   HOH C 617) 0.033
                                                  O(HETATM 4586  O   HOH C 530) 0.019
                                                  O(HETATM 4456  O   HOH G 545) 0.017
                                                  O(HETATM 4589  O   HOH C 617) 0.015
 
  4582  H(HETATM 4593 1H   HOH C 622)     (0.850) O(HETATM 4592  O   HOH C 622) 0.842
 
  4583  H(HETATM 4594 2H   HOH C 622)     (0.846) O(HETATM 4592  O   HOH C 622) 0.794
                                                  O(HETATM 4586  O   HOH C 530) 0.046
 
  4584  O(HETATM 4588  O   HOH C 647)     (1.792) H(HETATM 4589 1H   HOH C 647) 0.821
                                                  H(HETATM 4590 2H   HOH C 647) 0.817
                                                  O(HETATM 3976  O   HOH F 473) 0.018
                                                  O(ATOM   3513  O   THR C 253) 0.014
 
  4585  H(HETATM 4589 1H   HOH C 647)     (0.859) O(HETATM 4588  O   HOH C 647) 0.821
                                                  O(ATOM   3513  O   THR C 253) 0.032
 
  4586  H(HETATM 4590 2H   HOH C 647)     (0.860) O(HETATM 4588  O   HOH C 647) 0.817
                                                  O(HETATM 3976  O   HOH F 473) 0.037
 

 **********************
 *                    *
 * JOB ENDED NORMALLY *
 *                    *
 **********************



 TOTAL JOB TIME:          1682.38 SECONDS

 == MOPAC DONE ==
