 *******************************************************************************
 ** Site#: 10005        For non-commercial use only    Version 17.037W 64BITS **
 *******************************************************************************
 ** Cite this program as: MOPAC2016, Version: 17.037W, James J. P. Stewart,   **
 ** Stewart Computational Chemistry, web: HTTP://OpenMOPAC.net. Days left: 361**
 *******************************************************************************
 **                                                                           **
 **                                MOPAC2016                                  **
 **                                                                           **
 *******************************************************************************

                              PM7 CALCULATION RESULTS


 *******************************************************************************
 *  CALCULATION DONE:                                Fri Feb 10 09:49:41 2017  *
 *  START_RES- STARTING RESIDUE NUMBERS DEFINED
 *  Keyword:   START_RES=(1E 16F 150G 250C 297G 298F 299G 300F) 
 *  CHAIN      - PDB CHAIN LETTERS EXPLICITLY DEFINED
 *  Keyword:   CHAINS=(EFGCGFGFEFGC) 
 *  MOZYME     - USE LOCALIZED M.O.s IN SOLVING THE SCF EQUATIONS
 *
 *
 *
 *                 CHARGE ON SYSTEM =    -1
 *
 *
 *
 *  EPS= 78.40 - USE ANDREAS KLAMT'S COSMO IMPLICIT SOLVATION MODEL
 *  1SCF       - DO 1 SCF AND THEN STOP 
 *  T=         - A TIME OF      2.0 WEEKS   REQUESTED
 *  DUMP=N     - RESTART FILE WRITTEN EVERY  7200.000 SECONDS
 *  GNORM=     - EXIT WHEN GRADIENT NORM DROPS BELOW  1.000    
 *  OUTPUT     - MINIMIZE OUTPUT
 *  BONDS      - NON-HYDROGEN BOND-ORDERS TO BE PRINTED
 *  HTML       - WRITE HTML SCRIPT TO READ PDB FILE USING JSMOL
 *******************************************************************************
output START_RES=(1E 16F 150G 250C 297G 298F 299G 300F)  CHAINS=(EFGCGFGFEFGC) T=2W  MOZYME EPS=78.4 GNORM=1 html bonds charge=-1 1SCF
 Chymotrypsin Mechanism, Step 1
 Start of catalytic cycle.
 

 General Reference for PM7:
 "Optimization of Parameters for Semiempirical Methods VI: More Modifications to the 
 NDDO Approximations and Re-optimization of Parameters", J. J. P. Stewart, J. Mol. Mod., 1:32, 19 (2013)
 http://www.springerlink.com/openurl.asp?genre=article&id=doi:10.1007/s00894-012-1667-x

           Empirical Formula: C1115 H2449 N302 O704 S16  =  4586 atoms


   Ion Atom No.           Label               Charge
 
    1   N  144   (ATOM    144  N   SER E  11)   +1  (2.5 Angstroms from anion  O  214, Label: ATOM    214  OE2 GLU F  20)
    2   N  148   (ATOM    148  N   ILE F  16)   +1  (2.6 Angstroms from anion  O 2727, Label: ATOM   2727  OD2 ASP G 194)
    3   C 2141   (ATOM   2141  CZ  ARG G 154)   +1  (4.4 Angstroms from anion  O  229, Label: ATOM    229  OE2 GLU F  21)
 
    1   O  214   (ATOM    214  OE2 GLU F  20)   -1  (2.5 Angstroms from cation  N  144, Label: ATOM    144  N   SER E  11)
    2   O  229   (ATOM    229  OE2 GLU F  21)   -1  (4.4 Angstroms from cation  C 2141, Label: ATOM   2141  CZ  ARG G 154)
    3   O 1445   (ATOM   1445  OD2 ASP F 102)   -1
    4   O 2727   (ATOM   2727  OD2 ASP G 194)   -1  (2.6 Angstroms from cation  N  148, Label: ATOM    148  N   ILE F  16)

          COMPUTED CHARGE ON SYSTEM: -1

 -------------------------------------------------------------------------------
output START_RES=(1E 16F 150G 250C 297G 298F 299G 300F)  CHAINS=(EFGCGFGFEFGC) T=2W  MOZYME EPS=78.4 GNORM=1 html bonds charge=-1 1SCF
 Chymotrypsin Mechanism, Step 1
 Start of catalytic cycle.


     1SCF WAS SPECIFIED, SO BFGS WAS NOT USED                 
     SCF FIELD WAS ACHIEVED                                   


                              PM7 CALCULATION
                                                       MOPAC2016 (Version: 17.037W)
                                                       Fri Feb 10 10:16:28 2017
                                                       No. of days remaining = 361




          FINAL HEAT OF FORMATION =     -47899.77373 KCAL/MOL = -200412.65327 KJ/MOL
          VAN DER WAALS AREA      =       7520.65 SQUARE ANGSTROMS


          TOTAL ENERGY            =    -437389.05311 EV
          ELECTRONIC ENERGY       =  -66822567.19874 EV
          CORE-CORE REPULSION     =   66382656.67471 EV
          DIELECTRIC ENERGY       =        -59.79082 EV
          COSMO AREA              =       7520.65 SQUARE ANGSTROMS
          COSMO VOLUME            =      35454.53 CUBIC ANGSTROMS

          NO. OF FILLED LEVELS    =       6370
          MOLECULAR WEIGHT        =      31867.1731

          MOLECULAR DIMENSIONS (Angstroms)

            Atom       Atom       Distance
            O  4293    O  3780    53.85870
            O  4557    O  3527    48.20019
            H  4141    H  4256    47.12527


          SCF CALCULATIONS        =          1
 
          WALL-CLOCK TIME         = 26 MINUTES AND 47.027 SECONDS
          COMPUTATION TIME        = 25 MINUTES AND  0.979 SECONDS





           Empirical Formula: C1115 H2449 N302 O704 S16  =  4586 atoms


          NET CHARGE ON RESIDUES

      Residue         Charge  Anion or
                              Cation?
      CYS E   1       +0.103
      GLY E   2       -0.084
      VAL E   3       +0.018
      PRO E   4       +0.071
      ALA E   5       -0.010
      ILE E   6       +0.069
      GLN E   7       +0.031
      PRO E   8       +0.011
      VAL E   9       +0.035
      LEU E  10       +0.254
      SER E  11       +0.611  CATION
      ILE F  16       +0.843  CATION
      VAL F  17       +0.023
      ASN F  18       +0.071
      GLY F  19       +0.017
      GLU F  20       -0.793  ANION
      GLU F  21       -0.862  ANION
      ALA F  22       +0.054
      VAL F  23       +0.008
      PRO F  24       +0.045
      GLY F  25       -0.017
      SER F  26       +0.055
      TRP F  27       -0.062
      PRO F  28       +0.058
      TRP F  29       +0.017
      GLN F  30       -0.025
      VAL F  31       +0.033
      SER F  32       +0.019
      LEU F  33       -0.022
      GLN F  34       +0.035
      ASP F  35       -0.045
      LYS F  36       +0.073
      THR F  37       +0.011
      GLY F  38       +0.035
      PHE F  39       -0.004
      HIS F  40       +0.026
      PHE F  41       +0.017
      CYS F  42       +0.003
      GLY F  43       +0.067
      GLY F  44       -0.023
      SER F  45       -0.078
      LEU F  46       +0.043
      ILE F  47       -0.020
      ASN F  48       +0.014
      GLU F  49       +0.059
      ASN F  50       -0.036
      TRP F  51       +0.021
      VAL F  52       +0.000
      VAL F  53       -0.029
      THR F  54       +0.024
      ALA F  55       +0.011
      ALA F  56       -0.036
      HIS F  57       +0.059
      CYS F  58       -0.106
      GLY F  59       +0.047
      VAL F  60       +0.057
      THR F  61       -0.007
      THR F  62       -0.048
      SER F  63       +0.048
      ASP F  64       -0.079
      VAL F  65       +0.047
      VAL F  66       +0.010
      VAL F  67       +0.003
      ALA F  68       +0.015
      GLY F  69       -0.042
      GLU F  70       +0.099
      PHE F  71       +0.033
      ASP F  72       -0.100
      GLN F  73       -0.015
      GLY F  74       +0.090
      SER F  75       -0.033
      SER F  76       +0.064
      SER F  77       -0.044
      GLU F  78       -0.058
      LYS F  79       +0.133
      ILE F  80       +0.077
      GLN F  81       -0.035
      LYS F  82       -0.040
      LEU F  83       +0.080
      LYS F  84       +0.114
      ILE F  85       +0.035
      ALA F  86       -0.024
      LYS F  87       +0.024
      VAL F  88       -0.026
      PHE F  89       -0.013
      LYS F  90       +0.102
      ASN F  91       -0.040
      SER F  92       +0.031
      LYS F  93       -0.010
      TYR F  94       -0.013
      ASN F  95       +0.023
      SER F  96       +0.009
      LEU F  97       +0.090
      THR F  98       -0.074
      ILE F  99       +0.116
      ASN F 100       -0.066
      ASN F 101       -0.019
      ASP F 102       -0.816  ANION
      ILE F 103       -0.025
      THR F 104       -0.037
      LEU F 105       +0.025
      LEU F 106       -0.004
      LYS F 107       +0.000
      LEU F 108       +0.070
      SER F 109       -0.049
      THR F 110       -0.006
      ALA F 111       +0.021
      ALA F 112       +0.034
      SER F 113       -0.055
      PHE F 114       +0.118
      SER F 115       -0.019
      GLN F 116       +0.026
      THR F 117       -0.030
      VAL F 118       +0.004
      SER F 119       +0.061
      ALA F 120       -0.037
      VAL F 121       +0.050
      CYS F 122       -0.051
      LEU F 123       +0.012
      PRO F 124       +0.067
      SER F 125       -0.048
      ALA F 126       +0.059
      SER F 127       +0.040
      ASP F 128       -0.159
      ASP F 129       +0.069
      PHE F 130       -0.012
      ALA F 131       -0.004
      ALA F 132       +0.072
      GLY F 133       +0.029
      THR F 134       +0.026
      THR F 135       -0.060
      CYS F 136       +0.034
      VAL F 137       +0.009
      THR F 138       -0.034
      THR F 139       +0.041
      GLY F 140       +0.005
      TRP F 141       +0.048
      GLY F 142       -0.055
      LEU F 143       +0.075
      THR F 144       -0.039
      ARG F 145       +0.074
      TYR F 146       +0.006
      ASN G 150       -0.019
      THR G 151       -0.038
      PRO G 152       +0.166
      ASP G 153       -0.081
      ARG G 154       +1.013  CATION
      LEU G 155       +0.047
      GLN G 156       +0.038
      GLN G 157       +0.021
      ALA G 158       -0.027
      SER G 159       -0.012
      LEU G 160       +0.043
      PRO G 161       +0.044
      LEU G 162       +0.014
      LEU G 163       -0.002
      SER G 164       +0.042
      ASN G 165       -0.016
      THR G 166       +0.005
      ASN G 167       +0.101
      CYS G 168       -0.124
      LYS G 169       +0.091
      LYS G 170       +0.108
      TYR G 171       -0.001
      TRP G 172       -0.008
      GLY G 173       +0.035
      THR G 174       -0.011
      LYS G 175       +0.063
      ILE G 176       +0.006
      LYS G 177       +0.080
      ASP G 178       +0.011
      ALA G 179       -0.001
      MET G 180       +0.051
      ILE G 181       +0.009
      CYS G 182       +0.000
      ALA G 183       -0.027
      GLY G 184       +0.089
      ALA G 185       -0.020
      SER G 186       -0.004
      GLY G 187       +0.010
      VAL G 188       +0.037
      SER G 189       -0.087
      SER G 190       +0.030
      CYS G 191       -0.047
      MET G 192       -0.007
      GLY G 193       +0.102
      ASP G 194       -0.922  ANION
      SER G 195       +0.018
      GLY G 196       -0.009
      GLY G 197       -0.026
      PRO G 198       +0.080
      LEU G 199       -0.037
      VAL G 200       +0.016
      CYS G 201       -0.055
      LYS G 202       +0.140
      LYS G 203       +0.028
      ASN G 204       +0.018
      GLY G 205       +0.031
      ALA G 206       -0.026
      TRP G 207       +0.026
      THR G 208       -0.021
      LEU G 209       +0.013
      VAL G 210       -0.014
      GLY G 211       +0.017
      ILE G 212       -0.014
      VAL G 213       +0.027
      SER G 214       -0.095
      TRP G 215       +0.098
      GLY G 216       +0.014
      SER G 217       -0.047
      SER G 218       +0.073
      THR G 219       +0.026
      CYS G 220       +0.009
      SER G 221       -0.018
      THR G 222       +0.009
      SER G 223       +0.017
      THR G 224       +0.043
      PRO G 225       -0.036
      GLY G 226       -0.036
      VAL G 227       +0.016
      TYR G 228       +0.019
      ALA G 229       -0.018
      ARG G 230       +0.020
      VAL G 231       -0.040
      THR G 232       +0.025
      ALA G 233       +0.002
      LEU G 234       +0.035
      VAL G 235       +0.018
      ASN G 236       +0.008
      TRP G 237       +0.030
      VAL G 238       +0.029
      GLN G 239       +0.003
      GLN G 240       +0.091
      THR G 241       -0.048
      LEU G 242       +0.024
      ALA G 243       +0.054
      ALA G 244       +0.031
      ASN G 245       -0.030
      GLY C 250       +0.017
      ALA C 251       +0.024
      TRP C 252       +0.045
      THR C 253       +0.000
      LEU C 254       +0.003
      SO4 G 297       -0.110
      SO4 F 298       -0.018
      SO4 G 299       -0.265
      SO4 F 300       -0.026
      HOH G 637       +0.136
 


                   Salt Bridges Found

     No.          Cationic site                            Anionic site                Dist. (Angstroms)

      1  (ATOM    144  N   SER E  11)   E11(+)    (ATOM    214  OE2 GLU F  20)   F20(-)      2.49
      2  (ATOM   2142  NH1 ARG G 154)  G154(+)    (ATOM    228  OE1 GLU F  21)   F21(-)      2.57
      3  (ATOM    148  N   ILE F  16)   F16(+)    (ATOM   2727  OD2 ASP G 194)  G194(-)      2.63


 DIPOLE           X         Y         Z       TOTAL
 POINT-CHG.   195.720   172.948   324.421   416.493
 HYBRID        27.256    26.433    38.130    53.809
 SUM          222.976   199.381   362.551   470.015

                          BOND ORDERS BETWEEN ATOMS (VALENCIES)

     1  N(ATOM      1  N   CYS E   1)     (3.074) C(ATOM      2  CA  CYS E   1) 0.986
                                                  H(ATOM      7 1H   CYS E   1) 0.900
                                                  H(ATOM      8 2H   CYS E   1) 0.897
                                                  H(HETATM 3554 2H   HOH E 315) 0.088
                                                  O(HETATM 3552  O   HOH E 315) 0.031
                                                  C(ATOM      5  CB  CYS E   1) 0.017
 
     2  C(ATOM      2  CA  CYS E   1)     (3.958) N(ATOM      1  N   CYS E   1) 0.986
                                                  C(ATOM      5  CB  CYS E   1) 0.980
                                                  H(ATOM      9  HA  CYS E   1) 0.933
                                                  C(ATOM      3  C   CYS E   1) 0.928
                                                  O(ATOM      4  O   CYS E   1) 0.050
                                                  N(ATOM     12  N   GLY E   2) 0.018
                                                  C(ATOM     13  CA  GLY E   2) 0.017
 
     3  C(ATOM      3  C   CYS E   1)     (3.818) O(ATOM      4  O   CYS E   1) 1.659
                                                  N(ATOM     12  N   GLY E   2) 1.140
                                                  C(ATOM      2  CA  CYS E   1) 0.928
                                                  C(ATOM     13  CA  GLY E   2) 0.017
                                                  H(ATOM     16  H   GLY E   2) 0.011
 
     4  O(ATOM      4  O   CYS E   1)     (2.031) C(ATOM      3  C   CYS E   1) 1.659
                                                  N(ATOM     12  N   GLY E   2) 0.152
                                                  C(ATOM      2  CA  CYS E   1) 0.050
                                                  H(ATOM     16  H   GLY E   2) 0.016
 
     5  C(ATOM      5  CB  CYS E   1)     (3.932) S(ATOM      6  SG  CYS E   1) 0.986
                                                  C(ATOM      2  CA  CYS E   1) 0.980
                                                  H(ATOM     10 1HB  CYS E   1) 0.948
                                                  H(ATOM     11 2HB  CYS E   1) 0.926
                                                  S(ATOM   1736  SG  CYS F 122) 0.038
                                                  N(ATOM      1  N   CYS E   1) 0.017
 
     6  S(ATOM      6  SG  CYS E   1)     (2.292) S(ATOM   1736  SG  CYS F 122) 1.257
                                                  C(ATOM      5  CB  CYS E   1) 0.986
                                                  C(ATOM   1735  CB  CYS F 122) 0.038
 
     7  H(ATOM      7 1H   CYS E   1)     (0.920) N(ATOM      1  N   CYS E   1) 0.900
 
     8  H(ATOM      8 2H   CYS E   1)     (0.914) N(ATOM      1  N   CYS E   1) 0.897
 
     9  H(ATOM      9  HA  CYS E   1)     (0.965) C(ATOM      2  CA  CYS E   1) 0.933
 
    10  H(ATOM     10 1HB  CYS E   1)     (0.969) C(ATOM      5  CB  CYS E   1) 0.948
 
    11  H(ATOM     11 2HB  CYS E   1)     (0.953) C(ATOM      5  CB  CYS E   1) 0.926
 
    12  N(ATOM     12  N   GLY E   2)     (3.188) C(ATOM      3  C   CYS E   1) 1.140
                                                  C(ATOM     13  CA  GLY E   2) 0.937
                                                  H(ATOM     16  H   GLY E   2) 0.823
                                                  O(ATOM      4  O   CYS E   1) 0.152
                                                  C(ATOM      2  CA  CYS E   1) 0.018
                                                  C(ATOM     14  C   GLY E   2) 0.014
 
    13  C(ATOM     13  CA  GLY E   2)     (3.925) C(ATOM     14  C   GLY E   2) 0.939
                                                  N(ATOM     12  N   GLY E   2) 0.937
                                                  H(ATOM     18 2HA  GLY E   2) 0.936
                                                  H(ATOM     17 1HA  GLY E   2) 0.927
                                                  O(ATOM     15  O   GLY E   2) 0.042
                                                  C(ATOM     20  CA  VAL E   3) 0.017
                                                  N(ATOM     19  N   VAL E   3) 0.017
                                                  C(ATOM      2  CA  CYS E   1) 0.017
                                                  C(ATOM      3  C   CYS E   1) 0.017
                                                  H(ATOM     16  H   GLY E   2) 0.011
 
    14  C(ATOM     14  C   GLY E   2)     (3.809) O(ATOM     15  O   GLY E   2) 1.502
                                                  N(ATOM     19  N   VAL E   3) 1.261
                                                  C(ATOM     13  CA  GLY E   2) 0.939
                                                  C(ATOM     20  CA  VAL E   3) 0.015
                                                  N(ATOM     12  N   GLY E   2) 0.014
                                                  H(ATOM     26  H   VAL E   3) 0.012
 
    15  O(ATOM     15  O   GLY E   2)     (1.885) C(ATOM     14  C   GLY E   2) 1.502
                                                  N(ATOM     19  N   VAL E   3) 0.147
                                                  C(ATOM     13  CA  GLY E   2) 0.042
                                                  H(ATOM   2903  H   TRP G 207) 0.034
                                                  H(ATOM     26  H   VAL E   3) 0.014
                                                  N(ATOM   2889  N   TRP G 207) 0.012
 
    16  H(ATOM     16  H   GLY E   2)     (0.883) N(ATOM     12  N   GLY E   2) 0.823
                                                  O(ATOM      4  O   CYS E   1) 0.016
                                                  O(ATOM   1708  O   ALA F 120) 0.013
                                                  C(ATOM      3  C   CYS E   1) 0.011
                                                  C(ATOM     13  CA  GLY E   2) 0.011
 
    17  H(ATOM     17 1HA  GLY E   2)     (0.962) C(ATOM     13  CA  GLY E   2) 0.927
 
    18  H(ATOM     18 2HA  GLY E   2)     (0.959) C(ATOM     13  CA  GLY E   2) 0.936
 
    19  N(ATOM     19  N   VAL E   3)     (3.210) C(ATOM     14  C   GLY E   2) 1.261
                                                  C(ATOM     20  CA  VAL E   3) 0.915
                                                  H(ATOM     26  H   VAL E   3) 0.803
                                                  O(ATOM     15  O   GLY E   2) 0.147
                                                  C(ATOM     13  CA  GLY E   2) 0.017
                                                  C(ATOM     21  C   VAL E   3) 0.013
 
    20  C(ATOM     20  CA  VAL E   3)     (3.921) C(ATOM     23  CB  VAL E   3) 0.967
                                                  H(ATOM     27  HA  VAL E   3) 0.942
                                                  C(ATOM     21  C   VAL E   3) 0.923
                                                  N(ATOM     19  N   VAL E   3) 0.915
                                                  O(ATOM     22  O   VAL E   3) 0.042
                                                  C(ATOM     13  CA  GLY E   2) 0.017
                                                  C(ATOM     36  CA  PRO E   4) 0.016
                                                  C(ATOM     14  C   GLY E   2) 0.015
                                                  N(ATOM     35  N   PRO E   4) 0.015
                                                  H(ATOM     26  H   VAL E   3) 0.012
 
    21  C(ATOM     21  C   VAL E   3)     (3.813) O(ATOM     22  O   VAL E   3) 1.482
                                                  N(ATOM     35  N   PRO E   4) 1.261
                                                  C(ATOM     20  CA  VAL E   3) 0.923
                                                  C(ATOM     39  CD  PRO E   4) 0.019
                                                  C(ATOM     36  CA  PRO E   4) 0.017
                                                  N(ATOM     19  N   VAL E   3) 0.013
 
    22  O(ATOM     22  O   VAL E   3)     (1.925) C(ATOM     21  C   VAL E   3) 1.482
                                                  N(ATOM     35  N   PRO E   4) 0.148
                                                  C(ATOM     20  CA  VAL E   3) 0.042
                                                  H(HETATM 3563 2H   HOH E 428) 0.033
                                                  H(HETATM 3572 2H   HOH E 477) 0.025
                                                  C(ATOM     39  CD  PRO E   4) 0.021
                                                  O(HETATM 3561  O   HOH E 428) 0.013
 
    23  C(ATOM     23  CB  VAL E   3)     (3.978) C(ATOM     25  CG2 VAL E   3) 1.004
                                                  C(ATOM     24  CG1 VAL E   3) 1.001
                                                  C(ATOM     20  CA  VAL E   3) 0.967
                                                  H(ATOM     28  HB  VAL E   3) 0.962
 
    24  C(ATOM     24  CG1 VAL E   3)     (3.921) C(ATOM     23  CB  VAL E   3) 1.001
                                                  H(ATOM     30 2HG1 VAL E   3) 0.968
                                                  H(ATOM     29 1HG1 VAL E   3) 0.963
                                                  H(ATOM     31 3HG1 VAL E   3) 0.960
 
    25  C(ATOM     25  CG2 VAL E   3)     (3.919) C(ATOM     23  CB  VAL E   3) 1.004
                                                  H(ATOM     32 1HG2 VAL E   3) 0.967
                                                  H(ATOM     33 2HG2 VAL E   3) 0.962
                                                  H(ATOM     34 3HG2 VAL E   3) 0.960
 
    26  H(ATOM     26  H   VAL E   3)     (0.865) N(ATOM     19  N   VAL E   3) 0.803
                                                  O(ATOM     15  O   GLY E   2) 0.014
                                                  C(ATOM     20  CA  VAL E   3) 0.012
                                                  C(ATOM     14  C   GLY E   2) 0.012
                                                  O(HETATM 3561  O   HOH E 428) 0.010
 
    27  H(ATOM     27  HA  VAL E   3)     (0.963) C(ATOM     20  CA  VAL E   3) 0.942
 
    28  H(ATOM     28  HB  VAL E   3)     (0.979) C(ATOM     23  CB  VAL E   3) 0.962
 
    29  H(ATOM     29 1HG1 VAL E   3)     (0.973) C(ATOM     24  CG1 VAL E   3) 0.963
 
    30  H(ATOM     30 2HG1 VAL E   3)     (0.977) C(ATOM     24  CG1 VAL E   3) 0.968
 
    31  H(ATOM     31 3HG1 VAL E   3)     (0.970) C(ATOM     24  CG1 VAL E   3) 0.960
 
    32  H(ATOM     32 1HG2 VAL E   3)     (0.977) C(ATOM     25  CG2 VAL E   3) 0.967
 
    33  H(ATOM     33 2HG2 VAL E   3)     (0.972) C(ATOM     25  CG2 VAL E   3) 0.962
 
    34  H(ATOM     34 3HG2 VAL E   3)     (0.971) C(ATOM     25  CG2 VAL E   3) 0.960
 
    35  N(ATOM     35  N   PRO E   4)     (3.297) C(ATOM     21  C   VAL E   3) 1.261
                                                  C(ATOM     36  CA  PRO E   4) 0.886
                                                  C(ATOM     39  CD  PRO E   4) 0.876
                                                  O(ATOM     22  O   VAL E   3) 0.148
                                                  C(ATOM     20  CA  VAL E   3) 0.015
 
    36  C(ATOM     36  CA  PRO E   4)     (3.937) C(ATOM     40  CB  PRO E   4) 0.986
                                                  H(ATOM     42  HA  PRO E   4) 0.933
                                                  C(ATOM     37  C   PRO E   4) 0.927
                                                  N(ATOM     35  N   PRO E   4) 0.886
                                                  O(ATOM     38  O   PRO E   4) 0.046
                                                  C(ATOM     50  CA  ALA E   5) 0.017
                                                  C(ATOM     39  CD  PRO E   4) 0.017
                                                  C(ATOM     21  C   VAL E   3) 0.017
                                                  N(ATOM     49  N   ALA E   5) 0.016
                                                  C(ATOM     20  CA  VAL E   3) 0.016
                                                  C(ATOM    324  CG  PRO F  28) 0.013
 
    37  C(ATOM     37  C   PRO E   4)     (3.815) O(ATOM     38  O   PRO E   4) 1.578
                                                  N(ATOM     49  N   ALA E   5) 1.210
                                                  C(ATOM     36  CA  PRO E   4) 0.927
                                                  C(ATOM     50  CA  ALA E   5) 0.014
                                                  H(ATOM     54  H   ALA E   5) 0.012
 
    38  O(ATOM     38  O   PRO E   4)     (2.026) C(ATOM     37  C   PRO E   4) 1.578
                                                  N(ATOM     49  N   ALA E   5) 0.152
                                                  C(ATOM     36  CA  PRO E   4) 0.046
                                                  H(HETATM 3568 1H   HOH E 475) 0.029
                                                  H(ATOM     54  H   ALA E   5) 0.015
                                                  O(HETATM 3567  O   HOH E 475) 0.011
 
    39  C(ATOM     39  CD  PRO E   4)     (3.905) C(ATOM     41  CG  PRO E   4) 1.002
                                                  H(ATOM     43 1HD  PRO E   4) 0.958
                                                  H(ATOM     44 2HD  PRO E   4) 0.950
                                                  N(ATOM     35  N   PRO E   4) 0.876
                                                  O(ATOM     22  O   VAL E   3) 0.021
                                                  C(ATOM     21  C   VAL E   3) 0.019
                                                  C(ATOM     36  CA  PRO E   4) 0.017
 
    40  C(ATOM     40  CB  PRO E   4)     (3.945) C(ATOM     41  CG  PRO E   4) 0.992
                                                  C(ATOM     36  CA  PRO E   4) 0.986
                                                  H(ATOM     46 2HB  PRO E   4) 0.951
                                                  H(ATOM     45 1HB  PRO E   4) 0.945
 
    41  C(ATOM     41  CG  PRO E   4)     (3.960) C(ATOM     39  CD  PRO E   4) 1.002
                                                  C(ATOM     40  CB  PRO E   4) 0.992
                                                  H(ATOM     48 2HG  PRO E   4) 0.965
                                                  H(ATOM     47 1HG  PRO E   4) 0.957
 
    42  H(ATOM     42  HA  PRO E   4)     (0.970) C(ATOM     36  CA  PRO E   4) 0.933
                                                  H(ATOM    331 2HG  PRO F  28) 0.014
 
    43  H(ATOM     43 1HD  PRO E   4)     (0.976) C(ATOM     39  CD  PRO E   4) 0.958
 
    44  H(ATOM     44 2HD  PRO E   4)     (0.973) C(ATOM     39  CD  PRO E   4) 0.950
 
    45  H(ATOM     45 1HB  PRO E   4)     (0.965) C(ATOM     40  CB  PRO E   4) 0.945
 
    46  H(ATOM     46 2HB  PRO E   4)     (0.968) C(ATOM     40  CB  PRO E   4) 0.951
 
    47  H(ATOM     47 1HG  PRO E   4)     (0.974) C(ATOM     41  CG  PRO E   4) 0.957
 
    48  H(ATOM     48 2HG  PRO E   4)     (0.977) C(ATOM     41  CG  PRO E   4) 0.965
 
    49  N(ATOM     49  N   ALA E   5)     (3.229) C(ATOM     37  C   PRO E   4) 1.210
                                                  C(ATOM     50  CA  ALA E   5) 0.920
                                                  H(ATOM     54  H   ALA E   5) 0.801
                                                  O(ATOM     38  O   PRO E   4) 0.152
                                                  C(ATOM     36  CA  PRO E   4) 0.016
                                                  C(ATOM     51  C   ALA E   5) 0.014
 
    50  C(ATOM     50  CA  ALA E   5)     (3.924) C(ATOM     53  CB  ALA E   5) 0.995
                                                  H(ATOM     55  HA  ALA E   5) 0.935
                                                  N(ATOM     49  N   ALA E   5) 0.920
                                                  C(ATOM     51  C   ALA E   5) 0.919
                                                  O(ATOM     52  O   ALA E   5) 0.040
                                                  C(ATOM     60  CA  ILE E   6) 0.018
                                                  C(ATOM     36  CA  PRO E   4) 0.017
                                                  N(ATOM     59  N   ILE E   6) 0.016
                                                  C(ATOM     37  C   PRO E   4) 0.014
                                                  H(ATOM     54  H   ALA E   5) 0.012
 
    51  C(ATOM     51  C   ALA E   5)     (3.800) O(ATOM     52  O   ALA E   5) 1.477
                                                  N(ATOM     59  N   ILE E   6) 1.273
                                                  C(ATOM     50  CA  ALA E   5) 0.919
                                                  C(ATOM     60  CA  ILE E   6) 0.015
                                                  N(ATOM     49  N   ALA E   5) 0.014
                                                  H(ATOM     67  H   ILE E   6) 0.012
 
    52  O(ATOM     52  O   ALA E   5)     (1.890) C(ATOM     51  C   ALA E   5) 1.477
                                                  N(ATOM     59  N   ILE E   6) 0.143
                                                  C(ATOM     50  CA  ALA E   5) 0.040
                                                  H(HETATM 3598 1H   HOH E 542) 0.032
                                                  H(HETATM 3916 1H   HOH F 445) 0.026
                                                  H(ATOM     67  H   ILE E   6) 0.014
                                                  O(HETATM 3597  O   HOH E 542) 0.012
                                                  O(HETATM 3915  O   HOH F 445) 0.010
 
    53  C(ATOM     53  CB  ALA E   5)     (3.917) C(ATOM     50  CA  ALA E   5) 0.995
                                                  H(ATOM     57 2HB  ALA E   5) 0.963
                                                  H(ATOM     58 3HB  ALA E   5) 0.953
                                                  H(ATOM     56 1HB  ALA E   5) 0.952
 
    54  H(ATOM     54  H   ALA E   5)     (0.866) N(ATOM     49  N   ALA E   5) 0.801
                                                  O(ATOM     38  O   PRO E   4) 0.015
                                                  O(HETATM 3642  O   HOH F 312) 0.015
                                                  C(ATOM     50  CA  ALA E   5) 0.012
                                                  C(ATOM     37  C   PRO E   4) 0.012
 
    55  H(ATOM     55  HA  ALA E   5)     (0.959) C(ATOM     50  CA  ALA E   5) 0.935
 
    56  H(ATOM     56 1HB  ALA E   5)     (0.965) C(ATOM     53  CB  ALA E   5) 0.952
 
    57  H(ATOM     57 2HB  ALA E   5)     (0.977) C(ATOM     53  CB  ALA E   5) 0.963
 
    58  H(ATOM     58 3HB  ALA E   5)     (0.968) C(ATOM     53  CB  ALA E   5) 0.953
 
    59  N(ATOM     59  N   ILE E   6)     (3.277) C(ATOM     51  C   ALA E   5) 1.273
                                                  C(ATOM     60  CA  ILE E   6) 0.912
                                                  H(ATOM     67  H   ILE E   6) 0.783
                                                  O(ATOM     52  O   ALA E   5) 0.143
                                                  C(ATOM     50  CA  ALA E   5) 0.016
                                                  C(ATOM     61  C   ILE E   6) 0.014
                                                  O(HETATM 3639  O   HOH F 311) 0.011
 
    60  C(ATOM     60  CA  ILE E   6)     (3.936) C(ATOM     63  CB  ILE E   6) 0.973
                                                  H(ATOM     68  HA  ILE E   6) 0.947
                                                  C(ATOM     61  C   ILE E   6) 0.914
                                                  N(ATOM     59  N   ILE E   6) 0.912
                                                  O(ATOM     62  O   ILE E   6) 0.047
                                                  C(ATOM     50  CA  ALA E   5) 0.018
                                                  C(ATOM     79  CA  GLN E   7) 0.018
                                                  N(ATOM     78  N   GLN E   7) 0.017
                                                  C(ATOM     51  C   ALA E   5) 0.015
                                                  H(ATOM     67  H   ILE E   6) 0.010
 
    61  C(ATOM     61  C   ILE E   6)     (3.822) O(ATOM     62  O   ILE E   6) 1.628
                                                  N(ATOM     78  N   GLN E   7) 1.172
                                                  C(ATOM     60  CA  ILE E   6) 0.914
                                                  N(ATOM     59  N   ILE E   6) 0.014
                                                  H(ATOM     87  H   GLN E   7) 0.014
                                                  C(ATOM     79  CA  GLN E   7) 0.013
 
    62  O(ATOM     62  O   ILE E   6)     (1.996) C(ATOM     61  C   ILE E   6) 1.628
                                                  N(ATOM     78  N   GLN E   7) 0.158
                                                  C(ATOM     60  CA  ILE E   6) 0.047
                                                  H(ATOM     87  H   GLN E   7) 0.017
 
    63  C(ATOM     63  CB  ILE E   6)     (3.971) C(ATOM     65  CG2 ILE E   6) 1.001
                                                  C(ATOM     64  CG1 ILE E   6) 0.995
                                                  C(ATOM     60  CA  ILE E   6) 0.973
                                                  H(ATOM     69  HB  ILE E   6) 0.956
 
    64  C(ATOM     64  CG1 ILE E   6)     (3.966) C(ATOM     66  CD1 ILE E   6) 1.006
                                                  C(ATOM     63  CB  ILE E   6) 0.995
                                                  H(ATOM     71 2HG1 ILE E   6) 0.967
                                                  H(ATOM     70 1HG1 ILE E   6) 0.960
 
    65  C(ATOM     65  CG2 ILE E   6)     (3.925) C(ATOM     63  CB  ILE E   6) 1.001
                                                  H(ATOM     72 1HG2 ILE E   6) 0.965
                                                  H(ATOM     73 2HG2 ILE E   6) 0.964
                                                  H(ATOM     74 3HG2 ILE E   6) 0.959
 
    66  C(ATOM     66  CD1 ILE E   6)     (3.934) C(ATOM     64  CG1 ILE E   6) 1.006
                                                  H(ATOM     76 2HD1 ILE E   6) 0.969
                                                  H(ATOM     75 1HD1 ILE E   6) 0.969
                                                  H(ATOM     77 3HD1 ILE E   6) 0.964
 
    67  H(ATOM     67  H   ILE E   6)     (0.858) N(ATOM     59  N   ILE E   6) 0.783
                                                  O(HETATM 3639  O   HOH F 311) 0.028
                                                  O(ATOM     52  O   ALA E   5) 0.014
                                                  C(ATOM     51  C   ALA E   5) 0.012
                                                  C(ATOM     60  CA  ILE E   6) 0.010
 
    68  H(ATOM     68  HA  ILE E   6)     (0.969) C(ATOM     60  CA  ILE E   6) 0.947
 
    69  H(ATOM     69  HB  ILE E   6)     (0.974) C(ATOM     63  CB  ILE E   6) 0.956
 
    70  H(ATOM     70 1HG1 ILE E   6)     (0.973) C(ATOM     64  CG1 ILE E   6) 0.960
 
    71  H(ATOM     71 2HG1 ILE E   6)     (0.981) C(ATOM     64  CG1 ILE E   6) 0.967
 
    72  H(ATOM     72 1HG2 ILE E   6)     (0.978) C(ATOM     65  CG2 ILE E   6) 0.965
 
    73  H(ATOM     73 2HG2 ILE E   6)     (0.972) C(ATOM     65  CG2 ILE E   6) 0.964
 
    74  H(ATOM     74 3HG2 ILE E   6)     (0.972) C(ATOM     65  CG2 ILE E   6) 0.959
 
    75  H(ATOM     75 1HD1 ILE E   6)     (0.979) C(ATOM     66  CD1 ILE E   6) 0.969
 
    76  H(ATOM     76 2HD1 ILE E   6)     (0.978) C(ATOM     66  CD1 ILE E   6) 0.969
 
    77  H(ATOM     77 3HD1 ILE E   6)     (0.976) C(ATOM     66  CD1 ILE E   6) 0.964
 
    78  N(ATOM     78  N   GLN E   7)     (3.236) C(ATOM     61  C   ILE E   6) 1.172
                                                  C(ATOM     79  CA  GLN E   7) 0.927
                                                  H(ATOM     87  H   GLN E   7) 0.819
                                                  O(ATOM     62  O   ILE E   6) 0.158
                                                  C(ATOM     60  CA  ILE E   6) 0.017
                                                  C(ATOM     80  C   GLN E   7) 0.016
 
    79  C(ATOM     79  CA  GLN E   7)     (3.939) C(ATOM     82  CB  GLN E   7) 0.984
                                                  N(ATOM     78  N   GLN E   7) 0.927
                                                  H(ATOM     88  HA  GLN E   7) 0.926
                                                  C(ATOM     80  C   GLN E   7) 0.918
                                                  O(ATOM     81  O   GLN E   7) 0.044
                                                  C(ATOM     60  CA  ILE E   6) 0.018
                                                  C(ATOM     96  CA  PRO E   8) 0.016
                                                  N(ATOM     95  N   PRO E   8) 0.014
                                                  C(ATOM     61  C   ILE E   6) 0.013
                                                  H(ATOM     87  H   GLN E   7) 0.011
 
    80  C(ATOM     80  C   GLN E   7)     (3.821) O(ATOM     81  O   GLN E   7) 1.568
                                                  N(ATOM     95  N   PRO E   8) 1.195
                                                  C(ATOM     79  CA  GLN E   7) 0.918
                                                  C(ATOM     99  CD  PRO E   8) 0.020
                                                  N(ATOM     78  N   GLN E   7) 0.016
                                                  C(ATOM     96  CA  PRO E   8) 0.015
 
    81  O(ATOM     81  O   GLN E   7)     (2.039) C(ATOM     80  C   GLN E   7) 1.568
                                                  N(ATOM     95  N   PRO E   8) 0.152
                                                  C(ATOM     79  CA  GLN E   7) 0.044
                                                  H(HETATM 3595 1H   HOH E 528) 0.036
                                                  C(ATOM     99  CD  PRO E   8) 0.022
                                                  O(HETATM 3594  O   HOH E 528) 0.015
 
    82  C(ATOM     82  CB  GLN E   7)     (3.955) C(ATOM     79  CA  GLN E   7) 0.984
                                                  C(ATOM     83  CG  GLN E   7) 0.984
                                                  H(ATOM     89 1HB  GLN E   7) 0.954
                                                  H(ATOM     90 2HB  GLN E   7) 0.949
 
    83  C(ATOM     83  CG  GLN E   7)     (3.945) C(ATOM     82  CB  GLN E   7) 0.984
                                                  C(ATOM     84  CD  GLN E   7) 0.969
                                                  H(ATOM     92 2HG  GLN E   7) 0.951
                                                  H(ATOM     91 1HG  GLN E   7) 0.931
                                                  O(ATOM     85  OE1 GLN E   7) 0.039
                                                  N(ATOM     86  NE2 GLN E   7) 0.018
                                                  H(ATOM     93 1HE2 GLN E   7) 0.013
 
    84  C(ATOM     84  CD  GLN E   7)     (3.808) O(ATOM     85  OE1 GLN E   7) 1.489
                                                  N(ATOM     86  NE2 GLN E   7) 1.275
                                                  C(ATOM     83  CG  GLN E   7) 0.969
                                                  H(ATOM     94 2HE2 GLN E   7) 0.012
                                                  H(ATOM     93 1HE2 GLN E   7) 0.011
 
    85  O(ATOM     85  OE1 GLN E   7)     (1.963) C(ATOM     84  CD  GLN E   7) 1.489
                                                  N(ATOM     86  NE2 GLN E   7) 0.147
                                                  C(ATOM     83  CG  GLN E   7) 0.039
                                                  H(HETATM 3604 1H   HOH E 569) 0.038
                                                  H(HETATM 3590 2H   HOH E 498) 0.032
                                                  H(ATOM     94 2HE2 GLN E   7) 0.016
                                                  O(HETATM 3603  O   HOH E 569) 0.016
                                                  O(HETATM 3588  O   HOH E 498) 0.013
 
    86  N(ATOM     86  NE2 GLN E   7)     (3.205) C(ATOM     84  CD  GLN E   7) 1.275
                                                  H(ATOM     93 1HE2 GLN E   7) 0.851
                                                  H(ATOM     94 2HE2 GLN E   7) 0.820
                                                  O(ATOM     85  OE1 GLN E   7) 0.147
                                                  C(ATOM     83  CG  GLN E   7) 0.018
 
    87  H(ATOM     87  H   GLN E   7)     (0.874) N(ATOM     78  N   GLN E   7) 0.819
                                                  O(ATOM     62  O   ILE E   6) 0.017
                                                  C(ATOM     61  C   ILE E   6) 0.014
                                                  C(ATOM     79  CA  GLN E   7) 0.011
 
    88  H(ATOM     88  HA  GLN E   7)     (0.955) C(ATOM     79  CA  GLN E   7) 0.926
 
    89  H(ATOM     89 1HB  GLN E   7)     (0.972) C(ATOM     82  CB  GLN E   7) 0.954
 
    90  H(ATOM     90 2HB  GLN E   7)     (0.963) C(ATOM     82  CB  GLN E   7) 0.949
 
    91  H(ATOM     91 1HG  GLN E   7)     (0.957) C(ATOM     83  CG  GLN E   7) 0.931
 
    92  H(ATOM     92 2HG  GLN E   7)     (0.968) C(ATOM     83  CG  GLN E   7) 0.951
 
    93  H(ATOM     93 1HE2 GLN E   7)     (0.888) N(ATOM     86  NE2 GLN E   7) 0.851
                                                  C(ATOM     83  CG  GLN E   7) 0.013
                                                  C(ATOM     84  CD  GLN E   7) 0.011
 
    94  H(ATOM     94 2HE2 GLN E   7)     (0.878) N(ATOM     86  NE2 GLN E   7) 0.820
                                                  O(HETATM 3615  O   HOH E 628) 0.024
                                                  O(ATOM     85  OE1 GLN E   7) 0.016
                                                  C(ATOM     84  CD  GLN E   7) 0.012
 
    95  N(ATOM     95  N   PRO E   8)     (3.278) C(ATOM     80  C   GLN E   7) 1.195
                                                  C(ATOM     96  CA  PRO E   8) 0.908
                                                  C(ATOM     99  CD  PRO E   8) 0.872
                                                  O(ATOM     81  O   GLN E   7) 0.152
                                                  C(ATOM     79  CA  GLN E   7) 0.014
                                                  C(ATOM     97  C   PRO E   8) 0.010
 
    96  C(ATOM     96  CA  PRO E   8)     (3.946) C(ATOM    100  CB  PRO E   8) 0.989
                                                  H(ATOM    102  HA  PRO E   8) 0.931
                                                  C(ATOM     97  C   PRO E   8) 0.927
                                                  N(ATOM     95  N   PRO E   8) 0.908
                                                  O(ATOM     98  O   PRO E   8) 0.040
                                                  C(ATOM    110  CA  VAL E   9) 0.018
                                                  C(ATOM     99  CD  PRO E   8) 0.017
                                                  N(ATOM    109  N   VAL E   9) 0.016
                                                  C(ATOM     79  CA  GLN E   7) 0.016
                                                  C(ATOM     80  C   GLN E   7) 0.015
 
    97  C(ATOM     97  C   PRO E   8)     (3.797) O(ATOM     98  O   PRO E   8) 1.511
                                                  N(ATOM    109  N   VAL E   9) 1.236
                                                  C(ATOM     96  CA  PRO E   8) 0.927
                                                  C(ATOM    110  CA  VAL E   9) 0.014
                                                  H(ATOM    116  H   VAL E   9) 0.012
                                                  N(ATOM     95  N   PRO E   8) 0.010
 
    98  O(ATOM     98  O   PRO E   8)     (1.922) C(ATOM     97  C   PRO E   8) 1.511
                                                  N(ATOM    109  N   VAL E   9) 0.146
                                                  C(ATOM     96  CA  PRO E   8) 0.040
                                                  H(HETATM 3616 1H   HOH E 628) 0.032
                                                  H(HETATM 3610 1H   HOH E 586) 0.020
                                                  H(ATOM    116  H   VAL E   9) 0.014
                                                  O(HETATM 3615  O   HOH E 628) 0.012
 
    99  C(ATOM     99  CD  PRO E   8)     (3.911) C(ATOM    101  CG  PRO E   8) 1.003
                                                  H(ATOM    103 1HD  PRO E   8) 0.958
                                                  H(ATOM    104 2HD  PRO E   8) 0.945
                                                  N(ATOM     95  N   PRO E   8) 0.872
                                                  O(ATOM     81  O   GLN E   7) 0.022
                                                  C(ATOM     80  C   GLN E   7) 0.020
                                                  C(ATOM     96  CA  PRO E   8) 0.017
 
   100  C(ATOM    100  CB  PRO E   8)     (3.955) C(ATOM     96  CA  PRO E   8) 0.989
                                                  C(ATOM    101  CG  PRO E   8) 0.989
                                                  H(ATOM    105 1HB  PRO E   8) 0.966
                                                  H(ATOM    106 2HB  PRO E   8) 0.956
 
   101  C(ATOM    101  CG  PRO E   8)     (3.958) C(ATOM     99  CD  PRO E   8) 1.003
                                                  C(ATOM    100  CB  PRO E   8) 0.989
                                                  H(ATOM    107 1HG  PRO E   8) 0.968
                                                  H(ATOM    108 2HG  PRO E   8) 0.953
 
   102  H(ATOM    102  HA  PRO E   8)     (0.964) C(ATOM     96  CA  PRO E   8) 0.931
 
   103  H(ATOM    103 1HD  PRO E   8)     (0.976) C(ATOM     99  CD  PRO E   8) 0.958
 
   104  H(ATOM    104 2HD  PRO E   8)     (0.965) C(ATOM     99  CD  PRO E   8) 0.945
 
   105  H(ATOM    105 1HB  PRO E   8)     (0.979) C(ATOM    100  CB  PRO E   8) 0.966
 
   106  H(ATOM    106 2HB  PRO E   8)     (0.970) C(ATOM    100  CB  PRO E   8) 0.956
 
   107  H(ATOM    107 1HG  PRO E   8)     (0.979) C(ATOM    101  CG  PRO E   8) 0.968
 
   108  H(ATOM    108 2HG  PRO E   8)     (0.965) C(ATOM    101  CG  PRO E   8) 0.953
 
   109  N(ATOM    109  N   VAL E   9)     (3.249) C(ATOM     97  C   PRO E   8) 1.236
                                                  C(ATOM    110  CA  VAL E   9) 0.917
                                                  H(ATOM    116  H   VAL E   9) 0.796
                                                  O(ATOM     98  O   PRO E   8) 0.146
                                                  C(ATOM    111  C   VAL E   9) 0.017
                                                  C(ATOM     96  CA  PRO E   8) 0.016
 
   110  C(ATOM    110  CA  VAL E   9)     (3.919) C(ATOM    113  CB  VAL E   9) 0.967
                                                  H(ATOM    117  HA  VAL E   9) 0.942
                                                  C(ATOM    111  C   VAL E   9) 0.919
                                                  N(ATOM    109  N   VAL E   9) 0.917
                                                  O(ATOM    112  O   VAL E   9) 0.043
                                                  C(ATOM     96  CA  PRO E   8) 0.018
                                                  C(ATOM    126  CA  LEU E  10) 0.018
                                                  N(ATOM    125  N   LEU E  10) 0.014
                                                  C(ATOM     97  C   PRO E   8) 0.014
                                                  H(ATOM    116  H   VAL E   9) 0.012
 
   111  C(ATOM    111  C   VAL E   9)     (3.810) O(ATOM    112  O   VAL E   9) 1.528
                                                  N(ATOM    125  N   LEU E  10) 1.236
                                                  C(ATOM    110  CA  VAL E   9) 0.919
                                                  N(ATOM    109  N   VAL E   9) 0.017
                                                  C(ATOM    126  CA  LEU E  10) 0.015
                                                  H(ATOM    133  H   LEU E  10) 0.012
 
   112  O(ATOM    112  O   VAL E   9)     (1.957) C(ATOM    111  C   VAL E   9) 1.528
                                                  N(ATOM    125  N   LEU E  10) 0.150
                                                  C(ATOM    110  CA  VAL E   9) 0.043
                                                  H(HETATM 3601 1H   HOH E 546) 0.035
                                                  H(ATOM    133  H   LEU E  10) 0.014
                                                  O(HETATM 3600  O   HOH E 546) 0.012
                                                  H(ATOM   2208 1HE2 GLN G 157) 0.011
 
   113  C(ATOM    113  CB  VAL E   9)     (3.978) C(ATOM    115  CG2 VAL E   9) 1.003
                                                  C(ATOM    114  CG1 VAL E   9) 1.001
                                                  C(ATOM    110  CA  VAL E   9) 0.967
                                                  H(ATOM    118  HB  VAL E   9) 0.957
 
   114  C(ATOM    114  CG1 VAL E   9)     (3.917) C(ATOM    113  CB  VAL E   9) 1.001
                                                  H(ATOM    119 1HG1 VAL E   9) 0.966
                                                  H(ATOM    120 2HG1 VAL E   9) 0.964
                                                  H(ATOM    121 3HG1 VAL E   9) 0.957
 
   115  C(ATOM    115  CG2 VAL E   9)     (3.924) C(ATOM    113  CB  VAL E   9) 1.003
                                                  H(ATOM    123 2HG2 VAL E   9) 0.963
                                                  H(ATOM    122 1HG2 VAL E   9) 0.962
                                                  H(ATOM    124 3HG2 VAL E   9) 0.961
 
   116  H(ATOM    116  H   VAL E   9)     (0.861) N(ATOM    109  N   VAL E   9) 0.796
                                                  O(HETATM 4233  O   HOH G 314) 0.015
                                                  O(ATOM     98  O   PRO E   8) 0.014
                                                  C(ATOM     97  C   PRO E   8) 0.012
                                                  C(ATOM    110  CA  VAL E   9) 0.012
 
   117  H(ATOM    117  HA  VAL E   9)     (0.966) C(ATOM    110  CA  VAL E   9) 0.942
 
   118  H(ATOM    118  HB  VAL E   9)     (0.978) C(ATOM    113  CB  VAL E   9) 0.957
 
   119  H(ATOM    119 1HG1 VAL E   9)     (0.978) C(ATOM    114  CG1 VAL E   9) 0.966
 
   120  H(ATOM    120 2HG1 VAL E   9)     (0.974) C(ATOM    114  CG1 VAL E   9) 0.964
 
   121  H(ATOM    121 3HG1 VAL E   9)     (0.968) C(ATOM    114  CG1 VAL E   9) 0.957
 
   122  H(ATOM    122 1HG2 VAL E   9)     (0.973) C(ATOM    115  CG2 VAL E   9) 0.962
 
   123  H(ATOM    123 2HG2 VAL E   9)     (0.973) C(ATOM    115  CG2 VAL E   9) 0.963
 
   124  H(ATOM    124 3HG2 VAL E   9)     (0.973) C(ATOM    115  CG2 VAL E   9) 0.961
 
   125  N(ATOM    125  N   LEU E  10)     (3.260) C(ATOM    111  C   VAL E   9) 1.236
                                                  C(ATOM    126  CA  LEU E  10) 0.925
                                                  H(ATOM    133  H   LEU E  10) 0.794
                                                  O(ATOM    112  O   VAL E   9) 0.150
                                                  C(ATOM    110  CA  VAL E   9) 0.014
                                                  C(ATOM    127  C   LEU E  10) 0.014
 
   126  C(ATOM    126  CA  LEU E  10)     (3.941) C(ATOM    129  CB  LEU E  10) 0.984
                                                  H(ATOM    134  HA  LEU E  10) 0.931
                                                  N(ATOM    125  N   LEU E  10) 0.925
                                                  C(ATOM    127  C   LEU E  10) 0.921
                                                  O(ATOM    128  O   LEU E  10) 0.048
                                                  N(ATOM    144  N   SER E  11) 0.022
                                                  C(ATOM    110  CA  VAL E   9) 0.018
                                                  C(ATOM    111  C   VAL E   9) 0.015
                                                  H(ATOM    133  H   LEU E  10) 0.010
 
   127  C(ATOM    127  C   LEU E  10)     (3.789) O(ATOM    128  O   LEU E  10) 1.893
                                                  C(ATOM    126  CA  LEU E  10) 0.921
                                                  N(ATOM    144  N   SER E  11) 0.872
                                                  N(ATOM    125  N   LEU E  10) 0.014
 
   128  O(ATOM    128  O   LEU E  10)     (2.218) C(ATOM    127  C   LEU E  10) 1.893
                                                  N(ATOM    144  N   SER E  11) 0.088
                                                  C(ATOM    126  CA  LEU E  10) 0.048
                                                  H(ATOM    146 2H   SER E  11) 0.012
                                                  C(ATOM    129  CB  LEU E  10) 0.010
 
   129  C(ATOM    129  CB  LEU E  10)     (3.949) C(ATOM    130  CG  LEU E  10) 0.991
                                                  C(ATOM    126  CA  LEU E  10) 0.984
                                                  H(ATOM    135 1HB  LEU E  10) 0.951
                                                  H(ATOM    136 2HB  LEU E  10) 0.951
                                                  O(ATOM    128  O   LEU E  10) 0.010
 
   130  C(ATOM    130  CG  LEU E  10)     (3.985) C(ATOM    131  CD1 LEU E  10) 1.002
                                                  C(ATOM    132  CD2 LEU E  10) 1.002
                                                  C(ATOM    129  CB  LEU E  10) 0.991
                                                  H(ATOM    137  HG  LEU E  10) 0.964
 
   131  C(ATOM    131  CD1 LEU E  10)     (3.933) C(ATOM    130  CG  LEU E  10) 1.002
                                                  H(ATOM    138 1HD1 LEU E  10) 0.970
                                                  H(ATOM    140 3HD1 LEU E  10) 0.966
                                                  H(ATOM    139 2HD1 LEU E  10) 0.964
 
   132  C(ATOM    132  CD2 LEU E  10)     (3.923) C(ATOM    130  CG  LEU E  10) 1.002
                                                  H(ATOM    141 1HD2 LEU E  10) 0.965
                                                  H(ATOM    143 3HD2 LEU E  10) 0.961
                                                  H(ATOM    142 2HD2 LEU E  10) 0.960
 
   133  H(ATOM    133  H   LEU E  10)     (0.863) N(ATOM    125  N   LEU E  10) 0.794
                                                  O(HETATM 3555  O   HOH E 404) 0.019
                                                  O(ATOM    112  O   VAL E   9) 0.014
                                                  C(ATOM    111  C   VAL E   9) 0.012
                                                  C(ATOM    126  CA  LEU E  10) 0.010
 
   134  H(ATOM    134  HA  LEU E  10)     (0.960) C(ATOM    126  CA  LEU E  10) 0.931
 
   135  H(ATOM    135 1HB  LEU E  10)     (0.969) C(ATOM    129  CB  LEU E  10) 0.951
 
   136  H(ATOM    136 2HB  LEU E  10)     (0.968) C(ATOM    129  CB  LEU E  10) 0.951
 
   137  H(ATOM    137  HG  LEU E  10)     (0.982) C(ATOM    130  CG  LEU E  10) 0.964
 
   138  H(ATOM    138 1HD1 LEU E  10)     (0.979) C(ATOM    131  CD1 LEU E  10) 0.970
 
   139  H(ATOM    139 2HD1 LEU E  10)     (0.977) C(ATOM    131  CD1 LEU E  10) 0.964
 
   140  H(ATOM    140 3HD1 LEU E  10)     (0.979) C(ATOM    131  CD1 LEU E  10) 0.966
 
   141  H(ATOM    141 1HD2 LEU E  10)     (0.977) C(ATOM    132  CD2 LEU E  10) 0.965
 
   142  H(ATOM    142 2HD2 LEU E  10)     (0.975) C(ATOM    132  CD2 LEU E  10) 0.960
 
   143  H(ATOM    143 3HD2 LEU E  10)     (0.972) C(ATOM    132  CD2 LEU E  10) 0.961
 
   144  N(ATOM    144  N   SER E  11)     (3.382) C(ATOM    127  C   LEU E  10) 0.872
                                                  H(ATOM    145 1H   SER E  11) 0.858
                                                  H(ATOM    146 2H   SER E  11) 0.822
                                                  H(ATOM    147 3H   SER E  11) 0.615
                                                  O(ATOM    128  O   LEU E  10) 0.088
                                                  O(ATOM    214  OE2 GLU F  20) 0.050
                                                  C(ATOM    126  CA  LEU E  10) 0.022
                                                  O(HETATM 4482  O   HOH G 576) 0.017
 
   145  H(ATOM    145 1H   SER E  11)     (0.883) N(ATOM    144  N   SER E  11) 0.858
 
   146  H(ATOM    146 2H   SER E  11)     (0.882) N(ATOM    144  N   SER E  11) 0.822
                                                  O(HETATM 4482  O   HOH G 576) 0.036
                                                  O(ATOM    128  O   LEU E  10) 0.012
 
   147  H(ATOM    147 3H   SER E  11)     (0.831) N(ATOM    144  N   SER E  11) 0.615
                                                  O(ATOM    214  OE2 GLU F  20) 0.185
 
   148  N(ATOM    148  N   ILE F  16)     (3.497) C(ATOM    149  CA  ILE F  16) 0.934
                                                  H(ATOM    157 2H   ILE F  16) 0.857
                                                  H(ATOM    158 3H   ILE F  16) 0.833
                                                  H(ATOM    156 1H   ILE F  16) 0.766
                                                  O(ATOM   2727  OD2 ASP G 194) 0.030
                                                  O(HETATM 3708  O   HOH F 345) 0.019
 
   149  C(ATOM    149  CA  ILE F  16)     (3.928) C(ATOM    152  CB  ILE F  16) 0.970
                                                  H(ATOM    159  HA  ILE F  16) 0.934
                                                  N(ATOM    148  N   ILE F  16) 0.934
                                                  C(ATOM    150  C   ILE F  16) 0.931
                                                  O(ATOM    151  O   ILE F  16) 0.051
                                                  C(ATOM    170  CA  VAL F  17) 0.018
                                                  N(ATOM    169  N   VAL F  17) 0.016
 
   150  C(ATOM    150  C   ILE F  16)     (3.829) O(ATOM    151  O   ILE F  16) 1.550
                                                  N(ATOM    169  N   VAL F  17) 1.252
                                                  C(ATOM    149  CA  ILE F  16) 0.931
                                                  C(ATOM    170  CA  VAL F  17) 0.014
                                                  H(ATOM    176  H   VAL F  17) 0.011
 
   151  O(ATOM    151  O   ILE F  16)     (1.945) C(ATOM    150  C   ILE F  16) 1.550
                                                  N(ATOM    169  N   VAL F  17) 0.159
                                                  C(ATOM    149  CA  ILE F  16) 0.051
                                                  H(HETATM 4231 1H   HOH G 309) 0.016
                                                  H(ATOM    176  H   VAL F  17) 0.014
 
   152  C(ATOM    152  CB  ILE F  16)     (3.977) C(ATOM    154  CG2 ILE F  16) 1.001
                                                  C(ATOM    153  CG1 ILE F  16) 0.995
                                                  C(ATOM    149  CA  ILE F  16) 0.970
                                                  H(ATOM    160  HB  ILE F  16) 0.960
 
   153  C(ATOM    153  CG1 ILE F  16)     (3.961) C(ATOM    155  CD1 ILE F  16) 1.006
                                                  C(ATOM    152  CB  ILE F  16) 0.995
                                                  H(ATOM    161 1HG1 ILE F  16) 0.958
                                                  H(ATOM    162 2HG1 ILE F  16) 0.956
 
   154  C(ATOM    154  CG2 ILE F  16)     (3.926) C(ATOM    152  CB  ILE F  16) 1.001
                                                  H(ATOM    164 2HG2 ILE F  16) 0.966
                                                  H(ATOM    163 1HG2 ILE F  16) 0.961
                                                  H(ATOM    165 3HG2 ILE F  16) 0.956
 
   155  C(ATOM    155  CD1 ILE F  16)     (3.936) C(ATOM    153  CG1 ILE F  16) 1.006
                                                  H(ATOM    167 2HD1 ILE F  16) 0.970
                                                  H(ATOM    168 3HD1 ILE F  16) 0.969
                                                  H(ATOM    166 1HD1 ILE F  16) 0.961
 
   156  H(ATOM    156 1H   ILE F  16)     (0.867) N(ATOM    148  N   ILE F  16) 0.766
                                                  O(ATOM   2727  OD2 ASP G 194) 0.082
 
   157  H(ATOM    157 2H   ILE F  16)     (0.894) N(ATOM    148  N   ILE F  16) 0.857
                                                  O(ATOM   2002  O   LEU F 143) 0.011
 
   158  H(ATOM    158 3H   ILE F  16)     (0.892) N(ATOM    148  N   ILE F  16) 0.833
                                                  O(HETATM 3708  O   HOH F 345) 0.039
 
   159  H(ATOM    159  HA  ILE F  16)     (0.958) C(ATOM    149  CA  ILE F  16) 0.934
 
   160  H(ATOM    160  HB  ILE F  16)     (0.977) C(ATOM    152  CB  ILE F  16) 0.960
 
   161  H(ATOM    161 1HG1 ILE F  16)     (0.976) C(ATOM    153  CG1 ILE F  16) 0.958
 
   162  H(ATOM    162 2HG1 ILE F  16)     (0.972) C(ATOM    153  CG1 ILE F  16) 0.956
 
   163  H(ATOM    163 1HG2 ILE F  16)     (0.973) C(ATOM    154  CG2 ILE F  16) 0.961
 
   164  H(ATOM    164 2HG2 ILE F  16)     (0.976) C(ATOM    154  CG2 ILE F  16) 0.966
 
   165  H(ATOM    165 3HG2 ILE F  16)     (0.976) C(ATOM    154  CG2 ILE F  16) 0.956
 
   166  H(ATOM    166 1HD1 ILE F  16)     (0.975) C(ATOM    155  CD1 ILE F  16) 0.961
 
   167  H(ATOM    167 2HD1 ILE F  16)     (0.979) C(ATOM    155  CD1 ILE F  16) 0.970
 
   168  H(ATOM    168 3HD1 ILE F  16)     (0.979) C(ATOM    155  CD1 ILE F  16) 0.969
 
   169  N(ATOM    169  N   VAL F  17)     (3.251) C(ATOM    150  C   ILE F  16) 1.252
                                                  C(ATOM    170  CA  VAL F  17) 0.917
                                                  H(ATOM    176  H   VAL F  17) 0.793
                                                  O(ATOM    151  O   ILE F  16) 0.159
                                                  C(ATOM    149  CA  ILE F  16) 0.016
                                                  C(ATOM    171  C   VAL F  17) 0.013
                                                  O(ATOM   2667  O   SER G 189) 0.010
 
   170  C(ATOM    170  CA  VAL F  17)     (3.933) C(ATOM    173  CB  VAL F  17) 0.972
                                                  H(ATOM    177  HA  VAL F  17) 0.932
                                                  N(ATOM    169  N   VAL F  17) 0.917
                                                  C(ATOM    171  C   VAL F  17) 0.916
                                                  O(ATOM    172  O   VAL F  17) 0.046
                                                  C(ATOM    186  CA  ASN F  18) 0.018
                                                  C(ATOM    149  CA  ILE F  16) 0.018
                                                  N(ATOM    185  N   ASN F  18) 0.016
                                                  C(ATOM    150  C   ILE F  16) 0.014
 
   171  C(ATOM    171  C   VAL F  17)     (3.813) O(ATOM    172  O   VAL F  17) 1.560
                                                  N(ATOM    185  N   ASN F  18) 1.223
                                                  C(ATOM    170  CA  VAL F  17) 0.916
                                                  C(ATOM    186  CA  ASN F  18) 0.015
                                                  N(ATOM    169  N   VAL F  17) 0.013
                                                  H(ATOM    193  H   ASN F  18) 0.012
 
   172  O(ATOM    172  O   VAL F  17)     (1.933) C(ATOM    171  C   VAL F  17) 1.560
                                                  N(ATOM    185  N   ASN F  18) 0.149
                                                  C(ATOM    170  CA  VAL F  17) 0.046
                                                  H(ATOM   2670  H   SER G 189) 0.016
                                                  H(ATOM    193  H   ASN F  18) 0.014
 
   173  C(ATOM    173  CB  VAL F  17)     (3.981) C(ATOM    175  CG2 VAL F  17) 1.003
                                                  C(ATOM    174  CG1 VAL F  17) 1.000
                                                  C(ATOM    170  CA  VAL F  17) 0.972
                                                  H(ATOM    178  HB  VAL F  17) 0.963
 
   174  C(ATOM    174  CG1 VAL F  17)     (3.926) C(ATOM    173  CB  VAL F  17) 1.000
                                                  H(ATOM    179 1HG1 VAL F  17) 0.964
                                                  H(ATOM    180 2HG1 VAL F  17) 0.959
                                                  H(ATOM    181 3HG1 VAL F  17) 0.958
 
   175  C(ATOM    175  CG2 VAL F  17)     (3.929) C(ATOM    173  CB  VAL F  17) 1.003
                                                  H(ATOM    182 1HG2 VAL F  17) 0.966
                                                  H(ATOM    183 2HG2 VAL F  17) 0.957
                                                  H(ATOM    184 3HG2 VAL F  17) 0.955
 
   176  H(ATOM    176  H   VAL F  17)     (0.872) N(ATOM    169  N   VAL F  17) 0.793
                                                  O(ATOM   2667  O   SER G 189) 0.031
                                                  O(ATOM    151  O   ILE F  16) 0.014
                                                  C(ATOM    150  C   ILE F  16) 0.011
 
   177  H(ATOM    177  HA  VAL F  17)     (0.960) C(ATOM    170  CA  VAL F  17) 0.932
 
   178  H(ATOM    178  HB  VAL F  17)     (0.983) C(ATOM    173  CB  VAL F  17) 0.963
 
   179  H(ATOM    179 1HG1 VAL F  17)     (0.978) C(ATOM    174  CG1 VAL F  17) 0.964
 
   180  H(ATOM    180 2HG1 VAL F  17)     (0.972) C(ATOM    174  CG1 VAL F  17) 0.959
 
   181  H(ATOM    181 3HG1 VAL F  17)     (0.974) C(ATOM    174  CG1 VAL F  17) 0.958
 
   182  H(ATOM    182 1HG2 VAL F  17)     (0.979) C(ATOM    175  CG2 VAL F  17) 0.966
 
   183  H(ATOM    183 2HG2 VAL F  17)     (0.972) C(ATOM    175  CG2 VAL F  17) 0.957
 
   184  H(ATOM    184 3HG2 VAL F  17)     (0.970) C(ATOM    175  CG2 VAL F  17) 0.955
 
   185  N(ATOM    185  N   ASN F  18)     (3.199) C(ATOM    171  C   VAL F  17) 1.223
                                                  C(ATOM    186  CA  ASN F  18) 0.927
                                                  H(ATOM    193  H   ASN F  18) 0.775
                                                  O(ATOM    172  O   VAL F  17) 0.149
                                                  C(ATOM    170  CA  VAL F  17) 0.016
                                                  O(HETATM 3774  O   HOH F 381) 0.013
 
   186  C(ATOM    186  CA  ASN F  18)     (3.950) C(ATOM    189  CB  ASN F  18) 0.980
                                                  C(ATOM    187  C   ASN F  18) 0.929
                                                  N(ATOM    185  N   ASN F  18) 0.927
                                                  H(ATOM    194  HA  ASN F  18) 0.927
                                                  O(ATOM    188  O   ASN F  18) 0.045
                                                  N(ATOM    199  N   GLY F  19) 0.019
                                                  C(ATOM    170  CA  VAL F  17) 0.018
                                                  C(ATOM    200  CA  GLY F  19) 0.016
                                                  C(ATOM    171  C   VAL F  17) 0.015
 
   187  C(ATOM    187  C   ASN F  18)     (3.802) O(ATOM    188  O   ASN F  18) 1.581
                                                  N(ATOM    199  N   GLY F  19) 1.186
                                                  C(ATOM    186  CA  ASN F  18) 0.929
                                                  C(ATOM    200  CA  GLY F  19) 0.015
                                                  H(ATOM    203  H   GLY F  19) 0.012
 
   188  O(ATOM    188  O   ASN F  18)     (1.977) C(ATOM    187  C   ASN F  18) 1.581
                                                  N(ATOM    199  N   GLY F  19) 0.138
                                                  C(ATOM    186  CA  ASN F  18) 0.045
                                                  H(HETATM 3799 1H   HOH F 392) 0.031
                                                  H(ATOM    203  H   GLY F  19) 0.016
                                                  O(HETATM 3798  O   HOH F 392) 0.012
 
   189  C(ATOM    189  CB  ASN F  18)     (3.926) C(ATOM    186  CA  ASN F  18) 0.980
                                                  C(ATOM    190  CG  ASN F  18) 0.979
                                                  H(ATOM    195 1HB  ASN F  18) 0.924
                                                  H(ATOM    196 2HB  ASN F  18) 0.915
                                                  O(ATOM    191  OD1 ASN F  18) 0.038
                                                  N(ATOM    192  ND2 ASN F  18) 0.019
                                                  H(ATOM    197 1HD2 ASN F  18) 0.013
 
   190  C(ATOM    190  CG  ASN F  18)     (3.794) O(ATOM    191  OD1 ASN F  18) 1.414
                                                  N(ATOM    192  ND2 ASN F  18) 1.327
                                                  C(ATOM    189  CB  ASN F  18) 0.979
                                                  H(ATOM    197 1HD2 ASN F  18) 0.012
                                                  H(ATOM    198 2HD2 ASN F  18) 0.011
 
   191  O(ATOM    191  OD1 ASN F  18)     (1.822) C(ATOM    190  CG  ASN F  18) 1.414
                                                  N(ATOM    192  ND2 ASN F  18) 0.142
                                                  H(HETATM 3689 2H   HOH F 337) 0.041
                                                  C(ATOM    189  CB  ASN F  18) 0.038
                                                  H(HETATM 3856 1H   HOH F 419) 0.033
                                                  H(ATOM    198 2HD2 ASN F  18) 0.016
                                                  O(HETATM 3687  O   HOH F 337) 0.016
                                                  O(HETATM 3855  O   HOH F 419) 0.012
 
   192  N(ATOM    192  ND2 ASN F  18)     (3.210) C(ATOM    190  CG  ASN F  18) 1.327
                                                  H(ATOM    197 1HD2 ASN F  18) 0.849
                                                  H(ATOM    198 2HD2 ASN F  18) 0.833
                                                  O(ATOM    191  OD1 ASN F  18) 0.142
                                                  C(ATOM    189  CB  ASN F  18) 0.019
 
   193  H(ATOM    193  H   ASN F  18)     (0.856) N(ATOM    185  N   ASN F  18) 0.775
                                                  O(HETATM 3774  O   HOH F 381) 0.034
                                                  O(ATOM    172  O   VAL F  17) 0.014
                                                  C(ATOM    171  C   VAL F  17) 0.012
 
   194  H(ATOM    194  HA  ASN F  18)     (0.955) C(ATOM    186  CA  ASN F  18) 0.927
 
   195  H(ATOM    195 1HB  ASN F  18)     (0.950) C(ATOM    189  CB  ASN F  18) 0.924
 
   196  H(ATOM    196 2HB  ASN F  18)     (0.953) C(ATOM    189  CB  ASN F  18) 0.915
 
   197  H(ATOM    197 1HD2 ASN F  18)     (0.891) N(ATOM    192  ND2 ASN F  18) 0.849
                                                  C(ATOM    189  CB  ASN F  18) 0.013
                                                  C(ATOM    190  CG  ASN F  18) 0.012
 
   198  H(ATOM    198 2HD2 ASN F  18)     (0.876) N(ATOM    192  ND2 ASN F  18) 0.833
                                                  O(ATOM    191  OD1 ASN F  18) 0.016
                                                  C(ATOM    190  CG  ASN F  18) 0.011
 
   199  N(ATOM    199  N   GLY F  19)     (3.231) C(ATOM    187  C   ASN F  18) 1.186
                                                  C(ATOM    200  CA  GLY F  19) 0.940
                                                  H(ATOM    203  H   GLY F  19) 0.831
                                                  O(ATOM    188  O   ASN F  18) 0.138
                                                  C(ATOM    186  CA  ASN F  18) 0.019
                                                  C(ATOM    201  C   GLY F  19) 0.013
 
   200  C(ATOM    200  CA  GLY F  19)     (3.941) H(ATOM    204 1HA  GLY F  19) 0.943
                                                  N(ATOM    199  N   GLY F  19) 0.940
                                                  H(ATOM    205 2HA  GLY F  19) 0.938
                                                  C(ATOM    201  C   GLY F  19) 0.933
                                                  O(ATOM    202  O   GLY F  19) 0.047
                                                  N(ATOM    206  N   GLU F  20) 0.018
                                                  C(ATOM    207  CA  GLU F  20) 0.017
                                                  C(ATOM    186  CA  ASN F  18) 0.016
                                                  C(ATOM    187  C   ASN F  18) 0.015
 
   201  C(ATOM    201  C   GLY F  19)     (3.805) O(ATOM    202  O   GLY F  19) 1.556
                                                  N(ATOM    206  N   GLU F  20) 1.215
                                                  C(ATOM    200  CA  GLY F  19) 0.933
                                                  C(ATOM    207  CA  GLU F  20) 0.013
                                                  N(ATOM    199  N   GLY F  19) 0.013
                                                  H(ATOM    215  H   GLU F  20) 0.012
 
   202  O(ATOM    202  O   GLY F  19)     (1.973) C(ATOM    201  C   GLY F  19) 1.556
                                                  N(ATOM    206  N   GLU F  20) 0.147
                                                  C(ATOM    200  CA  GLY F  19) 0.047
                                                  H(HETATM 4262 2H   HOH G 344) 0.034
                                                  H(ATOM    215  H   GLU F  20) 0.015
                                                  O(HETATM 4260  O   HOH G 344) 0.012
 
   203  H(ATOM    203  H   GLY F  19)     (0.883) N(ATOM    199  N   GLY F  19) 0.831
                                                  O(ATOM    188  O   ASN F  18) 0.016
                                                  C(ATOM    187  C   ASN F  18) 0.012
 
   204  H(ATOM    204 1HA  GLY F  19)     (0.968) C(ATOM    200  CA  GLY F  19) 0.943
 
   205  H(ATOM    205 2HA  GLY F  19)     (0.963) C(ATOM    200  CA  GLY F  19) 0.938
 
   206  N(ATOM    206  N   GLU F  20)     (3.242) C(ATOM    201  C   GLY F  19) 1.215
                                                  C(ATOM    207  CA  GLU F  20) 0.923
                                                  H(ATOM    215  H   GLU F  20) 0.807
                                                  O(ATOM    202  O   GLY F  19) 0.147
                                                  C(ATOM    200  CA  GLY F  19) 0.018
 
   207  C(ATOM    207  CA  GLU F  20)     (3.937) C(ATOM    210  CB  GLU F  20) 0.975
                                                  H(ATOM    216  HA  GLU F  20) 0.938
                                                  C(ATOM    208  C   GLU F  20) 0.924
                                                  N(ATOM    206  N   GLU F  20) 0.923
                                                  O(ATOM    209  O   GLU F  20) 0.046
                                                  C(ATOM    222  CA  GLU F  21) 0.018
                                                  N(ATOM    221  N   GLU F  21) 0.017
                                                  C(ATOM    200  CA  GLY F  19) 0.017
                                                  C(ATOM    201  C   GLY F  19) 0.013
                                                  H(ATOM    215  H   GLU F  20) 0.011
 
   208  C(ATOM    208  C   GLU F  20)     (3.807) O(ATOM    209  O   GLU F  20) 1.566
                                                  N(ATOM    221  N   GLU F  21) 1.215
                                                  C(ATOM    207  CA  GLU F  20) 0.924
                                                  C(ATOM    222  CA  GLU F  21) 0.015
                                                  H(ATOM    230  H   GLU F  21) 0.012
 
   209  O(ATOM    209  O   GLU F  20)     (2.004) C(ATOM    208  C   GLU F  20) 1.566
                                                  N(ATOM    221  N   GLU F  21) 0.154
                                                  C(ATOM    207  CA  GLU F  20) 0.046
                                                  H(ATOM    230  H   GLU F  21) 0.015
                                                  H(ATOM   2202  H   GLN G 157) 0.010
 
   210  C(ATOM    210  CB  GLU F  20)     (3.953) C(ATOM    211  CG  GLU F  20) 0.998
                                                  C(ATOM    207  CA  GLU F  20) 0.975
                                                  H(ATOM    218 2HB  GLU F  20) 0.954
                                                  H(ATOM    217 1HB  GLU F  20) 0.948
 
[...]
 
  4507  H(HETATM 4507 1H   HOH G 591)     (0.850) O(HETATM 4506  O   HOH G 591) 0.784
                                                  O(HETATM 4353  O   HOH G 458) 0.059
 
  4508  H(HETATM 4508 2H   HOH G 591)     (0.860) O(HETATM 4506  O   HOH G 591) 0.855
 
  4509  O(HETATM 4509  O   HOH G 594)     (1.994) H(HETATM 4510 1H   HOH G 594) 0.796
                                                  H(HETATM 4511 2H   HOH G 594) 0.760
                                                  H(HETATM 3544  H2  SO4 G 299) 0.211
                                                  O(HETATM 3540  O2  SO4 G 299) 0.051
                                                  O(HETATM 4551  O   HOH G 634) 0.023
                                                  O(HETATM 4107  O   HOH F 574) 0.018
 
  4510  H(HETATM 4510 1H   HOH G 594)     (0.849) O(HETATM 4509  O   HOH G 594) 0.796
                                                  O(HETATM 4107  O   HOH F 574) 0.043
 
  4511  H(HETATM 4511 2H   HOH G 594)     (0.829) O(HETATM 4509  O   HOH G 594) 0.760
                                                  O(HETATM 4551  O   HOH G 634) 0.060
 
  4512  O(HETATM 4512  O   HOH G 595)     (1.837) H(HETATM 4513 1H   HOH G 595) 0.803
                                                  H(HETATM 4514 2H   HOH G 595) 0.802
                                                  H(HETATM 4517 2H   HOH G 596) 0.039
                                                  O(HETATM 4389  O   HOH G 492) 0.019
                                                  O(HETATM 4515  O   HOH G 596) 0.016
                                                  O(HETATM 4503  O   HOH G 588) 0.010
 
  4513  H(HETATM 4513 1H   HOH G 595)     (0.841) O(HETATM 4512  O   HOH G 595) 0.803
                                                  O(HETATM 4503  O   HOH G 588) 0.029
 
  4514  H(HETATM 4514 2H   HOH G 595)     (0.851) O(HETATM 4512  O   HOH G 595) 0.802
                                                  O(HETATM 4389  O   HOH G 492) 0.044
 
  4515  O(HETATM 4515  O   HOH G 596)     (1.806) H(HETATM 4516 1H   HOH G 596) 0.827
                                                  H(HETATM 4517 2H   HOH G 596) 0.801
                                                  H(ATOM   2321  H   ASN G 165) 0.023
                                                  O(HETATM 4512  O   HOH G 595) 0.016
                                                  N(ATOM   2313  N   ASN G 165) 0.011
 
  4516  H(HETATM 4516 1H   HOH G 596)     (0.853) O(HETATM 4515  O   HOH G 596) 0.827
                                                  O(HETATM 4347  O   HOH G 449) 0.017
 
  4517  H(HETATM 4517 2H   HOH G 596)     (0.846) O(HETATM 4515  O   HOH G 596) 0.801
                                                  O(HETATM 4512  O   HOH G 595) 0.039
 
  4518  O(HETATM 4518  O   HOH G 600)     (1.910) H(HETATM 4520 2H   HOH G 600) 0.835
                                                  H(HETATM 4519 1H   HOH G 600) 0.825
                                                  H(HETATM 4496 2H   HOH G 581) 0.049
                                                  O(HETATM 4494  O   HOH G 581) 0.022
 
  4519  H(HETATM 4519 1H   HOH G 600)     (0.858) O(HETATM 4518  O   HOH G 600) 0.825
                                                  O(HETATM 4443  O   HOH G 537) 0.025
 
  4520  H(HETATM 4520 2H   HOH G 600)     (0.841) O(HETATM 4518  O   HOH G 600) 0.835
 
  4521  O(HETATM 4521  O   HOH G 603)     (1.864) H(HETATM 4523 2H   HOH G 603) 0.810
                                                  H(HETATM 4522 1H   HOH G 603) 0.809
                                                  H(HETATM 4355 2H   HOH G 458) 0.049
                                                  O(HETATM 4353  O   HOH G 458) 0.024
                                                  O(HETATM 4398  O   HOH G 497) 0.020
                                                  O(HETATM 4530  O   HOH G 613) 0.017
 
  4522  H(HETATM 4522 1H   HOH G 603)     (0.854) O(HETATM 4521  O   HOH G 603) 0.809
                                                  O(HETATM 4530  O   HOH G 613) 0.040
 
  4523  H(HETATM 4523 2H   HOH G 603)     (0.858) O(HETATM 4521  O   HOH G 603) 0.810
                                                  O(HETATM 4398  O   HOH G 497) 0.042
 
  4524  O(HETATM 4524  O   HOH G 605)     (1.809) H(HETATM 4525 1H   HOH G 605) 0.807
                                                  H(HETATM 4526 2H   HOH G 605) 0.792
                                                  H(HETATM 4298 2H   HOH G 375) 0.041
                                                  O(HETATM 4506  O   HOH G 591) 0.023
                                                  O(HETATM 4296  O   HOH G 375) 0.019
                                                  O(ATOM   3365  O   GLN G 239) 0.015
                                                  H(ATOM   3378 2HE2 GLN G 239) 0.010
 
  4525  H(HETATM 4525 1H   HOH G 605)     (0.855) O(HETATM 4524  O   HOH G 605) 0.807
                                                  O(ATOM   3365  O   GLN G 239) 0.036
 
  4526  H(HETATM 4526 2H   HOH G 605)     (0.850) O(HETATM 4524  O   HOH G 605) 0.792
                                                  O(HETATM 4506  O   HOH G 591) 0.049
 
  4527  O(HETATM 4527  O   HOH G 608)     (1.864) H(HETATM 4529 2H   HOH G 608) 0.856
                                                  H(HETATM 4528 1H   HOH G 608) 0.772
                                                  H(HETATM 4466 2H   HOH G 555) 0.050
                                                  N(ATOM   2394  NZ  LYS G 170) 0.024
                                                  O(HETATM 4464  O   HOH G 555) 0.021
 
  4528  H(HETATM 4528 1H   HOH G 608)     (0.840) O(HETATM 4527  O   HOH G 608) 0.772
                                                  N(ATOM   2394  NZ  LYS G 170) 0.064
 
  4529  H(HETATM 4529 2H   HOH G 608)     (0.861) O(HETATM 4527  O   HOH G 608) 0.856
 
  4530  O(HETATM 4530  O   HOH G 613)     (1.814) H(HETATM 4532 2H   HOH G 613) 0.809
                                                  H(HETATM 4531 1H   HOH G 613) 0.790
                                                  H(HETATM 4522 1H   HOH G 603) 0.040
                                                  H(ATOM   3394 1HE2 GLN G 240) 0.018
                                                  O(HETATM 4521  O   HOH G 603) 0.017
                                                  O(ATOM   3314  OD1 ASN G 236) 0.016
                                                  O(ATOM   3311  O   ASN G 236) 0.014
 
  4531  H(HETATM 4531 1H   HOH G 613)     (0.841) O(HETATM 4530  O   HOH G 613) 0.790
                                                  O(ATOM   3314  OD1 ASN G 236) 0.042
 
  4532  H(HETATM 4532 2H   HOH G 613)     (0.853) O(HETATM 4530  O   HOH G 613) 0.809
                                                  O(ATOM   3311  O   ASN G 236) 0.034
 
  4533  O(HETATM 4533  O   HOH G 614)     (1.867) H(HETATM 4535 2H   HOH G 614) 0.850
                                                  H(HETATM 4534 1H   HOH G 614) 0.809
                                                  H(HETATM 4406 2H   HOH G 505) 0.034
                                                  O(ATOM   2223  O   SER G 159) 0.014
                                                  O(HETATM 4404  O   HOH G 505) 0.014
 
  4534  H(HETATM 4534 1H   HOH G 614)     (0.851) O(HETATM 4533  O   HOH G 614) 0.809
                                                  O(ATOM   2223  O   SER G 159) 0.036
 
  4535  H(HETATM 4535 2H   HOH G 614)     (0.855) O(HETATM 4533  O   HOH G 614) 0.850
 
  4536  O(HETATM 4536  O   HOH G 616)     (1.801) H(HETATM 4538 2H   HOH G 616) 0.825
                                                  H(HETATM 4537 1H   HOH G 616) 0.821
                                                  O(HETATM 3945  O   HOH F 462) 0.013
                                                  O(HETATM 4329  O   HOH G 402) 0.011
 
  4537  H(HETATM 4537 1H   HOH G 616)     (0.854) O(HETATM 4536  O   HOH G 616) 0.821
                                                  O(HETATM 3945  O   HOH F 462) 0.032
 
  4538  H(HETATM 4538 2H   HOH G 616)     (0.856) O(HETATM 4536  O   HOH G 616) 0.825
                                                  O(HETATM 4329  O   HOH G 402) 0.029
 
  4539  O(HETATM 4539  O   HOH G 623)     (1.853) H(HETATM 4540 1H   HOH G 623) 0.865
                                                  H(HETATM 4541 2H   HOH G 623) 0.821
                                                  O(ATOM   2347  OD1 ASN G 167) 0.013
 
  4540  H(HETATM 4540 1H   HOH G 623)     (0.870) O(HETATM 4539  O   HOH G 623) 0.865
 
  4541  H(HETATM 4541 2H   HOH G 623)     (0.861) O(HETATM 4539  O   HOH G 623) 0.821
                                                  O(ATOM   2347  OD1 ASN G 167) 0.033
 
  4542  O(HETATM 4542  O   HOH G 624)     (1.853) H(HETATM 4543 1H   HOH G 624) 0.849
                                                  H(HETATM 4544 2H   HOH G 624) 0.799
                                                  H(ATOM   2466  H   THR G 174) 0.031
                                                  O(HETATM 4485  O   HOH G 578) 0.020
                                                  N(ATOM   2459  N   THR G 174) 0.011
 
  4543  H(HETATM 4543 1H   HOH G 624)     (0.854) O(HETATM 4542  O   HOH G 624) 0.849
 
  4544  H(HETATM 4544 2H   HOH G 624)     (0.850) O(HETATM 4542  O   HOH G 624) 0.799
                                                  O(HETATM 4485  O   HOH G 578) 0.045
 
  4545  O(HETATM 4545  O   HOH G 627)     (1.880) H(HETATM 4547 2H   HOH G 627) 0.846
                                                  H(HETATM 4546 1H   HOH G 627) 0.811
                                                  H(HETATM 4550 2H   HOH G 632) 0.046
                                                  O(HETATM 4548  O   HOH G 632) 0.020
                                                  O(ATOM   2633  O   SER G 186) 0.013
 
  4546  H(HETATM 4546 1H   HOH G 627)     (0.855) O(HETATM 4545  O   HOH G 627) 0.811
                                                  O(ATOM   2633  O   SER G 186) 0.035
 
  4547  H(HETATM 4547 2H   HOH G 627)     (0.850) O(HETATM 4545  O   HOH G 627) 0.846
 
  4548  O(HETATM 4548  O   HOH G 632)     (1.867) H(HETATM 4549 1H   HOH G 632) 0.804
                                                  H(HETATM 4550 2H   HOH G 632) 0.800
                                                  H(HETATM 4426 1H   HOH G 521) 0.074
                                                  O(HETATM 4425  O   HOH G 521) 0.030
                                                  O(HETATM 4545  O   HOH G 627) 0.020
                                                  O(HETATM 4308  O   HOH G 387) 0.015
 
  4549  H(HETATM 4549 1H   HOH G 632)     (0.849) O(HETATM 4548  O   HOH G 632) 0.804
                                                  O(HETATM 4308  O   HOH G 387) 0.040
 
  4550  H(HETATM 4550 2H   HOH G 632)     (0.851) O(HETATM 4548  O   HOH G 632) 0.800
                                                  O(HETATM 4545  O   HOH G 627) 0.046
 
  4551  O(HETATM 4551  O   HOH G 634)     (1.861) H(HETATM 4552 1H   HOH G 634) 0.809
                                                  H(HETATM 4553 2H   HOH G 634) 0.805
                                                  H(HETATM 4511 2H   HOH G 594) 0.060
                                                  O(HETATM 4509  O   HOH G 594) 0.023
                                                  O(HETATM 4260  O   HOH G 344) 0.018
                                                  O(HETATM 3714  O   HOH F 347) 0.012
 
  4552  H(HETATM 4552 1H   HOH G 634)     (0.849) O(HETATM 4551  O   HOH G 634) 0.809
                                                  O(HETATM 3714  O   HOH F 347) 0.031
 
  4553  H(HETATM 4553 2H   HOH G 634)     (0.853) O(HETATM 4551  O   HOH G 634) 0.805
                                                  O(HETATM 4260  O   HOH G 344) 0.040
 
  4554  O(HETATM 4554  O   HOH G 637)     (2.122) H(HETATM 4556 2H   HOH G 637) 0.798
                                                  H(HETATM 4555 1H   HOH G 637) 0.797
                                                  H(HETATM 3543  H1  SO4 G 299) 0.289
                                                  O(HETATM 3539  O1  SO4 G 299) 0.060
                                                  O(HETATM 4107  O   HOH F 574) 0.020
                                                  O(ATOM   2095  O   THR G 151) 0.014
 
  4555  H(HETATM 4555 1H   HOH G 637)     (0.847) O(HETATM 4554  O   HOH G 637) 0.797
                                                  O(ATOM   2095  O   THR G 151) 0.039
 
  4556  H(HETATM 4556 2H   HOH G 637)     (0.856) O(HETATM 4554  O   HOH G 637) 0.798
                                                  O(HETATM 4107  O   HOH F 574) 0.049
 
  4557  O(HETATM 4557  O   HOH G 638)     (1.831) H(HETATM 4558 1H   HOH G 638) 0.855
                                                  H(HETATM 4559 2H   HOH G 638) 0.820
                                                  O(ATOM   3432  O   ALA G 243) 0.013
 
  4558  H(HETATM 4558 1H   HOH G 638)     (0.866) O(HETATM 4557  O   HOH G 638) 0.855
 
  4559  H(HETATM 4559 2H   HOH G 638)     (0.858) O(HETATM 4557  O   HOH G 638) 0.820
                                                  O(ATOM   3432  O   ALA G 243) 0.033
 
  4560  O(HETATM 4560  O   HOH G 643)     (1.908) H(HETATM 4561 1H   HOH G 643) 0.858
                                                  H(HETATM 4562 2H   HOH G 643) 0.841
                                                  H(ATOM   2876  H   GLY G 205) 0.024
 
  4561  H(HETATM 4561 1H   HOH G 643)     (0.869) O(HETATM 4560  O   HOH G 643) 0.858
 
  4562  H(HETATM 4562 2H   HOH G 643)     (0.844) O(HETATM 4560  O   HOH G 643) 0.841
 
  4563  O(HETATM 4563  O   HOH C 453)     (1.856) H(HETATM 4565 2H   HOH C 453) 0.814
                                                  H(HETATM 4564 1H   HOH C 453) 0.805
                                                  H(HETATM 4575 2H   HOH C 502) 0.031
                                                  O(ATOM   3049  O   SER G 217) 0.012
                                                  O(HETATM 4573  O   HOH C 502) 0.011
                                                  O(ATOM   3468  O   GLY C 250) 0.010
 
  4564  H(HETATM 4564 1H   HOH C 453)     (0.851) O(HETATM 4563  O   HOH C 453) 0.805
                                                  O(ATOM   3049  O   SER G 217) 0.032
 
  4565  H(HETATM 4565 2H   HOH C 453)     (0.849) O(HETATM 4563  O   HOH C 453) 0.814
                                                  O(ATOM   3468  O   GLY C 250) 0.024
 
  4566  O(HETATM 4566  O   HOH C 486)     (1.875) H(HETATM 4567 1H   HOH C 486) 0.859
                                                  H(HETATM 4568 2H   HOH C 486) 0.817
                                                  O(HETATM 4576  O   HOH C 526) 0.013
 
  4567  H(HETATM 4567 1H   HOH C 486)     (0.871) O(HETATM 4566  O   HOH C 486) 0.859
 
  4568  H(HETATM 4568 2H   HOH C 486)     (0.854) O(HETATM 4566  O   HOH C 486) 0.817
                                                  O(HETATM 4576  O   HOH C 526) 0.033
 
  4569  O(HETATM 4573  O   HOH C 502)     (1.825) H(HETATM 4575 2H   HOH C 502) 0.817
                                                  H(HETATM 4574 1H   HOH C 502) 0.817
                                                  H(HETATM 4118 2H   HOH F 585) 0.030
                                                  O(HETATM 4116  O   HOH F 585) 0.011
                                                  O(HETATM 4563  O   HOH C 453) 0.011
 
  4570  H(HETATM 4574 1H   HOH C 502)     (0.852) O(HETATM 4573  O   HOH C 502) 0.817
                                                  O(ATOM   3476  O   ALA C 251) 0.027
 
  4571  H(HETATM 4575 2H   HOH C 502)     (0.854) O(HETATM 4573  O   HOH C 502) 0.817
                                                  O(HETATM 4563  O   HOH C 453) 0.031
 
  4572  O(HETATM 4576  O   HOH C 526)     (1.912) H(HETATM 4578 2H   HOH C 526) 0.864
                                                  H(HETATM 4577 1H   HOH C 526) 0.810
                                                  H(HETATM 4568 2H   HOH C 486) 0.033
                                                  O(HETATM 4566  O   HOH C 486) 0.013
                                                  O(HETATM 3912  O   HOH F 444) 0.013
 
  4573  H(HETATM 4577 1H   HOH C 526)     (0.849) O(HETATM 4576  O   HOH C 526) 0.810
                                                  O(HETATM 3912  O   HOH F 444) 0.031
 
  4574  H(HETATM 4578 2H   HOH C 526)     (0.875) O(HETATM 4576  O   HOH C 526) 0.864
 
  4575  O(HETATM 4579  O   HOH C 530)     (1.919) H(HETATM 4581 2H   HOH C 530) 0.850
                                                  H(HETATM 4580 1H   HOH C 530) 0.815
                                                  H(HETATM 4587 2H   HOH C 622) 0.045
                                                  O(HETATM 4585  O   HOH C 622) 0.018
                                                  O(ATOM   3042  O   GLY G 216) 0.011
 
  4576  H(HETATM 4580 1H   HOH C 530)     (0.854) O(HETATM 4579  O   HOH C 530) 0.815
                                                  O(ATOM   3042  O   GLY G 216) 0.032
 
  4577  H(HETATM 4581 2H   HOH C 530)     (0.868) O(HETATM 4579  O   HOH C 530) 0.850
 
  4578  O(HETATM 4582  O   HOH C 617)     (1.839) H(HETATM 4584 2H   HOH C 617) 0.827
                                                  H(HETATM 4583 1H   HOH C 617) 0.824
                                                  O(HETATM 4585  O   HOH C 622) 0.014
                                                  N(ATOM   3465  N   GLY C 250) 0.011
 
  4579  H(HETATM 4583 1H   HOH C 617)     (0.854) O(HETATM 4582  O   HOH C 617) 0.824
                                                  N(ATOM   3465  N   GLY C 250) 0.027
 
  4580  H(HETATM 4584 2H   HOH C 617)     (0.862) O(HETATM 4582  O   HOH C 617) 0.827
                                                  O(HETATM 4585  O   HOH C 622) 0.032
 
  4581  O(HETATM 4585  O   HOH C 622)     (1.911) H(HETATM 4586 1H   HOH C 622) 0.841
                                                  H(HETATM 4587 2H   HOH C 622) 0.796
                                                  H(HETATM 4451 2H   HOH G 545) 0.043
                                                  H(HETATM 4584 2H   HOH C 617) 0.032
                                                  O(HETATM 4579  O   HOH C 530) 0.018
                                                  O(HETATM 4449  O   HOH G 545) 0.017
                                                  O(HETATM 4582  O   HOH C 617) 0.014
 
  4582  H(HETATM 4586 1H   HOH C 622)     (0.850) O(HETATM 4585  O   HOH C 622) 0.841
 
  4583  H(HETATM 4587 2H   HOH C 622)     (0.846) O(HETATM 4585  O   HOH C 622) 0.796
                                                  O(HETATM 4579  O   HOH C 530) 0.045
 
  4584  O(HETATM 4588  O   HOH C 647)     (1.843) H(HETATM 4590 2H   HOH C 647) 0.859
                                                  H(HETATM 4589 1H   HOH C 647) 0.831
                                                  C(ATOM   3509  C   THR C 253) 0.011
                                                  O(ATOM   3476  O   ALA C 251) 0.010
 
  4585  H(HETATM 4589 1H   HOH C 647)     (0.864) O(HETATM 4588  O   HOH C 647) 0.831
                                                  O(ATOM   3476  O   ALA C 251) 0.025
 
  4586  H(HETATM 4590 2H   HOH C 647)     (0.874) O(HETATM 4588  O   HOH C 647) 0.859
 

 **********************
 *                    *
 * JOB ENDED NORMALLY *
 *                    *
 **********************



 TOTAL JOB TIME:          1608.89 SECONDS

 == MOPAC DONE ==
