 *******************************************************************************
 ** Site#: 29054        For non-commercial use only    Version 18.021W 64BITS **
 *******************************************************************************
 ** Cite this program as: MOPAC2016, Version: 18.021W, James J. P. Stewart,   **
 ** Stewart Computational Chemistry, web: HTTP://OpenMOPAC.net. Days left: 364**
 *******************************************************************************
 **                                                                           **
 **                                MOPAC2016                                  **
 **                                                                           **
 *******************************************************************************

                              PM7 CALCULATION RESULTS


 *******************************************************************************
 *  CALCULATION DONE:                                Mon Jan 22 10:10:00 2018  *
 *  SYMMETRY   - SYMMETRY CONDITIONS TO BE IMPOSED
 *  T=         - A TIME OF 172800.0 SECONDS REQUESTED
 *  DUMP=N     - RESTART FILE WRITTEN EVERY  7200.000 SECONDS
 *******************************************************************************



                    PARAMETER DEPENDENCE DATA

        REFERENCE ATOM      FUNCTION NO.    DEPENDENT ATOM(S)
            2                  1               5

             DESCRIPTIONS OF THE FUNCTIONS USED
   1      BOND LENGTH    IS SET EQUAL TO THE REFERENCE BOND LENGTH   
 
  symmetry
 Using SYMMETRY to optimize the transition state in an almost narcissistic reaction

  ATOM    CHEMICAL      BOND LENGTH      BOND ANGLE     TWIST ANGLE 
 NUMBER    SYMBOL       (ANGSTROMS)      (DEGREES)       (DEGREES) 
   (I)                     NA:I           NB:NA:I       NC:NB:NA:I       NA    NB    NC 
     1       C          0.00000000       0.0000000       0.0000000        0     0     0
     2       C          1.90291749  *    0.0000000       0.0000000        1     0     0
     3       C          1.40297703  *  101.3888344  *    0.0000000  *     1     2     0
     4       C          1.40302699  *  120.2864665  *   69.6330549  *     3     1     2
     5       C          1.90291749     101.4122403  *  -69.2500434  *     4     3     1
     6       C          1.08641790  *  119.1868362  * -179.5161647  *     4     3     1
     7       H          1.08636952  *  119.2200583  *  -97.5068590  *     3     1     2
     8       H          1.08792235  *  119.6861951  *   36.8385283  *     4     3     1
     9       H          1.09000000  *  109.4712205  *   59.9999997  *     6     4     3
    10       H          1.09000000  *  109.4712208  *  -60.0000003  *     6     4     3
    11       H          1.09000000  *  109.4712210  *  180.0000000  *     6     4     3
    12       H          1.08822571  *   98.0833545  *  122.4815094  *     1     2     3
    13       H          1.08618700  *  101.4502654  * -123.3942679  *     1     2     3
    14       C          1.40303119  *  101.1783119  *  -55.9144126  *     2     1     3
    15       H          1.08634478  *  119.2194046  *  -97.5874747  *    14     2     1
    16       H          1.08820539  *   97.9745026  *  -67.2269596  *     5     4     3
    17       H          1.08626673  *  101.5161067  *  178.6289492  *     5     4     3
    18       H          1.08618484  *  101.5012500  * -179.2065122  *     2     1     3
    19       H          1.08799876  *   98.1490859  *   66.6054589  *     2     1     3
 


          CARTESIAN COORDINATES 

    NO.       ATOM           X           Y           Z

     1         C          0.0000      0.0000      0.0000
     2         C          1.9029      0.0000      0.0000
     3         C         -0.2770      1.3754      0.0000
     4         C         -0.0034      2.1523     -1.1358
     5         C          1.8995      2.1471     -1.1460
     6         C         -0.2176      3.2171     -1.1135
     7         H         -0.5032      1.8708      0.9400
     8         H         -0.1600      1.7316     -2.1268
     9         H          0.3598      3.6873     -0.3175
    10         H         -1.2811      3.3700     -0.9298
    11         H          0.0535      3.6624     -2.0707
    12         H         -0.1530     -0.5786     -0.9089
    13         H         -0.2156     -0.5859      0.8888
    14         C          2.1749      0.7714     -1.1399
    15         H          2.4005      0.2710     -2.0774
    16         H          2.0569      2.7304     -0.2409
    17         H          2.1131      2.7273     -2.0392
    18         H          2.1195     -1.0643     -0.0147
    19         H          2.0571      0.4276      0.9885

 General Reference for PM7:
 "Optimization of Parameters for Semiempirical Methods VI: More Modifications to the 
 NDDO Approximations and Re-optimization of Parameters", J. J. P. Stewart, J. Mol. Mod., 1:32, 19 (2013)
 http://www.springerlink.com/openurl.asp?genre=article&id=doi:10.1007/s00894-012-1667-x

           Empirical Formula: C7 H12  =    19 atoms



      MOLECULAR POINT GROUP   :   C1  


      RHF CALCULATION, NO. OF DOUBLY OCCUPIED LEVELS = 20


          Geometry optimization using EF

          DIAGONAL MATRIX USED AS START HESSIAN

 CYCLE:     1 TIME:   0.000 TIME LEFT:  2.00D  GRAD.:  1251.596 HEAT:  232.6553
 CYCLE:     2 TIME:   0.016 TIME LEFT:  2.00D  GRAD.:   400.436 HEAT:  80.60725
 CYCLE:     3 TIME:   0.016 TIME LEFT:  2.00D  GRAD.:   521.529 HEAT:  71.38691
 CYCLE:     4 TIME:   0.000 TIME LEFT:  2.00D  GRAD.:   151.167 HEAT:  50.99500
 CYCLE:     5 TIME:   0.000 TIME LEFT:  2.00D  GRAD.:   185.558 HEAT:  45.42815
 CYCLE:     6 TIME:   0.016 TIME LEFT:  2.00D  GRAD.:    43.087 HEAT:  44.29150
 CYCLE:     7 TIME:   0.016 TIME LEFT:  2.00D  GRAD.:   119.685 HEAT:  44.28369
 CYCLE:     8 TIME:   0.000 TIME LEFT:  2.00D  GRAD.:    27.562 HEAT:  43.89547
 CYCLE:     9 TIME:   0.000 TIME LEFT:  2.00D  GRAD.:     9.808 HEAT:  43.85625
 CYCLE:    10 TIME:   0.000 TIME LEFT:  2.00D  GRAD.:     4.292 HEAT:  43.82595
 CYCLE:    11 TIME:   0.016 TIME LEFT:  2.00D  GRAD.:     2.428 HEAT:  43.81561
 CYCLE:    12 TIME:   0.000 TIME LEFT:  2.00D  GRAD.:     3.149 HEAT:  43.80106
 CYCLE:    13 TIME:   0.000 TIME LEFT:  2.00D  GRAD.:     2.373 HEAT:  43.79040
 CYCLE:    14 TIME:   0.000 TIME LEFT:  2.00D  GRAD.:     2.073 HEAT:  43.77687
 CYCLE:    15 TIME:   0.016 TIME LEFT:  2.00D  GRAD.:     1.982 HEAT:  43.76801
 CYCLE:    16 TIME:   0.000 TIME LEFT:  2.00D  GRAD.:     2.578 HEAT:  43.74861
 CYCLE:    17 TIME:   0.000 TIME LEFT:  2.00D  GRAD.:     1.859 HEAT:  43.73858
 CYCLE:    18 TIME:   0.000 TIME LEFT:  2.00D  GRAD.:     1.374 HEAT:  43.72958
 CYCLE:    19 TIME:   0.016 TIME LEFT:  2.00D  GRAD.:     2.039 HEAT:  43.71756
 CYCLE:    20 TIME:   0.000 TIME LEFT:  2.00D  GRAD.:     2.337 HEAT:  43.70823
 CYCLE:    21 TIME:   0.000 TIME LEFT:  2.00D  GRAD.:     1.415 HEAT:  43.69562
 CYCLE:    22 TIME:   0.000 TIME LEFT:  2.00D  GRAD.:     1.438 HEAT:  43.68362
 CYCLE:    23 TIME:   0.016 TIME LEFT:  2.00D  GRAD.:     1.783 HEAT:  43.67705
 CYCLE:    24 TIME:   0.000 TIME LEFT:  2.00D  GRAD.:     1.026 HEAT:  43.67379
 CYCLE:    25 TIME:   0.000 TIME LEFT:  2.00D  GRAD.:     1.022 HEAT:  43.67229
 CYCLE:    26 TIME:   0.000 TIME LEFT:  2.00D  GRAD.:     0.407 HEAT:  43.67043

     GRADIENT =  0.40731  IS LESS THAN CUTOFF =  1.00000



 -------------------------------------------------------------------------------
 symmetry
 Using SYMMETRY to optimize the transition state in an almost narcissistic reaction



     GEOMETRY OPTIMISED USING EIGENVECTOR FOLLOWING (EF).     
     SCF FIELD WAS ACHIEVED                                   


                              PM7 CALCULATION
                                                       MOPAC2016 (Version: 18.021W)
                                                       Mon Jan 22 10:10:00 2018
                                                       No. of days remaining = 364




          FINAL HEAT OF FORMATION =         43.67043 KCAL/MOL =     182.71708 KJ/MOL


          TOTAL ENERGY            =      -1019.69963 EV
          ELECTRONIC ENERGY       =      -5031.81766 EV  POINT GROUP:     C1  
          CORE-CORE REPULSION     =       4012.11803 EV
          COSMO AREA              =        149.88 SQUARE ANGSTROMS
          COSMO VOLUME            =        148.72 CUBIC ANGSTROMS

          GRADIENT NORM           =          0.40731
          IONIZATION POTENTIAL    =          8.288712 EV
          HOMO LUMO ENERGIES (EV) =         -8.289  0.360
          NO. OF FILLED LEVELS    =         20
          MOLECULAR WEIGHT        =         96.1718

          MOLECULAR DIMENSIONS (Angstroms)

            Atom       Atom       Distance
            H    18    H    10     6.12548
            H    17    H    13     4.65731
            H    12    H    16     2.86622


          SCF CALCULATIONS        =         32
 
          WALL-CLOCK TIME         =          0.156 SECONDS
          COMPUTATION TIME        =          0.562 SECONDS




  ATOM    CHEMICAL      BOND LENGTH      BOND ANGLE     TWIST ANGLE 
 NUMBER    SYMBOL       (ANGSTROMS)      (DEGREES)       (DEGREES) 
   (I)                     NA:I           NB:NA:I       NC:NB:NA:I       NA    NB    NC 
     1       C          0.00000000       0.0000000       0.0000000        0     0     0
     2       C          1.92868756  *    0.0000000       0.0000000        1     0     0
     3       C          1.40074885  *  101.6119406  *    0.0000000  *     1     2     0
     4       C          1.40507567  *  120.5342817  *   70.2532488  *     3     1     2
     5       C          1.92868756     100.3847351  *  -69.5930892  *     4     3     1
     6       C          1.50612803  *  118.5777890  *  177.8879354  *     4     3     1
     7       H          1.08632089  *  119.2409096  *  -97.9091994  *     3     1     2
     8       H          1.09689972  *  118.5309233  *   33.4132429  *     4     3     1
     9       H          1.09705659  *  112.3192298  *   46.5987951  *     6     4     3
    10       H          1.09967148  *  110.5112962  *  -72.8845503  *     6     4     3
    11       H          1.09655061  *  112.0817813  *  167.6211727  *     6     4     3
    12       H          1.08687242  *   97.4690273  *  122.6709757  *     1     2     3
    13       H          1.08537210  *  100.6989012  * -123.2719702  *     1     2     3
    14       C          1.40082042  *  100.4965218  *  -55.6972069  *     2     1     3
    15       H          1.08684684  *  119.2153269  *  -97.8078163  *    14     2     1
    16       H          1.08700534  *   97.5031977  *  -66.9510292  *     5     4     3
    17       H          1.08501751  *  100.7725645  *  179.0457915  *     5     4     3
    18       H          1.08475665  *  101.3294667  * -179.0489803  *     2     1     3
    19       H          1.08685974  *   97.4636608  *   66.6781888  *     2     1     3

                             CARTESIAN COORDINATES

   1    C        0.000000000     0.000000000     0.000000000
   2    C        1.928687557     0.000000000     0.000000000
   3    C       -0.281945618     1.372080175     0.000000000
   4    C       -0.025108844     2.153626511    -1.139060060
   5    C        1.903570445     2.148605133    -1.136476115
   6    C       -0.389738376     3.614610719    -1.107562338
   7    H       -0.516519940     1.865614662     0.938877883
   8    H       -0.143877433     1.693621504    -2.127735140
   9    H       -0.057652566     4.107106281    -0.185228186
  10    H       -1.480580577     3.740841063    -1.165927984
  11    H        0.045881897     4.166437837    -1.949075880
  12    H       -0.141282787    -0.581730848    -0.907149404
  13    H       -0.201496911    -0.585099088     0.891678552
  14    C        2.183883186     0.776244440    -1.137812642
  15    H        2.407234560     0.280634572    -2.078940196
  16    H        2.045801452     2.726981277    -0.227173098
  17    H        2.109094116     2.736625661    -2.024876298
  18    H        2.141788476    -1.063472300    -0.017653587
  19    H        2.069867761     0.426636861     0.989602567


           Empirical Formula: C7 H12  =    19 atoms



      MOLECULAR POINT GROUP   :   C1  


                  EIGENVALUES  
 -29.75669 -26.78108 -25.55943 -23.22028 -20.85025 -19.12009 -19.05694 -16.19227
 -15.48725 -15.05256 -14.56158 -14.09920 -12.91024 -12.79774 -12.62525 -12.24750
 -12.09294 -11.56459  -9.65369  -8.28871   0.36028   1.42712   2.97450   4.39054
   5.15988   5.25415   5.43547   5.60262   5.69951   5.76443   6.17956   6.21595
   6.23009   6.26729   6.43545   6.53017   6.68874   6.72471   6.73852   6.92181


              NET ATOMIC CHARGES AND DIPOLE CONTRIBUTIONS

  ATOM NO.   TYPE          CHARGE      No. of ELECS.   s-Pop       p-Pop       
    1          C          -0.243974        4.2440     1.09351     3.15046
    2          C          -0.255522        4.2555     1.09401     3.16151
    3          C          -0.232236        4.2322     1.07946     3.15278
    4          C          -0.058324        4.0583     1.09012     2.96821
    5          C          -0.267051        4.2671     1.09523     3.17183
    6          C          -0.458805        4.4588     1.05209     3.40671
    7          H           0.144116        0.8559     0.85588
    8          H           0.139806        0.8602     0.86019
    9          H           0.150840        0.8492     0.84916
   10          H           0.154108        0.8459     0.84589
   11          H           0.147901        0.8521     0.85210
   12          H           0.140207        0.8598     0.85979
   13          H           0.135660        0.8643     0.86434
   14          C          -0.192468        4.1925     1.07839     3.11407
   15          H           0.139142        0.8609     0.86086
   16          H           0.143608        0.8564     0.85639
   17          H           0.135622        0.8644     0.86438
   18          H           0.134940        0.8651     0.86506
   19          H           0.142430        0.8576     0.85757
 DIPOLE           X         Y         Z       TOTAL
 POINT-CHG.    -0.235     0.241    -0.121     0.358
 HYBRID         0.030     0.087     0.052     0.106
 SUM           -0.205     0.328    -0.069     0.393


          ATOMIC ORBITAL ELECTRON POPULATIONS

     Atom    s        px        py        pz   
    1  C   1.09351   0.97130   1.03869   1.14047
    2  C   1.09401   0.98025   1.10402   1.07724
    3  C   1.07946   1.07366   1.00768   1.07143
    4  C   1.09012   0.93053   0.97680   1.06088
    5  C   1.09523   0.98830   1.03935   1.14417
    6  C   1.05209   1.16958   1.05695   1.18018
    7  H   0.85588
    8  H   0.86019
    9  H   0.84916
   10  H   0.84589
   11  H   0.85210
   12  H   0.85979
   13  H   0.86434
   14  C   1.07839   1.04548   1.00804   1.06056
   15  H   0.86086
   16  H   0.85639
   17  H   0.86438
   18  H   0.86506
   19  H   0.85757
 *******************************************************************************
 ** Site#: 29054        For non-commercial use only    Version 18.021W 64BITS **
 *******************************************************************************
 ** Cite this program as: MOPAC2016, Version: 18.021W, James J. P. Stewart,   **
 ** Stewart Computational Chemistry, web: HTTP://OpenMOPAC.net. Days left: 364**
 *******************************************************************************
 **                                                                           **
 **                                MOPAC2016                                  **
 **                                                                           **
 *******************************************************************************

                              PM7 CALCULATION RESULTS


 *******************************************************************************
 *  CALCULATION DONE:                                Mon Jan 22 10:10:00 2018  *
 *  OPT        - OPTIMIZE COORDINATES OF ALL ATOMS
 *  OLDGEO     - PREVIOUS GEOMETRY TO BE USED
 *  TS         - USE EF ROUTINE FOR TS SEARCH
 *  T=         - A TIME OF 172800.0 SECONDS REQUESTED
 *  DUMP=N     - RESTART FILE WRITTEN EVERY  7200.000 SECONDS
 *******************************************************************************
 oldgeo opt ts
 Optimize transition state to convert from the symmetry-defined geometry to the transition-state geometry

  ATOM    CHEMICAL      BOND LENGTH      BOND ANGLE     TWIST ANGLE 
 NUMBER    SYMBOL       (ANGSTROMS)      (DEGREES)       (DEGREES) 
   (I)                     NA:I           NB:NA:I       NC:NB:NA:I       NA    NB    NC 
     1       C          0.00000000  *    0.0000000  *    0.0000000  *     0     0     0
     2       C          1.92868756  *    0.0000000  *    0.0000000  *     1     0     0
     3       C          1.40074885  *  101.6119406  *    0.0000000  *     1     2     0
     4       C          1.40507567  *  120.5342817  *   70.2532488  *     3     1     2
     5       C          1.92868756  *  100.3847351  *  -69.5930892  *     4     3     1
     6       C          1.50612803  *  118.5777890  *  177.8879354  *     4     3     1
     7       H          1.08632089  *  119.2409096  *  -97.9091994  *     3     1     2
     8       H          1.09689972  *  118.5309233  *   33.4132429  *     4     3     1
     9       H          1.09705659  *  112.3192298  *   46.5987951  *     6     4     3
    10       H          1.09967148  *  110.5112962  *  -72.8845503  *     6     4     3
    11       H          1.09655061  *  112.0817813  *  167.6211727  *     6     4     3
    12       H          1.08687242  *   97.4690273  *  122.6709757  *     1     2     3
    13       H          1.08537210  *  100.6989012  * -123.2719702  *     1     2     3
    14       C          1.40082042  *  100.4965218  *  -55.6972069  *     2     1     3
    15       H          1.08684684  *  119.2153269  *  -97.8078163  *    14     2     1
    16       H          1.08700534  *   97.5031977  *  -66.9510292  *     5     4     3
    17       H          1.08501751  *  100.7725645  *  179.0457915  *     5     4     3
    18       H          1.08475665  *  101.3294667  * -179.0489803  *     2     1     3
    19       H          1.08685974  *   97.4636608  *   66.6781888  *     2     1     3
 


          CARTESIAN COORDINATES 

    NO.       ATOM           X           Y           Z

     1         C          0.0000      0.0000      0.0000
     2         C          1.9287      0.0000      0.0000
     3         C         -0.2819      1.3721      0.0000
     4         C         -0.0251      2.1536     -1.1391
     5         C          1.9036      2.1486     -1.1365
     6         C         -0.3897      3.6146     -1.1076
     7         H         -0.5165      1.8656      0.9389
     8         H         -0.1439      1.6936     -2.1277
     9         H         -0.0577      4.1071     -0.1852
    10         H         -1.4806      3.7408     -1.1659
    11         H          0.0459      4.1664     -1.9491
    12         H         -0.1413     -0.5817     -0.9071
    13         H         -0.2015     -0.5851      0.8917
    14         C          2.1839      0.7762     -1.1378
    15         H          2.4072      0.2806     -2.0789
    16         H          2.0458      2.7270     -0.2272
    17         H          2.1091      2.7366     -2.0249
    18         H          2.1418     -1.0635     -0.0177
    19         H          2.0699      0.4266      0.9896

 General Reference for PM7:
 "Optimization of Parameters for Semiempirical Methods VI: More Modifications to the 
 NDDO Approximations and Re-optimization of Parameters", J. J. P. Stewart, J. Mol. Mod., 1:32, 19 (2013)
 http://www.springerlink.com/openurl.asp?genre=article&id=doi:10.1007/s00894-012-1667-x

           Empirical Formula: C7 H12  =    19 atoms



      MOLECULAR POINT GROUP   :   C1  


      RHF CALCULATION, NO. OF DOUBLY OCCUPIED LEVELS = 20


          Transition state refinement using EF

          HESSIAN CALCULATED NUMERICALLY

 CYCLE:     1 TIME:   0.203 TIME LEFT:  2.00D  GRAD.:     3.476 HEAT:  43.67043
 CYCLE:     2 TIME:   0.000 TIME LEFT:  2.00D  GRAD.:     0.305 HEAT:  43.68014

     GRADIENT =  0.30516  IS LESS THAN CUTOFF =  1.00000



 -------------------------------------------------------------------------------
 opt ts
 Optimize transition state to convert from the symmetry-defined geometry to the transition-state geometry



     GEOMETRY OPTIMISED USING EIGENVECTOR FOLLOWING (TS).     
     SCF FIELD WAS ACHIEVED                                   


                              PM7 CALCULATION
                                                       MOPAC2016 (Version: 18.021W)
                                                       Mon Jan 22 10:10:00 2018
                                                       No. of days remaining = 364




          FINAL HEAT OF FORMATION =         43.68014 KCAL/MOL =     182.75771 KJ/MOL


          TOTAL ENERGY            =      -1019.69920 EV
          ELECTRONIC ENERGY       =      -5031.89428 EV  POINT GROUP:     C1  
          CORE-CORE REPULSION     =       4012.19507 EV
          COSMO AREA              =        149.75 SQUARE ANGSTROMS
          COSMO VOLUME            =        148.57 CUBIC ANGSTROMS

          GRADIENT NORM           =          0.30516
          IONIZATION POTENTIAL    =          8.294123 EV
          HOMO LUMO ENERGIES (EV) =         -8.294  0.363
          NO. OF FILLED LEVELS    =         20
          MOLECULAR WEIGHT        =         96.1718

          MOLECULAR DIMENSIONS (Angstroms)

            Atom       Atom       Distance
            H    18    H    10     6.12581
            H    13    H    17     4.65650
            H    16    H    12     2.86536


          SCF CALCULATIONS        =         60
 
          WALL-CLOCK TIME         =          0.391 SECONDS
          COMPUTATION TIME        =          1.498 SECONDS




  ATOM    CHEMICAL      BOND LENGTH      BOND ANGLE     TWIST ANGLE 
 NUMBER    SYMBOL       (ANGSTROMS)      (DEGREES)       (DEGREES) 
   (I)                     NA:I           NB:NA:I       NC:NB:NA:I       NA    NB    NC 
     1       C          0.00049282  *    0.0086873  *   -0.0048752  *     0     0     0
     2       C          1.93406864  *    0.1394318  *    0.0671379  *     1     0     0
     3       C          1.39854241  *  101.4352246  *    1.1645610  *     1     2     0
     4       C          1.40739279  *  120.4903924  *   70.4325809  *     3     1     2
     5       C          1.92491407  *  100.4785954  *  -69.5964939  *     4     3     1
     6       C          1.50610328  *  118.4016231  *  177.7272280  *     4     3     1
     7       H          1.08615389  *  119.2955366  *  -97.7059132  *     3     1     2
     8       H          1.09698714  *  118.3823687  *   33.7441657  *     4     3     1
     9       H          1.09724495  *  112.3066669  *   46.2468462  *     6     4     3
    10       H          1.09971781  *  110.5281095  *  -73.2550904  *     6     4     3
    11       H          1.09671086  *  112.0876416  *  167.2354671  *     6     4     3
    12       H          1.08684209  *   97.1484488  *  122.6827383  *     1     2     3
    13       H          1.08526904  *  100.5702515  * -123.3268275  *     1     2     3
    14       C          1.39861683  *  100.3131860  *  -56.1201391  *     2     1     3
    15       H          1.08678993  *  119.3403800  *  -97.6019595  *    14     2     1
    16       H          1.08701573  *   97.7333318  *  -67.1958123  *     5     4     3
    17       H          1.08510435  *  100.8664626  *  178.7370276  *     5     4     3
    18       H          1.08469117  *  101.1462238  * -179.5365093  *     2     1     3
    19       H          1.08676245  *   97.2098422  *   66.2502918  *     2     1     3

                             CARTESIAN COORDINATES

   1    C        0.000492819     0.008687280    -0.004875239
   2    C        1.934561459     0.008687280    -0.004875239
   3    C       -0.276782142     1.379467886    -0.004875239
   4    C       -0.020246877     2.159923491    -1.147605811
   5    C        1.904635330     2.150352761    -1.153180461
   6    C       -0.384838298     3.620844166    -1.113976047
   7    H       -0.506644564     1.875206914     0.933813393
   8    H       -0.149544923     1.698158755    -2.134234484
   9    H       -0.056170474     4.110927851    -0.188912847
  10    H       -1.475419088     3.747679396    -1.176630856
  11    H        0.054638403     4.174960579    -1.952182428
  12    H       -0.134754397    -0.573631291    -0.912531016
  13    H       -0.198589993    -0.577456704     0.886533843
  14    C        2.184953929     0.775754538    -1.147258918
  15    H        2.403595404     0.275696886    -2.087073052
  16    H        2.056427995     2.733146708    -0.248242118
  17    H        2.109507848     2.731754252    -2.046181585
  18    H        2.144246980    -1.055508567    -0.013484175
  19    H        2.070954119     0.442911487     0.981987975


           Empirical Formula: C7 H12  =    19 atoms



      MOLECULAR POINT GROUP   :   C1  


                  EIGENVALUES  
 -29.75684 -26.78113 -25.56056 -23.21654 -20.84183 -19.12472 -19.05998 -16.19320
 -15.48783 -15.05345 -14.56100 -14.10211 -12.90512 -12.79303 -12.62447 -12.25815
 -12.08375 -11.56865  -9.65027  -8.29412   0.36267   1.42136   2.97221   4.39405
   5.15113   5.25127   5.43616   5.60881   5.70101   5.76548   6.17987   6.21576
   6.23169   6.26397   6.43403   6.52917   6.68876   6.72356   6.73878   6.92238


              NET ATOMIC CHARGES AND DIPOLE CONTRIBUTIONS

  ATOM NO.   TYPE          CHARGE      No. of ELECS.   s-Pop       p-Pop       
    1          C          -0.244669        4.2447     1.09386     3.15080
    2          C          -0.255781        4.2558     1.09433     3.16145
    3          C          -0.231216        4.2312     1.07964     3.15158
    4          C          -0.058389        4.0584     1.09000     2.96839
    5          C          -0.267229        4.2672     1.09505     3.17217
    6          C          -0.458830        4.4588     1.05214     3.40669
    7          H           0.144087        0.8559     0.85591
    8          H           0.139646        0.8604     0.86035
    9          H           0.150779        0.8492     0.84922
   10          H           0.153962        0.8460     0.84604
   11          H           0.147912        0.8521     0.85209
   12          H           0.140384        0.8596     0.85962
   13          H           0.135831        0.8642     0.86417
   14          C          -0.192288        4.1923     1.07841     3.11388
   15          H           0.139176        0.8608     0.86082
   16          H           0.143472        0.8565     0.85653
   17          H           0.135514        0.8645     0.86449
   18          H           0.135103        0.8649     0.86490
   19          H           0.142537        0.8575     0.85746
 DIPOLE           X         Y         Z       TOTAL
 POINT-CHG.    -0.237     0.237    -0.117     0.355
 HYBRID         0.030     0.086     0.052     0.105
 SUM           -0.207     0.323    -0.065     0.389


          ATOMIC ORBITAL ELECTRON POPULATIONS

     Atom    s        px        py        pz   
    1  C   1.09386   0.97144   1.03890   1.14046
    2  C   1.09433   0.98014   1.10471   1.07660
    3  C   1.07964   1.07275   1.00789   1.07094
    4  C   1.09000   0.93109   0.97691   1.06038
    5  C   1.09505   0.98885   1.03914   1.14418
    6  C   1.05214   1.16951   1.05696   1.18022
    7  H   0.85591
    8  H   0.86035
    9  H   0.84922
   10  H   0.84604
   11  H   0.85209
   12  H   0.85962
   13  H   0.86417
   14  C   1.07841   1.04545   1.00843   1.06000
   15  H   0.86082
   16  H   0.85653
   17  H   0.86449
   18  H   0.86490
   19  H   0.85746
 *******************************************************************************
 ** Site#: 29054        For non-commercial use only    Version 18.021W 64BITS **
 *******************************************************************************
 ** Cite this program as: MOPAC2016, Version: 18.021W, James J. P. Stewart,   **
 ** Stewart Computational Chemistry, web: HTTP://OpenMOPAC.net. Days left: 364**
 *******************************************************************************
 **                                                                           **
 **                                MOPAC2016                                  **
 **                                                                           **
 *******************************************************************************

                              PM7 CALCULATION RESULTS


 *******************************************************************************
 *  CALCULATION DONE:                                Mon Jan 22 10:10:00 2018  *
 *  OLDGEO     - PREVIOUS GEOMETRY TO BE USED
 *  FORCE      - FORCE CALCULATION SPECIFIED
 *  T=         - A TIME OF 172800.0 SECONDS REQUESTED
 *  DUMP=N     - RESTART FILE WRITTEN EVERY  7200.000 SECONDS
 *  ISOTOPE    - FORCE MATRIX WRITTEN TO DISK (CHAN. 9 )
 *******************************************************************************
oldgeo FORCE isotope
 Verify that there is one and only one imaginary vibration

  ATOM    CHEMICAL      BOND LENGTH      BOND ANGLE     TWIST ANGLE 
 NUMBER    SYMBOL       (ANGSTROMS)      (DEGREES)       (DEGREES) 
   (I)                     NA:I           NB:NA:I       NC:NB:NA:I       NA    NB    NC 
     1       C          0.00049282  *    0.0086873  *   -0.0048752  *     0     0     0
     2       C          1.93406864  *    0.1394318  *    0.0671379  *     1     0     0
     3       C          1.39854241  *  101.4352246  *    1.1645610  *     1     2     0
     4       C          1.40739279  *  120.4903924  *   70.4325809  *     3     1     2
     5       C          1.92491407  *  100.4785954  *  -69.5964939  *     4     3     1
     6       C          1.50610328  *  118.4016231  *  177.7272280  *     4     3     1
     7       H          1.08615389  *  119.2955366  *  -97.7059132  *     3     1     2
     8       H          1.09698714  *  118.3823687  *   33.7441657  *     4     3     1
     9       H          1.09724495  *  112.3066669  *   46.2468462  *     6     4     3
    10       H          1.09971781  *  110.5281095  *  -73.2550904  *     6     4     3
    11       H          1.09671086  *  112.0876416  *  167.2354671  *     6     4     3
    12       H          1.08684209  *   97.1484488  *  122.6827383  *     1     2     3
    13       H          1.08526904  *  100.5702515  * -123.3268275  *     1     2     3
    14       C          1.39861683  *  100.3131860  *  -56.1201391  *     2     1     3
    15       H          1.08678993  *  119.3403800  *  -97.6019595  *    14     2     1
    16       H          1.08701573  *   97.7333318  *  -67.1958123  *     5     4     3
    17       H          1.08510435  *  100.8664626  *  178.7370276  *     5     4     3
    18       H          1.08469117  *  101.1462238  * -179.5365093  *     2     1     3
    19       H          1.08676245  *   97.2098422  *   66.2502918  *     2     1     3
 


          CARTESIAN COORDINATES 

    NO.       ATOM           X           Y           Z

     1         C          0.0005      0.0087     -0.0049
     2         C          1.9346      0.0087     -0.0049
     3         C         -0.2768      1.3795     -0.0049
     4         C         -0.0202      2.1599     -1.1476
     5         C          1.9046      2.1504     -1.1532
     6         C         -0.3848      3.6208     -1.1140
     7         H         -0.5066      1.8752      0.9338
     8         H         -0.1495      1.6982     -2.1342
     9         H         -0.0562      4.1109     -0.1889
    10         H         -1.4754      3.7477     -1.1766
    11         H          0.0546      4.1750     -1.9522
    12         H         -0.1348     -0.5736     -0.9125
    13         H         -0.1986     -0.5775      0.8865
    14         C          2.1850      0.7758     -1.1473
    15         H          2.4036      0.2757     -2.0871
    16         H          2.0564      2.7331     -0.2482
    17         H          2.1095      2.7318     -2.0462
    18         H          2.1442     -1.0555     -0.0135
    19         H          2.0710      0.4429      0.9820

 General Reference for PM7:
 "Optimization of Parameters for Semiempirical Methods VI: More Modifications to the 
 NDDO Approximations and Re-optimization of Parameters", J. J. P. Stewart, J. Mol. Mod., 1:32, 19 (2013)
 http://www.springerlink.com/openurl.asp?genre=article&id=doi:10.1007/s00894-012-1667-x

           Empirical Formula: C7 H12  =    19 atoms



      MOLECULAR POINT GROUP   :   C1  


      RHF CALCULATION, NO. OF DOUBLY OCCUPIED LEVELS = 20



          HEAT OF FORMATION =      43.680141 KCALS/MOLE


          CARTESIAN COORDINATE DERIVATIVES

   NUMBER  ATOM         X            Y            Z

     1       C      0.025556    -0.036873    -0.196320
     2       C     -0.033142    -0.064761     0.174818
     3       C      0.184024     0.171138     0.245460
     4       C     -0.204751    -0.037550    -0.174436
     5       C      0.118524    -0.083250     0.016235
     6       C     -0.023750    -0.090857     0.023041
     7       H     -0.016116    -0.006883     0.007746
     8       H      0.040806     0.009648    -0.014012
     9       H      0.013158     0.034454     0.054854
    10       H     -0.020873    -0.013346    -0.003548
    11       H      0.009530     0.021686    -0.033579
    12       H     -0.033430     0.027093    -0.021711
    13       H     -0.002895    -0.035818    -0.017494
    14       C     -0.049194     0.055384    -0.152201
    15       H     -0.012838     0.006452     0.048370
    16       H     -0.032525    -0.003143     0.042738
    17       H      0.003920     0.017417    -0.035810
    18       H     -0.002868    -0.021516     0.021991
    19       H      0.036859     0.050724     0.013853
 


          GRADIENT NORM =   0.59822

          MOLECULAR WEIGHT =   96.17



          ROTATIONAL CONSTANTS IN CM(-1)

          A =    0.14153431   B =    0.07445036   C =    0.05443273



           PRINCIPAL MOMENTS OF INERTIA IN UNITS OF 10**(-40)*GRAM-CM**2

          A =      197.7808   B =      375.9925   C =      514.2637


          ORIENTATION OF MOLECULE IN FORCE CALCULATION

    NO.       ATOM         X         Y         Z

     1          C      -0.7539   -1.4584    0.6501
     2          C       1.1801   -1.4584    0.6501
     3          C      -1.0312   -0.0876    0.6501
     4          C      -0.7747    0.6928   -0.4926
     5          C       1.1502    0.6832   -0.4982
     6          C      -1.1393    2.1537   -0.4590
     7          H      -1.2611    0.4081    1.5888
     8          H      -0.9040    0.2311   -1.4793
     9          H      -0.8106    2.6438    0.4661
    10          H      -2.2299    2.2806   -0.5217
    11          H      -0.6998    2.7079   -1.2972
    12          H      -0.8892   -2.0407   -0.2576
    13          H      -0.9530   -2.0446    1.5415
    14          C       1.4305   -0.6914   -0.4923
    15          H       1.6492   -1.1914   -1.4321
    16          H       1.3020    1.2660    0.4067
    17          H       1.3551    1.2646   -1.3912
    18          H       1.3898   -2.5226    0.6415
    19          H       1.3165   -1.0242    1.6370


    FIRST DERIVATIVES WILL BE USED IN THE CALCULATION OF SECOND DERIVATIVES

    FOR POINT-GROUP C1   THERE ARE   1 UNIQUE SYMMETRY FUNCTIONS.

 STEP:   1 TIME =     0.02 SECS, INTEGRAL =      0.02 TIME LEFT: 172799.98
 STEP:   2 TIME =     0.02 SECS, INTEGRAL =      0.03 TIME LEFT: 172799.97
 STEP:   3 TIME =     0.00 SECS, INTEGRAL =      0.03 TIME LEFT: 172799.97
 STEP:   4 TIME =     0.01 SECS, INTEGRAL =      0.04 TIME LEFT: 172799.96
 STEP:   5 TIME =     0.00 SECS, INTEGRAL =      0.04 TIME LEFT: 172799.96
 STEP:   6 TIME =     0.02 SECS, INTEGRAL =      0.06 TIME LEFT: 172799.94
 STEP:   7 TIME =     0.02 SECS, INTEGRAL =      0.08 TIME LEFT: 172799.92
 STEP:   8 TIME =     0.02 SECS, INTEGRAL =      0.09 TIME LEFT: 172799.91
 STEP:   9 TIME =     0.02 SECS, INTEGRAL =      0.11 TIME LEFT: 172799.89
 STEP:  10 TIME =     0.01 SECS, INTEGRAL =      0.12 TIME LEFT: 172799.88
 STEP:  11 TIME =     0.02 SECS, INTEGRAL =      0.14 TIME LEFT: 172799.86
 STEP:  12 TIME =     0.00 SECS, INTEGRAL =      0.14 TIME LEFT: 172799.86
 STEP:  13 TIME =     0.02 SECS, INTEGRAL =      0.16 TIME LEFT: 172799.84
 STEP:  14 TIME =     0.00 SECS, INTEGRAL =      0.16 TIME LEFT: 172799.84
 STEP:  15 TIME =     0.01 SECS, INTEGRAL =      0.17 TIME LEFT: 172799.83
 STEP:  16 TIME =     0.02 SECS, INTEGRAL =      0.19 TIME LEFT: 172799.81
 STEP:  17 TIME =     0.00 SECS, INTEGRAL =      0.19 TIME LEFT: 172799.81
 STEP:  18 TIME =     0.01 SECS, INTEGRAL =      0.20 TIME LEFT: 172799.80
 STEP:  19 TIME =     0.00 SECS, INTEGRAL =      0.20 TIME LEFT: 172799.80
 STEP:  20 TIME =     0.02 SECS, INTEGRAL =      0.22 TIME LEFT: 172799.78
 STEP:  21 TIME =     0.01 SECS, INTEGRAL =      0.23 TIME LEFT: 172799.77
 STEP:  22 TIME =     0.00 SECS, INTEGRAL =      0.23 TIME LEFT: 172799.77
 STEP:  23 TIME =     0.02 SECS, INTEGRAL =      0.25 TIME LEFT: 172799.75
 STEP:  24 TIME =     0.01 SECS, INTEGRAL =      0.26 TIME LEFT: 172799.74
 STEP:  25 TIME =     0.00 SECS, INTEGRAL =      0.26 TIME LEFT: 172799.74
 STEP:  26 TIME =     0.02 SECS, INTEGRAL =      0.28 TIME LEFT: 172799.72
 STEP:  27 TIME =     0.00 SECS, INTEGRAL =      0.28 TIME LEFT: 172799.72
 STEP:  28 TIME =     0.02 SECS, INTEGRAL =      0.30 TIME LEFT: 172799.70
 STEP:  29 TIME =     0.01 SECS, INTEGRAL =      0.31 TIME LEFT: 172799.69
 STEP:  30 TIME =     0.00 SECS, INTEGRAL =      0.31 TIME LEFT: 172799.69
 STEP:  31 TIME =     0.02 SECS, INTEGRAL =      0.33 TIME LEFT: 172799.67
 STEP:  32 TIME =     0.00 SECS, INTEGRAL =      0.33 TIME LEFT: 172799.67
 STEP:  33 TIME =     0.01 SECS, INTEGRAL =      0.34 TIME LEFT: 172799.66
 STEP:  34 TIME =     0.02 SECS, INTEGRAL =      0.36 TIME LEFT: 172799.64
 STEP:  35 TIME =     0.00 SECS, INTEGRAL =      0.36 TIME LEFT: 172799.64
 STEP:  36 TIME =     0.02 SECS, INTEGRAL =      0.38 TIME LEFT: 172799.62
 STEP:  37 TIME =     0.01 SECS, INTEGRAL =      0.39 TIME LEFT: 172799.61
 STEP:  38 TIME =     0.02 SECS, INTEGRAL =      0.40 TIME LEFT: 172799.60
 STEP:  39 TIME =     0.02 SECS, INTEGRAL =      0.42 TIME LEFT: 172799.58
 STEP:  40 TIME =     0.02 SECS, INTEGRAL =      0.43 TIME LEFT: 172799.57
 STEP:  41 TIME =     0.00 SECS, INTEGRAL =      0.43 TIME LEFT: 172799.57
 STEP:  42 TIME =     0.02 SECS, INTEGRAL =      0.45 TIME LEFT: 172799.55
 STEP:  43 TIME =     0.01 SECS, INTEGRAL =      0.46 TIME LEFT: 172799.54
 STEP:  44 TIME =     0.00 SECS, INTEGRAL =      0.46 TIME LEFT: 172799.54
 STEP:  45 TIME =     0.02 SECS, INTEGRAL =      0.48 TIME LEFT: 172799.52
 STEP:  46 TIME =     0.00 SECS, INTEGRAL =      0.48 TIME LEFT: 172799.52
 STEP:  47 TIME =     0.02 SECS, INTEGRAL =      0.50 TIME LEFT: 172799.50
 STEP:  48 TIME =     0.02 SECS, INTEGRAL =      0.51 TIME LEFT: 172799.49
 STEP:  49 TIME =     0.00 SECS, INTEGRAL =      0.51 TIME LEFT: 172799.49
 STEP:  50 TIME =     0.02 SECS, INTEGRAL =      0.53 TIME LEFT: 172799.47
 STEP:  51 TIME =     0.00 SECS, INTEGRAL =      0.53 TIME LEFT: 172799.47
 STEP:  52 TIME =     0.02 SECS, INTEGRAL =      0.54 TIME LEFT: 172799.46
 STEP:  53 TIME =     0.02 SECS, INTEGRAL =      0.56 TIME LEFT: 172799.44
 STEP:  54 TIME =     0.00 SECS, INTEGRAL =      0.56 TIME LEFT: 172799.44
 STEP:  55 TIME =     0.02 SECS, INTEGRAL =      0.57 TIME LEFT: 172799.43
 STEP:  56 TIME =     0.00 SECS, INTEGRAL =      0.57 TIME LEFT: 172799.43
 STEP:  57 TIME =     0.02 SECS, INTEGRAL =      0.59 TIME LEFT: 172799.41

(To convert to Hartree/Bohr^2, multiply by (10^(-21) x N x a0^2)/(4.184 x 627.51) =  0.0642)


           FORCE MATRIX IN MILLIDYNES/ANGSTROM


                  C  1       C  2       C  3       C  4       C  5       C  6
 ------------------------------------------------------------------------------
     C    1  12.480271
     C    2   2.841646  12.526097
     C    3   6.216293   2.229277  14.657304
     C    4   2.371317   1.852703   5.860543  13.153996
     C    5   1.900161   2.399144   2.203102   2.802699  12.359426
     C    6   0.084872   0.095163   0.750466   3.539893   0.452828  11.540414
     H    7   0.773202   0.028930   3.468214   0.760568   0.020156   0.043138
     H    8   0.183236   0.148737   0.777633   3.363185   0.540123   0.670668
     H    9   0.008094   0.006422   0.022880   0.704690   0.006659   3.423562
     H   10   0.008628   0.012820   0.010129   0.705861   0.039701   3.390024
     H   11   0.007177   0.006430   0.051336   0.693344   0.007278   3.425900
     H   12   3.468248   0.524534   0.785281   0.187259   0.151114   0.009764
     H   13   3.489449   0.425101   0.764173   0.071047   0.087084   0.007567
     C   14   2.276105   6.241822   1.732243   2.207352   6.017290   0.105551
     H   15   0.021909   0.769533   0.029394   0.025203   0.765229   0.008735
     H   16   0.153914   0.188689   0.152265   0.530979   3.468017   0.014963
     H   17   0.089200   0.071649   0.100319   0.440000   3.487876   0.011104
     H   18   0.415792   3.492936   0.095338   0.084568   0.072461   0.006516
     H   19   0.523484   3.472695   0.150925   0.147950   0.188373   0.009657


                  H  7       H  8       H  9       H 10       H 11       H 12
 ------------------------------------------------------------------------------
     H    7   4.400504
     H    8   0.068535   4.321977
     H    9   0.017331   0.043909   4.220156
     H   10   0.010032   0.014048   0.463105   4.195119
     H   11   0.003230   0.018110   0.463963   0.464454   4.221296
     H   12   0.073850   0.022039   0.001279   0.002119   0.001022   4.277816
     H   13   0.037474   0.008467   0.001457   0.001440   0.001764   0.452476
     C   14   0.030851   0.152545   0.007690   0.014912   0.006772   0.153160
     H   15   0.007298   0.004555   0.001814   0.001913   0.001674   0.004813
     H   16   0.004819   0.005111   0.017084   0.002908   0.007130   0.012909
     H   17   0.002824   0.017870   0.005345   0.002256   0.017044   0.009076
     H   18   0.003474   0.008784   0.001263   0.001057   0.001203   0.017207
     H   19   0.004745   0.012461   0.002184   0.001574   0.001315   0.005338


                  H 13       C 14       H 15       H 16       H 17       H 18
 ------------------------------------------------------------------------------
     H   13   4.291084
     C   14   0.099145  14.780827
     H   15   0.003275   3.462326   4.391505
     H   16   0.008961   0.785984   0.071694   4.281071
     H   17   0.004192   0.761085   0.034925   0.452360   4.292828
     H   18   0.016399   0.758430   0.036889   0.008711   0.007997   4.293498
     H   19   0.018075   0.784058   0.075671   0.022842   0.008711   0.452167


                  H 19
 ------------------
     H   19   4.280954


          HEAT OF FORMATION =      43.680141 KCALS/MOLE

          ZERO POINT ENERGY      99.650 KCAL/MOL

         NOTE: SYSTEM IS NOT A GROUND STATE, THEREFORE ZERO POINT
         ENERGY IS NOT MEANINGFULL. ZERO POINT ENERGY PRINTED
         DOES NOT INCLUDE THE  1 IMAGINARY FREQUENCIES


           NORMAL COORDINATE ANALYSIS (Total motion = 1 Angstrom)


   Root No.       1         2         3         4         5         6         7         8

                 1 A       2 A       3 A       4 A       5 A       6 A       7 A       8 A   

                -910.1     135.3     149.7     271.6     312.0     339.5     366.3     385.6
  
           1    0.1225   -0.0031   -0.0026    0.0059   -0.0079    0.0276    0.1050   -0.0055
           2   -0.0222    0.0103   -0.0026   -0.0200   -0.0102    0.0167   -0.0051    0.0027
           3   -0.0011    0.0232   -0.0093    0.0204   -0.0432   -0.0166   -0.0172    0.0110
           4   -0.1209   -0.0010   -0.0038   -0.0007   -0.0098    0.0671   -0.0576   -0.0191
           5   -0.0121   -0.0333   -0.0001    0.0211    0.0075   -0.0320   -0.0154   -0.0249
           6    0.0198   -0.0393    0.0036   -0.0110    0.0052    0.0119    0.0261   -0.0100
           7    0.0002    0.0102   -0.0035   -0.0299    0.0202   -0.0191    0.0609    0.0219
           8    0.0340    0.0132   -0.0026   -0.0250   -0.0028    0.0080   -0.0005    0.0079
           9   -0.0192    0.0175   -0.0061   -0.0004    0.0493   -0.0066   -0.0198   -0.0024
          10   -0.1177    0.0070    0.0015   -0.0178   -0.0081   -0.0641    0.0634   -0.0177
          11   -0.0125   -0.0035   -0.0010   -0.0265   -0.0021    0.0227    0.0180   -0.0076
          12    0.0211    0.0052   -0.0038    0.0007    0.0431   -0.0027   -0.0199   -0.0214
          13    0.1190    0.0056    0.0015   -0.0273   -0.0088   -0.0279   -0.1016   -0.0325
          14   -0.0240    0.0139    0.0033    0.0231    0.0040   -0.0345   -0.0014    0.0043
          15   -0.0016    0.0479    0.0095    0.0095   -0.0097    0.0228    0.0212   -0.0188
          16   -0.0042   -0.0135    0.0030    0.0702    0.0092   -0.0012    0.0057    0.0068
          17    0.0017   -0.0085   -0.0007   -0.0048    0.0005    0.0412    0.0131   -0.0001
          18   -0.0003   -0.0402   -0.0023   -0.0097   -0.0314   -0.0152   -0.0066    0.0099
          19   -0.0039    0.0231   -0.0075   -0.0520    0.0733   -0.0203    0.0457    0.0826
          20   -0.0160    0.0248   -0.0040   -0.0220   -0.0313   -0.0056   -0.0108    0.0279
          21    0.0053    0.0140   -0.0066   -0.0075    0.0729    0.0009   -0.0218    0.0032
          22    0.0720    0.0230    0.0053   -0.0251   -0.0343   -0.0591   -0.0162   -0.0515
          23    0.0012   -0.0275   -0.0012   -0.0272   -0.0338    0.0290    0.0273   -0.0064
          24   -0.0024    0.0135   -0.0040    0.0022    0.0569   -0.0047   -0.0211   -0.0150
          25    0.0067   -0.0286    0.2477    0.1003    0.0001    0.0239   -0.0147    0.0207
          26   -0.0017    0.0242    0.0608   -0.0217    0.0470    0.0359    0.0166   -0.0289
          27   -0.0018   -0.0524   -0.1218   -0.0108   -0.0536   -0.0215   -0.0023    0.0210
          28   -0.0037   -0.0151   -0.0142    0.0811    0.0120    0.0064    0.0009    0.0098
          29    0.0392   -0.0269   -0.0085    0.0739    0.0119    0.0981   -0.0348    0.0244
          30   -0.0036   -0.0533    0.2826   -0.0173   -0.0586   -0.0187   -0.0055    0.0188
          31    0.0139   -0.0153   -0.2229    0.1146    0.0297    0.0289   -0.0169    0.0154
          32   -0.0176   -0.0271   -0.0551   -0.0401   -0.0511    0.0089    0.0374    0.0116
          33   -0.0024   -0.0537   -0.1565   -0.0110   -0.0564   -0.0219   -0.0015    0.0225
          34   -0.0700   -0.0346    0.0029    0.0081   -0.0059    0.0582    0.0385   -0.0415
          35   -0.0015    0.0044    0.0009   -0.0412    0.0633    0.0244   -0.0036   -0.0071
          36    0.0062    0.0316   -0.0125    0.0336   -0.0917   -0.0251   -0.0159    0.0229
          37   -0.0088    0.0124   -0.0081    0.0249   -0.0210    0.0441    0.0384   -0.0025
          38    0.0113    0.0212   -0.0061   -0.0068   -0.0807    0.0025   -0.0005    0.0213
          39   -0.0016    0.0338   -0.0129    0.0341   -0.0943   -0.0240   -0.0220    0.0249
          40    0.0009   -0.0026    0.0037   -0.0164    0.0035    0.0090   -0.0726    0.0422
          41    0.0344    0.0118    0.0038    0.0279    0.0066   -0.0255   -0.0079    0.0183
          42   -0.0189   -0.0093    0.0075   -0.0111    0.0071    0.0089    0.0148    0.0301
          43    0.0005   -0.0115    0.0110   -0.0216    0.0216   -0.0019   -0.0841    0.1603
          44   -0.0145    0.0498    0.0066    0.0381    0.0019   -0.0164   -0.0033    0.0339
          45    0.0072   -0.0315    0.0077   -0.0171    0.0135    0.0008    0.0138    0.0469
          46   -0.0702   -0.0083   -0.0035   -0.0356    0.0050   -0.0509   -0.0266   -0.0635
          47   -0.0021   -0.0262   -0.0006    0.0091    0.0231   -0.0472   -0.0118    0.0463
          48    0.0081    0.0760    0.0129    0.0209   -0.0246    0.0342    0.0236   -0.0398
          49   -0.0110    0.0203    0.0045   -0.0310   -0.0292   -0.0409   -0.0344   -0.0277
          50    0.0102    0.0540    0.0080    0.0414   -0.0130   -0.0186   -0.0012   -0.0255
          51   -0.0025    0.0775    0.0134    0.0201   -0.0260    0.0321    0.0294   -0.0395
          52    0.0058   -0.0242   -0.0018    0.0192    0.0024    0.0580    0.0065   -0.0196
          53    0.0073   -0.0376    0.0003    0.0250    0.0099   -0.0322   -0.0086   -0.0267
          54   -0.0069   -0.0925    0.0018   -0.0157    0.0127    0.0041    0.0194   -0.0626
          55    0.0705    0.0287   -0.0106    0.0090   -0.0338    0.0569    0.0241   -0.0353
          56   -0.0063   -0.0808   -0.0030    0.0222    0.0110   -0.0379   -0.0167   -0.0793
          57   -0.0020   -0.0226    0.0059   -0.0124    0.0071    0.0134    0.0216    0.0162


   Root No.       9        10        11        12        13        14        15        16

                 9 A      10 A      11 A      12 A      13 A      14 A      15 A      16 A   

                 460.5     493.1     534.4     845.1     852.0     891.2     967.2     968.6
  
           1   -0.0288    0.0123    0.0150   -0.0035    0.0051    0.0022    0.0084    0.0084
           2   -0.0048    0.0200    0.0521   -0.0062    0.0079    0.0011    0.0003   -0.0076
           3   -0.0107   -0.0010   -0.0239    0.0201   -0.0179   -0.0095    0.0220    0.0197
           4    0.0120   -0.0266    0.0111    0.0062    0.0067    0.0026   -0.0015   -0.0094
           5    0.0223    0.0334   -0.0107   -0.0109   -0.0203    0.0155   -0.0028   -0.0029
           6    0.0119   -0.0157    0.0042    0.0018   -0.0066    0.0140   -0.0013   -0.0104
           7    0.0518   -0.0124   -0.0223    0.0204   -0.0218   -0.0229   -0.0416   -0.0107
           8    0.0060    0.0157    0.0399    0.0014    0.0067   -0.0080   -0.0049   -0.0130
           9   -0.0078    0.0140    0.0218    0.0101    0.0016    0.0006   -0.0111    0.0163
          10   -0.0335    0.0100    0.0001   -0.0035    0.0040    0.0074    0.0047    0.0033
          11   -0.0154   -0.0067   -0.0359   -0.0003    0.0010    0.0008   -0.0006   -0.0079
          12   -0.0358    0.0023   -0.0205   -0.0062    0.0054    0.0046   -0.0017   -0.0208
          13    0.0089   -0.0297   -0.0010    0.0074    0.0078    0.0003    0.0048    0.0076
          14   -0.0002   -0.0355    0.0061    0.0077    0.0064   -0.0016   -0.0010    0.0083
          15    0.0271    0.0213   -0.0020   -0.0221   -0.0017   -0.0242    0.0063    0.0086
          16    0.0027    0.0008    0.0126   -0.0035    0.0041    0.0038    0.0136   -0.0141
          17   -0.0118   -0.0096   -0.0495    0.0055   -0.0067    0.0021    0.0047    0.0240
          18    0.0077    0.0060    0.0161   -0.0007    0.0015    0.0030   -0.0001   -0.0175
          19    0.2001   -0.0346   -0.0584   -0.0880    0.0603    0.0858    0.2102    0.0082
          20    0.0346    0.0170    0.0505    0.0006    0.0064   -0.0058    0.0421    0.0137
          21    0.0161    0.0056    0.0001   -0.0185    0.0209    0.0268    0.0305    0.0034
          22   -0.0438   -0.0052    0.0056   -0.0093    0.0180   -0.0315   -0.0109   -0.0429
          23   -0.0126   -0.0150   -0.0619   -0.0019   -0.0032    0.0094    0.0218   -0.0179
          24   -0.0292    0.0075   -0.0051   -0.0017    0.0044    0.0048   -0.0108   -0.0041
          25    0.0226   -0.0037    0.0235    0.0071   -0.0069   -0.0187   -0.0361    0.0311
          26   -0.0538   -0.0114   -0.0924   -0.0052    0.0026    0.0294    0.0311   -0.0746
          27    0.0246    0.0087    0.0386    0.0017    0.0003   -0.0066   -0.0007    0.0251
          28    0.0060   -0.0006    0.0120   -0.0002    0.0003   -0.0019   -0.0036   -0.0050
          29    0.0231   -0.0201   -0.0386    0.0222   -0.0246   -0.0327   -0.0851    0.0695
          30    0.0215    0.0072    0.0358    0.0033    0.0008   -0.0066   -0.0036    0.0307
          31    0.0137   -0.0045    0.0098    0.0044   -0.0041   -0.0096   -0.0361   -0.0074
          32    0.0076   -0.0014   -0.0131    0.0045   -0.0047   -0.0053    0.0331    0.0840
          33    0.0265    0.0093    0.0404    0.0027   -0.0012   -0.0088   -0.0028    0.0335
          34   -0.0439   -0.0019    0.0338    0.0928   -0.1085   -0.0352    0.1171    0.0077
          35   -0.0018    0.0348    0.1141    0.0360   -0.0254   -0.0083    0.0345    0.0715
          36   -0.0072   -0.0109   -0.0716   -0.0269    0.0274    0.0031   -0.0251   -0.0409
          37   -0.0106    0.0081   -0.0044   -0.1209    0.1445    0.0954   -0.1050    0.1172
          38    0.0013    0.0037   -0.0095   -0.0485    0.0434    0.0005   -0.0492   -0.1139
          39   -0.0052   -0.0117   -0.0719   -0.0405    0.0424    0.0134   -0.0424   -0.0334
          40   -0.0189    0.0448   -0.0134   -0.0307   -0.0302   -0.0030   -0.0085    0.0034
          41   -0.0026   -0.0247    0.0063    0.0007   -0.0016   -0.0004    0.0009   -0.0072
          42   -0.0088   -0.0433    0.0109   -0.0048    0.0050    0.0036   -0.0069    0.0050
          43   -0.0660    0.1584   -0.0598    0.1057    0.0880    0.0073    0.0544   -0.0102
          44   -0.0049   -0.0080    0.0021    0.0075    0.0206   -0.0317    0.0144    0.0132
          45   -0.0159   -0.0153   -0.0011    0.0241    0.0196    0.0218    0.0017   -0.0092
          46   -0.0263   -0.0552   -0.0022   -0.1011   -0.0054   -0.1093    0.0417    0.0503
          47   -0.0391   -0.1053    0.0196   -0.0342    0.0186   -0.0508    0.0069    0.0376
          48    0.0577    0.0772   -0.0116    0.0291   -0.0093    0.0354   -0.0075   -0.0223
          49    0.0157    0.0010   -0.0067    0.1443    0.0562    0.1435   -0.0524    0.0756
          50    0.0396    0.0428   -0.0062    0.0465   -0.0139    0.0480   -0.0080   -0.0378
          51    0.0588    0.0807   -0.0117    0.0417   -0.0039    0.0486   -0.0139   -0.0094
          52    0.0094   -0.0046   -0.0174    0.0850    0.1714   -0.1092    0.0464   -0.0615
          53    0.0246    0.0381   -0.0171    0.0060    0.0172   -0.0119    0.0059   -0.0116
          54    0.0511    0.0785   -0.0345    0.0010    0.0587   -0.0617   -0.0104    0.0379
          55   -0.0068   -0.0476    0.0405   -0.0332   -0.1253    0.0968    0.0146   -0.0263
          56    0.0594    0.1141   -0.0465   -0.0089    0.0399   -0.0534   -0.0065    0.0402
          57   -0.0024   -0.0424    0.0136    0.0055   -0.0080    0.0241   -0.0027   -0.0216


   Root No.      17        18        19        20        21        22        23        24

                17 A      18 A      19 A      20 A      21 A      22 A      23 A      24 A   

                 990.0     998.8    1011.6    1035.3    1050.5    1069.9    1113.7    1179.4
  
           1   -0.0002   -0.0044    0.0110    0.0005    0.0027    0.0031   -0.0035    0.0082
           2    0.0074   -0.0050    0.0140    0.0001   -0.0010   -0.0008    0.0063    0.0008
           3   -0.0091    0.0003   -0.0070   -0.0194   -0.0091    0.0036    0.0035    0.0166
           4    0.0071    0.0035   -0.0096    0.0014   -0.0000    0.0032    0.0057    0.0066
           5    0.0004    0.0201    0.0054   -0.0053   -0.0061   -0.0453   -0.0024    0.0015
           6   -0.0027    0.0156   -0.0042    0.0002    0.0009    0.0083   -0.0057   -0.0018
           7    0.0056    0.0033   -0.0047    0.0025   -0.0143   -0.0060    0.0115    0.0039
           8   -0.0026   -0.0002   -0.0050    0.0014    0.0025   -0.0016   -0.0030   -0.0030
           9   -0.0068    0.0028   -0.0014    0.0126    0.0052   -0.0047    0.0025   -0.0179
          10   -0.0045    0.0010    0.0002   -0.0068    0.0116    0.0036   -0.0183   -0.0297
          11    0.0033    0.0002    0.0014    0.0014    0.0036   -0.0016    0.0038    0.0510
          12    0.0050   -0.0019    0.0008    0.0032    0.0136   -0.0017    0.0045    0.0189
          13    0.0038    0.0043    0.0050    0.0086   -0.0113    0.0014    0.0002   -0.0225
          14    0.0058   -0.0049    0.0062    0.0050   -0.0002    0.0317    0.0014    0.0018
          15    0.0187   -0.0042   -0.0047    0.0008   -0.0083   -0.0359   -0.0075   -0.0035
          16   -0.0081   -0.0048   -0.0163    0.0186   -0.0189   -0.0037    0.0138    0.0181
          17   -0.0124    0.0039   -0.0092    0.0074   -0.0011   -0.0011   -0.0020   -0.0474
          18    0.0069   -0.0114    0.0061   -0.0227   -0.0183    0.0049   -0.0016   -0.0159
          19    0.0064   -0.0193    0.0364   -0.0388    0.0819    0.0107    0.0091   -0.0017
          20   -0.0110   -0.0030   -0.0080   -0.0564   -0.0218    0.0131   -0.0058   -0.0490
          21   -0.0003   -0.0026    0.0121    0.0302    0.0425   -0.0083    0.0058    0.0106
          22    0.0169    0.0516   -0.1035   -0.1227    0.1544   -0.0198    0.1704    0.0125
          23    0.0074   -0.0115   -0.0090   -0.0611   -0.0352    0.0065    0.0197    0.0861
          24   -0.0012   -0.0026    0.0176    0.0471    0.0119   -0.0035   -0.0260   -0.0143
          25    0.0180    0.0222    0.0276   -0.0201    0.0611    0.0038   -0.0180    0.0115
          26    0.0053   -0.0560   -0.0043   -0.0684   -0.1145    0.0148    0.0093   -0.0789
          27   -0.0115    0.0166   -0.0114    0.0375    0.0279   -0.0081    0.0034    0.0160
          28    0.0038   -0.0007    0.0022   -0.0062    0.0019    0.0019    0.0013    0.0032
          29    0.0501    0.0302    0.0820   -0.0991    0.1164    0.0209   -0.0516   -0.0621
          30   -0.0099    0.0169   -0.0115    0.0358    0.0384   -0.0133    0.0021    0.0115
          31    0.0358   -0.0035    0.0451   -0.0706    0.0265    0.0129   -0.0235   -0.0159
          32   -0.0668    0.0459   -0.0724    0.1453    0.0392   -0.0299    0.0278    0.0222
          33   -0.0136    0.0215   -0.0120    0.0390    0.0357   -0.0093    0.0016    0.0108
          34    0.0431   -0.0420    0.1272    0.0499    0.0127   -0.0484    0.1318   -0.0786
          35   -0.0246    0.0143   -0.0528   -0.0900   -0.0493    0.0274   -0.0066    0.0574
          36    0.0070   -0.0068    0.0221    0.0410    0.0254   -0.0101   -0.0076   -0.0130
          37    0.0013    0.0460    0.0018   -0.0342   -0.0821   -0.0051    0.0935   -0.0417
          38    0.0375   -0.0257    0.0576    0.0842    0.0517   -0.0151   -0.0073   -0.0310
          39    0.0134   -0.0041    0.0261    0.0381    0.0125   -0.0089    0.0146   -0.0199
          40   -0.0318   -0.0205    0.0041   -0.0046    0.0077    0.0051   -0.0073    0.0081
          41   -0.0080   -0.0023   -0.0056   -0.0003    0.0021    0.0052   -0.0022    0.0021
          42   -0.0061   -0.0070    0.0035    0.0004   -0.0008    0.0090    0.0018    0.0029
          43    0.1754    0.1176   -0.0249    0.0276   -0.0323    0.0162   -0.0081   -0.0116
          44    0.0501   -0.0328   -0.0229    0.0107   -0.0023    0.0011   -0.0061    0.0080
          45    0.0158    0.0446    0.0054    0.0026   -0.0086    0.0150    0.0021   -0.0048
          46    0.0406    0.1133    0.1028    0.0072   -0.0452    0.0770   -0.0668    0.1302
          47    0.0670   -0.0771   -0.0433   -0.0007    0.0010   -0.1009   -0.0047   -0.0222
          48   -0.0367    0.0281    0.0143    0.0045   -0.0015    0.0511    0.0073   -0.0116
          49    0.0200   -0.1048    0.0471   -0.0119    0.0272   -0.1049   -0.0510    0.1348
          50   -0.0717    0.0514    0.0278    0.0138    0.0069    0.1915    0.0239   -0.0136
          51   -0.0353    0.0123    0.0230    0.0037    0.0045    0.0596   -0.0006    0.0212
          52   -0.1351    0.0177   -0.0166   -0.0375    0.0248   -0.0724   -0.1190   -0.0282
          53   -0.0246    0.0151    0.0006   -0.0111   -0.0003   -0.0495   -0.0246   -0.0048
          54    0.0405   -0.1061   -0.0343    0.0273    0.0207    0.1730    0.0146    0.0016
          55    0.1089    0.0105   -0.1235    0.0143    0.0377    0.0481   -0.1442   -0.0287
          56    0.0545   -0.0898   -0.0403    0.0163    0.0095    0.0790    0.0037    0.0069
          57   -0.0386    0.0520    0.0295   -0.0099   -0.0100   -0.0409    0.0123    0.0017


   Root No.      25        26        27        28        29        30        31        32

                25 A      26 A      27 A      28 A      29 A      30 A      31 A      32 A   

                1196.1    1199.3    1287.5    1293.4    1306.6    1311.9    1327.9    1335.2
  
           1   -0.0257   -0.0167   -0.0013    0.0002    0.0021   -0.0035    0.0054    0.0053
           2    0.0018   -0.0018    0.0004   -0.0017    0.0041   -0.0043   -0.0214    0.0005
           3    0.0065   -0.0098    0.0041   -0.0031   -0.0075   -0.0049   -0.0198   -0.0010
           4   -0.0219   -0.0207   -0.0001    0.0008   -0.0018   -0.0030    0.0053    0.0072
           5   -0.0058   -0.0033   -0.0004    0.0003   -0.0005    0.0046   -0.0012    0.0015
           6   -0.0023   -0.0037    0.0000    0.0001   -0.0040    0.0243    0.0010   -0.0236
           7    0.0062    0.0061    0.0020   -0.0000   -0.0019   -0.0008   -0.0023    0.0006
           8    0.0041    0.0043    0.0012   -0.0008   -0.0051    0.0033   -0.0005   -0.0031
           9   -0.0136    0.0150   -0.0120    0.0046    0.0304    0.0084    0.0134    0.0009
          10    0.0091   -0.0202   -0.0020   -0.0010    0.0053    0.0055   -0.0045    0.0044
          11    0.0327   -0.0141    0.0061   -0.0048   -0.0268   -0.0074    0.0084   -0.0060
          12    0.0127   -0.0115   -0.0005    0.0043   -0.0035    0.0024    0.0261    0.0038
          13    0.0105   -0.0188   -0.0026    0.0011    0.0050    0.0040   -0.0047    0.0055
          14   -0.0042    0.0005    0.0006   -0.0019    0.0057   -0.0206    0.0020   -0.0212
          15   -0.0009   -0.0047   -0.0002   -0.0024    0.0050   -0.0180    0.0024   -0.0104
          16   -0.0018    0.0072    0.0109   -0.0283    0.0019    0.0018    0.0056    0.0001
          17   -0.0293    0.0128    0.0020   -0.0041    0.0052    0.0027   -0.0108    0.0047
          18   -0.0095    0.0078   -0.0252   -0.0142   -0.0193   -0.0049   -0.0090   -0.0016
          19   -0.0013   -0.0130    0.0015   -0.0024   -0.0134   -0.0051   -0.0076    0.0023
          20   -0.0065    0.0116   -0.0083    0.0336   -0.0392    0.0302    0.3781    0.0236
          21   -0.0061    0.0039   -0.0070   -0.0141    0.0434   -0.0079   -0.1881   -0.0125
          22   -0.0714    0.0968    0.0100   -0.0108   -0.0326   -0.0104   -0.0175   -0.0032
          23    0.0358   -0.0081   -0.1022    0.0608    0.3243    0.0812    0.0404    0.0162
          24    0.0142   -0.0246    0.0444   -0.0250   -0.1551   -0.0351    0.0129   -0.0051
          25    0.0251   -0.0212   -0.2577    0.1579   -0.0617   -0.0352   -0.0223   -0.0164
          26   -0.0619    0.0473    0.0591    0.1105   -0.0604   -0.0335   -0.0369   -0.0180
          27    0.0089   -0.0079    0.0532   -0.1296    0.0370    0.0267    0.0211    0.0153
          28    0.0033   -0.0019   -0.0107   -0.0374   -0.0008    0.0027    0.0049    0.0010
          29    0.0263   -0.0438    0.0304   -0.1569    0.0124    0.0240    0.0242    0.0134
          30    0.0101   -0.0127    0.3243    0.0848    0.0696    0.0162    0.0174    0.0030
          31    0.0125   -0.0147    0.1400    0.2423    0.0116   -0.0193   -0.0285   -0.0154
          32   -0.0078    0.0040   -0.0884    0.0794   -0.0361   -0.0196    0.0229   -0.0071
          33    0.0078   -0.0077   -0.0001    0.1808   -0.0319   -0.0269   -0.0005   -0.0151
          34    0.1271    0.0935   -0.0002    0.0038   -0.0012    0.0115    0.0085   -0.0067
          35    0.0139   -0.0395    0.0120   -0.0076   -0.0028   -0.0185   -0.1111    0.0049
          36   -0.0264    0.0022   -0.0057    0.0010    0.0022    0.0045    0.0406   -0.0026
          37    0.1338    0.0579    0.0091   -0.0022   -0.0253    0.0187   -0.0057   -0.0263
          38   -0.0356    0.0141   -0.0146    0.0085    0.0543    0.0030   -0.0361    0.0134
          39    0.0111    0.0192   -0.0060    0.0043    0.0258    0.0064   -0.0278    0.0008
          40    0.0021    0.0102    0.0006   -0.0010    0.0006   -0.0005    0.0013   -0.0131
          41    0.0021    0.0027   -0.0001    0.0032   -0.0024   -0.0020    0.0019    0.0262
          42    0.0057    0.0089   -0.0004    0.0028   -0.0029    0.0035   -0.0061    0.0457
          43   -0.0086   -0.0093   -0.0001   -0.0011    0.0044   -0.0048    0.0024   -0.0138
          44   -0.0078   -0.0050   -0.0061    0.0306   -0.0807    0.3682   -0.0470    0.0057
          45    0.0074    0.0081    0.0027   -0.0126    0.0399   -0.1948    0.0209    0.0475
          46   -0.0850    0.1397    0.0140   -0.0020   -0.0148    0.0142    0.0047    0.0059
          47   -0.0055   -0.0261   -0.0011   -0.0282    0.0395   -0.0798    0.0266   -0.1767
          48    0.0174   -0.0116   -0.0016    0.0155   -0.0147    0.0204   -0.0154    0.0994
          49   -0.0756    0.0972    0.0069   -0.0036   -0.0219   -0.0017    0.0228   -0.0142
          50    0.0061    0.0057    0.0035   -0.0167    0.0230   -0.0173    0.0104   -0.1036
          51   -0.0117    0.0249    0.0037   -0.0123    0.0095   -0.0148    0.0128   -0.0622
          52    0.0940    0.0871   -0.0000   -0.0055    0.0113   -0.0030   -0.0253   -0.0226
          53    0.0165    0.0169   -0.0004   -0.0005    0.0018    0.0029   -0.0072    0.0027
          54    0.0076    0.0084    0.0002    0.0024    0.0014    0.0247    0.0070   -0.1323
          55    0.1018    0.1193   -0.0003   -0.0025    0.0103   -0.0089   -0.0083   -0.0090
          56    0.0086    0.0097   -0.0001    0.0029   -0.0006   -0.0574   -0.0058    0.1953
          57   -0.0239   -0.0264   -0.0001   -0.0001   -0.0060    0.0512    0.0036   -0.0978


   Root No.      33        34        35        36        37        38        39        40

                33 A      34 A      35 A      36 A      37 A      38 A      39 A      40 A   

                1357.6    1375.0    1389.9    1444.5    1468.2    1526.2    1674.4    2671.8
  
           1   -0.0043    0.0007    0.0025    0.0006   -0.0067   -0.0184   -0.0122   -0.0000
           2   -0.0020    0.0007   -0.0060   -0.0392    0.0708   -0.0238    0.0752    0.0001
           3    0.0011    0.0003   -0.0024   -0.0046    0.0026    0.0056   -0.0070    0.0000
           4   -0.0033   -0.0008   -0.0014   -0.0025   -0.0140    0.0149   -0.0104    0.0000
           5    0.0003    0.0095    0.0012   -0.0232   -0.0147   -0.0295   -0.0495    0.0001
           6    0.0022   -0.0200   -0.0003    0.0464    0.0291    0.0347    0.0606    0.0002
           7    0.0093    0.0007   -0.0032   -0.0117    0.0190    0.0027    0.0025    0.0000
           8   -0.0329   -0.0062   -0.0062    0.0169   -0.0391    0.0612   -0.1216   -0.0003
           9   -0.0225    0.0009    0.0130    0.0246   -0.0332   -0.0404    0.0613   -0.0001
          10   -0.0030   -0.0016    0.0017   -0.0018   -0.0111    0.0163    0.0091   -0.0022
          11   -0.0220   -0.0017   -0.0005    0.0252   -0.0377   -0.0449    0.0563    0.0013
          12    0.0319    0.0007   -0.0105   -0.0265    0.0402    0.0368   -0.0584    0.0024
          13   -0.0029   -0.0001    0.0023   -0.0045   -0.0039   -0.0182    0.0101    0.0004
          14   -0.0042    0.0221    0.0031    0.0518    0.0475   -0.0253   -0.0716    0.0004
          15   -0.0011    0.0030   -0.0000    0.0057    0.0007    0.0064    0.0083    0.0003
          16   -0.0014    0.0015    0.0109    0.0015    0.0024   -0.0043   -0.0005   -0.0433
          17    0.0159    0.0038   -0.0489   -0.0038    0.0078    0.0046   -0.0037   -0.0109
          18   -0.0061   -0.0001    0.0002    0.0049   -0.0073   -0.0038    0.0036   -0.0118
          19    0.0102    0.0005   -0.0014   -0.0029    0.0051    0.0018   -0.0012   -0.0011
          20    0.0709    0.0110   -0.0060    0.0163   -0.0100   -0.0491    0.0302    0.0028
          21   -0.0715   -0.0079    0.0104    0.0183   -0.0370    0.0205   -0.0207    0.0048
          22   -0.0049    0.0062   -0.0019    0.0106    0.0060   -0.0507    0.0177   -0.0059
          23   -0.0218    0.0005    0.0272   -0.0123    0.0232    0.0385   -0.0441   -0.0177
          24    0.0302   -0.0004   -0.0256   -0.0077    0.0074    0.0011   -0.0075   -0.0411
          25    0.0105   -0.0069   -0.0843    0.0051   -0.0100   -0.0064    0.0043    0.0656
          26   -0.0368   -0.0133    0.2129   -0.0131    0.0081    0.0084    0.0001    0.1350
          27    0.0180    0.0109   -0.1004    0.0082   -0.0036   -0.0065    0.0014    0.2460
          28   -0.0038   -0.0005    0.0379   -0.0038    0.0047    0.0061   -0.0061    0.4444
          29   -0.0167   -0.0073    0.2174   -0.0309    0.0191    0.0423   -0.0122   -0.0722
          30    0.0008   -0.0010    0.0059   -0.0032    0.0043    0.0021   -0.0028    0.0202
          31   -0.0098   -0.0078   -0.0953    0.0189   -0.0295   -0.0238    0.0219    0.0345
          32    0.0177   -0.0090    0.1930   -0.0446    0.0568    0.0391   -0.0311    0.0712
          33   -0.0004   -0.0120    0.0958   -0.0193    0.0190    0.0190   -0.0191   -0.1168
          34    0.0178   -0.0045   -0.0019    0.0201   -0.0268    0.0528   -0.0158   -0.0000
          35    0.2417    0.0196    0.0344    0.0333   -0.0445   -0.0108    0.0018   -0.0007
          36   -0.1637   -0.0121   -0.0259   -0.0474    0.0703   -0.0097    0.0369   -0.0010
          37    0.0033   -0.0058   -0.0112    0.0102    0.0108    0.0621   -0.0009   -0.0001
          38    0.2214    0.0194    0.0506    0.0577   -0.0720   -0.0439    0.0328   -0.0001
          39    0.1469    0.0113    0.0339    0.0636   -0.0859   -0.0030   -0.0084    0.0003
          40   -0.0002    0.0000    0.0001    0.0170    0.0127    0.0019   -0.0002    0.0000
          41   -0.0009    0.0137   -0.0025   -0.0211   -0.0303    0.0659    0.1225   -0.0000
          42   -0.0010   -0.0070    0.0009   -0.0366   -0.0190   -0.0441   -0.0692   -0.0001
          43   -0.0011    0.0005    0.0007    0.0025    0.0017    0.0015    0.0007   -0.0004
          44    0.0086   -0.0523    0.0057   -0.0132    0.0045   -0.0486   -0.0342    0.0008
          45   -0.0066    0.0282   -0.0027   -0.0304   -0.0297    0.0189    0.0148    0.0014
          46    0.0103   -0.0144   -0.0016   -0.0200   -0.0171    0.0550    0.0152   -0.0007
          47    0.0281   -0.1452   -0.0123   -0.0474   -0.0341   -0.0136    0.0003   -0.0047
          48   -0.0235    0.1118    0.0098    0.0639    0.0491   -0.0087   -0.0351   -0.0067
          49    0.0216    0.0082   -0.0047   -0.0007    0.0167    0.0677    0.0028   -0.0002
          50    0.0273   -0.1629   -0.0112   -0.0832   -0.0511   -0.0505   -0.0360   -0.0018
          51    0.0250   -0.1158   -0.0103   -0.0842   -0.0561   -0.0052    0.0051    0.0029
          52    0.0143   -0.0023    0.0042   -0.0011    0.0460   -0.0515   -0.0015    0.0001
          53    0.0036    0.0079    0.0019   -0.0249   -0.0051   -0.0311   -0.0268   -0.0007
          54   -0.0085    0.1947   -0.0010   -0.1228   -0.0858    0.0137    0.0233    0.0001
          55    0.0011    0.0223    0.0048   -0.0230    0.0120   -0.0547   -0.0162   -0.0004
          56    0.0017   -0.1682   -0.0024    0.0833    0.0524    0.0214    0.0304   -0.0009
          57    0.0004    0.0561    0.0004   -0.0052   -0.0072    0.0164    0.0218   -0.0025


   Root No.      41        42        43        44        45        46        47        48

                41 A      42 A      43 A      44 A      45 A      46 A      47 A      48 A   

                2676.2    2699.3    2700.9    2704.7    2727.2    2758.0    2763.3    2765.8
  
           1    0.0001    0.0006    0.0002    0.0003   -0.0004    0.0034   -0.0023   -0.0018
           2   -0.0001   -0.0008   -0.0004   -0.0004    0.0006    0.0108   -0.0068   -0.0091
           3   -0.0003   -0.0233   -0.0129   -0.0174    0.0043   -0.0027    0.0013    0.0034
           4   -0.0000   -0.0006   -0.0003    0.0007   -0.0004    0.0032   -0.0021    0.0024
           5    0.0001    0.0155   -0.0013   -0.0199    0.0021   -0.0079    0.0024   -0.0092
           6    0.0003    0.0109    0.0003   -0.0143    0.0005    0.0050   -0.0075    0.0065
           7    0.0000   -0.0006   -0.0005   -0.0008   -0.0023    0.0014   -0.0012   -0.0022
           8   -0.0005    0.0017    0.0010    0.0021    0.0045   -0.0018    0.0013    0.0031
           9    0.0008    0.0016    0.0014    0.0019    0.0065   -0.0063    0.0041    0.0081
          10    0.0013   -0.0002   -0.0000   -0.0003   -0.0035    0.0002    0.0012   -0.0003
          11    0.0029   -0.0008    0.0011   -0.0009   -0.0122   -0.0014   -0.0000    0.0005
          12    0.0036   -0.0003    0.0026   -0.0010   -0.0300   -0.0035    0.0004    0.0020
          13    0.0003   -0.0001    0.0006   -0.0005   -0.0017    0.0016    0.0041   -0.0008
          14   -0.0000   -0.0002   -0.0009    0.0009   -0.0014    0.0059    0.0150   -0.0049
          15    0.0014    0.0074   -0.0338    0.0084   -0.0040   -0.0042   -0.0037   -0.0023
          16    0.0113   -0.0001    0.0000   -0.0002   -0.0014    0.0001    0.0005    0.0001
          17    0.0041   -0.0001    0.0001   -0.0001   -0.0009    0.0002   -0.0009   -0.0012
          18   -0.0424    0.0002   -0.0003   -0.0003   -0.0081   -0.0008   -0.0001    0.0004
          19   -0.0004    0.0118    0.0073    0.0121    0.0307   -0.0199    0.0138    0.0269
          20    0.0005   -0.0223   -0.0132   -0.0230   -0.0643    0.0396   -0.0274   -0.0537
          21    0.0014   -0.0454   -0.0275   -0.0457   -0.1150    0.0773   -0.0528   -0.1034
          22   -0.0105    0.0012   -0.0030    0.0023    0.0500    0.0053   -0.0005   -0.0021
          23   -0.0350    0.0063   -0.0171    0.0102    0.1872    0.0192   -0.0006   -0.0081
          24   -0.0827    0.0142   -0.0374    0.0222    0.4064    0.0432   -0.0027   -0.0195
          25    0.1057   -0.0006    0.0016    0.0003    0.0109   -0.0002    0.0042    0.0052
          26    0.1607   -0.0009    0.0018    0.0008    0.0228    0.0003    0.0057    0.0067
          27    0.2634   -0.0015    0.0038    0.0011    0.0313   -0.0007    0.0114    0.0140
          28   -0.0898    0.0006   -0.0020    0.0038    0.0430    0.0048   -0.0160   -0.0169
          29    0.0155   -0.0001    0.0003   -0.0005   -0.0056   -0.0004    0.0019    0.0017
          30   -0.0273    0.0001   -0.0002    0.0000   -0.0014    0.0000   -0.0009   -0.0008
          31   -0.1590    0.0010   -0.0006   -0.0009   -0.0313   -0.0047    0.0054    0.0090
          32   -0.2188    0.0015   -0.0007   -0.0010   -0.0412   -0.0063    0.0063    0.0113
          33    0.2968   -0.0020    0.0011    0.0013    0.0558    0.0089   -0.0099   -0.0169
          34    0.0004    0.0263    0.0149    0.0203   -0.0042   -0.0134    0.0090    0.0104
          35    0.0017    0.1209    0.0655    0.0850   -0.0181   -0.0600    0.0394    0.0464
          36    0.0026    0.1657    0.0898    0.1158   -0.0242   -0.0971    0.0629    0.0765
          37   -0.0005   -0.0315   -0.0179   -0.0249    0.0058   -0.0271    0.0160    0.0250
          38   -0.0011   -0.1031   -0.0580   -0.0804    0.0185   -0.0860    0.0515    0.0771
          39    0.0016    0.1345    0.0761    0.1061   -0.0248    0.1287   -0.0773   -0.1145
          40    0.0001    0.0007   -0.0012   -0.0007   -0.0005    0.0025    0.0020    0.0024
          41   -0.0000   -0.0010    0.0029   -0.0000    0.0014   -0.0053   -0.0016   -0.0063
          42   -0.0000   -0.0024    0.0032    0.0028    0.0019   -0.0095   -0.0086   -0.0082
          43   -0.0004   -0.0130    0.0191    0.0104    0.0075   -0.0325   -0.0249   -0.0299
          44    0.0007    0.0279   -0.0381   -0.0234   -0.0157    0.0694    0.0518    0.0646
          45    0.0016    0.0507   -0.0764   -0.0397   -0.0302    0.1304    0.1007    0.1195
          46   -0.0019   -0.0095    0.0430   -0.0104    0.0083   -0.0057   -0.0213    0.0094
          47   -0.0064   -0.0383    0.1712   -0.0413    0.0264   -0.0229   -0.0850    0.0396
          48   -0.0084   -0.0520    0.2335   -0.0562    0.0378   -0.0407   -0.1364    0.0587
          49    0.0020    0.0107   -0.0485    0.0120   -0.0040   -0.0194   -0.0387    0.0078
          50    0.0067    0.0334   -0.1515    0.0377   -0.0097   -0.0582   -0.1177    0.0226
          51   -0.0089   -0.0443    0.2010   -0.0501    0.0115    0.0864    0.1779   -0.0364
          52   -0.0000    0.0270   -0.0021   -0.0364    0.0055   -0.0248    0.0140   -0.0307
          53    0.0000   -0.1367    0.0096    0.1838   -0.0279    0.1344   -0.0778    0.1614
          54    0.0001    0.0089   -0.0004   -0.0111    0.0008   -0.0005   -0.0013   -0.0006
          55   -0.0005   -0.0218    0.0014    0.0288   -0.0009   -0.0095    0.0125   -0.0123
          56   -0.0014   -0.0590    0.0019    0.0711   -0.0003   -0.0349    0.0401   -0.0443
          57   -0.0038   -0.1594    0.0058    0.1934   -0.0041   -0.0731    0.0946   -0.0944


   Root No.      49        50        51

                49 A      50 A      51 A   

                2769.2    2773.3    2781.1
  
           1   -0.0013    0.0008   -0.0001
           2   -0.0072    0.0090    0.0001
           3   -0.0042    0.0015    0.0015
           4   -0.0014   -0.0010    0.0003
           5    0.0008    0.0039   -0.0006
           6   -0.0070   -0.0090    0.0010
           7    0.0032   -0.0024   -0.0012
           8   -0.0077    0.0057    0.0020
           9   -0.0134    0.0093    0.0054
          10   -0.0007   -0.0005   -0.0008
          11   -0.0011    0.0008    0.0066
          12   -0.0051    0.0038    0.0040
          13   -0.0013   -0.0011    0.0007
          14   -0.0070   -0.0077    0.0015
          15   -0.0029   -0.0020    0.0001
          16   -0.0006    0.0000   -0.0037
          17    0.0021   -0.0006    0.0183
          18   -0.0011    0.0006    0.0011
          19   -0.0459    0.0323    0.0165
          20    0.0935   -0.0657   -0.0325
          21    0.1772   -0.1241   -0.0637
          22    0.0065   -0.0040   -0.0058
          23    0.0225   -0.0164   -0.0253
          24    0.0526   -0.0380   -0.0523
          25   -0.0077    0.0023   -0.0770
          26   -0.0100    0.0027   -0.1144
          27   -0.0211    0.0063   -0.2163
          28    0.0333   -0.0097    0.2341
          29   -0.0039    0.0010   -0.0264
          30    0.0017   -0.0004    0.0136
          31   -0.0162    0.0059   -0.1000
          32   -0.0204    0.0079   -0.1247
          33    0.0304   -0.0113    0.1908
          34    0.0125   -0.0121   -0.0009
[...]
     291      13.59843     38.68852         52.28695   8.65908    36   %  3.9599
     301      13.54860     39.26102         52.80962   9.18175    37   %  4.0163
     311      13.50069     39.83093         53.33162   9.70375    38   %  4.0711
     321      13.45793     40.40216         53.86009  10.23222    39   %  4.1245
     330      13.41480     40.91492         54.32971  10.70184    40   %  4.1739
     340      13.37455     41.48477         54.85932  11.23145    41   %  4.2256
     350      13.33689     42.05464         55.39153  11.76366    42   %  4.2763
     360      13.30045     42.63140         55.93185  12.30398    43   %  4.3257
     370      13.26637     43.20302         56.46939  12.84152    44   %  4.3744
     380      13.23336     43.77460         57.00795  13.38008    45   %  4.4220
     390      13.20170     44.34218         57.54388  13.91601    46   %  4.4688
     400      13.17135     44.91366         58.08501  14.45714    47   %  4.5149
     410      13.14300     45.48316         58.62616  14.99829    48   %  4.5602
     420      13.11509     46.05441         59.16950  15.54163    49   %  4.6048
     430      13.09204     46.64610         59.73814  16.11027    50   %  4.6493
     440      13.06618     47.20557         60.27175  16.64388    51   %  4.6919
     450      13.03897     47.75616         60.79513  17.16726    52   %  4.7334
     460      13.01553     48.32293         61.33846  17.71059    53   %  4.7750
     470      12.99194     48.88548         61.87742  18.24955    54   %  4.8159
     479      12.97959     49.39705         62.37664  18.74877    55   %  4.8514
     489      12.95826     49.96321         62.92148  19.29361    56   %  4.8915
     499      12.93848     50.53540         63.47388  19.84601    57   %  4.9312
     509      12.91880     51.10802         64.02681  20.39894    58   %  4.9706
     519      12.89994     51.68459         64.58453  20.95666    59   %  5.0098
     529      12.88185     52.27310         65.15495  21.52708    60   %  5.0487
     539      12.86386     52.85781         65.72167  22.09380    61   %  5.0874
     549      12.84572     53.45123         66.29695  22.66908    62   %  5.1259
     559      12.82780     54.03867         66.86646  23.23859    63   %  5.1638
     569      12.81173     54.62960         67.44133  23.81346    64   %  5.2014
     578      12.77944     55.16961         67.94905  24.32118    65   %  5.2355
     588      12.76279     55.76965         68.53244  24.90457    66   %  5.2728
     598      12.74688     56.36191         69.10879  25.48092    67   %  5.3092
     608      12.73127     56.94833         69.67960  26.05173    68   %  5.3449
     618      12.71597     57.53610         70.25208  26.62421    69   %  5.3802
     628      12.70111     58.12794         70.82905  27.20118    70   %  5.4154
     638      12.68648     58.72607         71.41255  27.78468    71   %  5.4502
     648      12.67256     59.32003         71.99259  28.36472    72   %  5.4846
     658      12.65874     59.90781         72.56655  28.93868    73   %  5.5183
     668      12.64498     60.51230         73.15728  29.52941    74   %  5.5522
     678      12.63165     61.12102         73.75267  30.12480    75   %  5.5858
     687      12.64079     61.68551         74.32630  30.69843    76   %  5.6163
     697      12.62721     62.29841         74.92561  31.29774    77   %  5.6500
     707      12.61611     62.92742         75.54353  31.91566    78   %  5.6832
     717      12.60547     63.56482         76.17029  32.54242    79   %  5.7165
     727      12.59639     64.22331         76.81970  33.19183    80   %  5.7503
     737      12.58449     64.89183         77.47632  33.84845    81   %  5.7841
     747      12.57114     65.55342         78.12456  34.49669    82   %  5.8175
     757      12.56132     66.22201         78.78333  35.15546    83   %  5.8505
     766      12.52357     66.82754         79.35111  35.72324    84   %  5.8798
     776      12.51219     67.49952         80.01170  36.38383    85   %  5.9126
     786      12.50155     68.18253         80.68408  37.05621    86   %  5.9449
     796      12.49053     68.88128         81.37181  37.74394    87   %  5.9777
     806      12.47985     69.58790         82.06775  38.43988    88   %  6.0100
     816      12.46945     70.30101         82.77046  39.14259    89   %  6.0423
     826      12.45928     71.02550         83.48478  39.85691    90   %  6.0744
     835      12.48673     71.71616         84.20289  40.57502    91   %  6.1044
     845      12.47899     72.50172         84.98071  41.35284    92   %  6.1376
     855      12.46928     73.31798         85.78726  42.15939    93   %  6.1711
     864      12.42208     74.03506         86.45714  42.82927    94   %  6.1999
     874      12.41226     74.86679         87.27906  43.65119    95   %  6.2332
     884      12.40386     75.72545         88.12931  44.50144    96   %  6.2665
     893      12.44471     76.61926         89.06397  45.43610    97   %  6.2993
     903      12.43791     77.64091         90.07882  46.45095    98   %  6.3352
     912      12.38186     78.63325         91.01511  47.38724    99   %  6.3671
     921      12.43372     79.85448         92.28820  48.66033   100   %  6.4044
     930      12.36709     81.10589         93.47298  49.84511   101   %  6.4396
     939      12.43124     82.58413         95.01538  51.38751   102   %  6.4792
     947      12.43233     84.09160         96.52393  52.89606   103   %  6.5149
     956      12.35207     84.89138         97.24345  53.61558   104   %  6.5444
     965      12.31567     85.52691         97.84258  54.21471   105   %  6.5685
     974      12.34808     86.23245         98.58053  54.95266   106   %  6.5931
     983      12.30424     86.94926         99.25350  55.62563   107   %  6.6182
     992      12.34561     87.78107        100.12668  56.49881   108   %  6.6451
    1001      12.29562     88.63918        100.93480  57.30693   109   %  6.6717
    1011      12.28955     89.73895        102.02850  58.40063   110   %  6.7040
    1020      12.34634     90.90080        103.24715  59.61928   111   %  6.7354
    1029      12.28461     92.17022        104.45483  60.82696   112   %  6.7661
    1037      12.28418     93.64369        105.92788  62.30001   113   %  6.7975
    1046      12.24899     94.93331        107.18229  63.55442   114   %  6.8313
    1054      12.24533     95.51865        107.76399  64.13612   115   %  6.8496
    1063      12.28226     96.25191        108.53417  64.90630   116   %  6.8719
    1072      12.23827     97.03713        109.27541  65.64754   117   %  6.8953
    1082      12.23349     98.02707        110.26056  66.63269   118   %  6.9229
    1091      12.28802     99.05722        111.34525  67.71738   119   %  6.9498
    1100      12.23068    100.18372        112.41440  68.78653   120   %  6.9763
    1109      12.29507    101.59277        113.88784  70.25997   121   %  7.0070
    1117      12.22657    102.79342        115.02000  71.39213   122   %  7.0353
    1126      12.23286    103.36939        115.60225  71.97438   123   %  7.0523
    1135      12.19501    104.05401        116.24902  72.62115   124   %  7.0721
    1145      12.19124    104.87734        117.06858  73.44071   125   %  7.0950
    1154      12.23360    105.71227        117.94587  74.31800   126   %  7.1171
    1163      12.18380    106.53458        118.71837  75.09050   127   %  7.1384
    1173      12.18082    107.53448        119.71530  76.08743   128   %  7.1632
    1182      12.23792    108.62670        120.86461  77.23674   129   %  7.1879


 IRC CALCULATION COMPLETE 
           INITIAL VELOCITY IN DRC (Angstroms/Femtosecond)
        -0.12255         0.02224         0.00114
         0.12091         0.01210        -0.01984
        -0.00016        -0.03396         0.01923
         0.11765         0.01253        -0.02108
        -0.11902         0.02402         0.00164
         0.00421        -0.00175         0.00031
         0.00393         0.01602        -0.00526
        -0.07205        -0.00116         0.00235
        -0.00672         0.00171         0.00179
         0.00373        -0.03920         0.00363
        -0.01389         0.01760         0.00239
         0.06999         0.00149        -0.00621
         0.00878        -0.01132         0.00161
        -0.00089        -0.03439         0.01891
        -0.00048         0.01451        -0.00716
         0.07019         0.00208        -0.00809
         0.01099        -0.01019         0.00248
        -0.00582        -0.00728         0.00691
        -0.07053         0.00626         0.00195

 GEOMETRY PRIORITY, STEP = 0.2000 ANGSTROMS



     POINT   POTENTIAL  +  ENERGY LOST   =   TOTAL      ERROR    REF%   MOVEMENT
       1      43.68011      0.00000         43.68011   0.00000     1   %  0.0000
       7      43.05158      0.63871         43.69028   0.05688     2   %  0.1484
      14      41.31616      2.34804         43.66420   0.03080     3   %  0.2963
      22      37.38297      6.21114         43.59411  -0.03929     4   %  0.5164
      29      33.21674     10.35511         43.57185  -0.06155     5   %  0.7137
      36      29.32135     14.23745         43.55880  -0.07460     6   %  0.8973
      43      25.47842     18.06845         43.54686  -0.08654     7   %  1.0980
      51      22.56653     20.97168         43.53821  -0.09520     8   %  1.2830
      59      20.39602     23.13434         43.53037  -0.10304     9   %  1.4569
      66      18.76932     24.75847         43.52780  -0.10561    10   %  1.6136
      75      17.47292     26.05168         43.52460  -0.10881    11   %  1.7524
      82      16.41944     27.10318         43.52262  -0.11079    12   %  1.8790
      89      15.57510     27.94554         43.52063  -0.11277    13   %  2.0016
      96      14.94649     28.62885         43.57534  -0.05807    14   %  2.1170
     103      14.50150     29.24222         43.74372   0.11032    15   %  2.2167
     110      14.12976     29.82840         43.95816   0.32475    16   %  2.3116
     118      13.80672     30.39326         44.19999   0.56658    17   %  2.4089
     126      13.52415     30.94275         44.46690   0.83349    18   %  2.5032
     133      13.27498     31.48029         44.75527   1.12186    19   %  2.5928
     141      13.06331     31.98019         45.04350   1.41010    20   %  2.6743
     149      12.85609     32.51706         45.37315   1.73975    21   %  2.7611
     156      12.67341     33.02890         45.70231   2.06890    22   %  2.8430
     164      12.50697     33.53686         46.04383   2.41042    23   %  2.9221
     172      12.35290     34.04090         46.39380   2.76040    24   %  2.9993
     180      12.21016     34.54346         46.75362   3.12022    25   %  3.0748
     188      12.07681     35.04306         47.11988   3.48647    26   %  3.1489
     196      11.95263     35.54505         47.49768   3.86427    27   %  3.2212
     205      11.83535     36.04830         47.88366   4.25025    28   %  3.2926
     213      11.72577     36.55192         48.27769   4.64429    29   %  3.3630
     221      11.62134     37.05805         48.67940   5.04599    30   %  3.4321
     230      11.52008     37.56555         49.08562   5.45222    31   %  3.5000
     239      11.42533     38.07493         49.50026   5.86686    32   %  3.5674
     247      11.33742     38.58931         49.92674   6.29333    33   %  3.6340
     256      11.25671     39.07901         50.33572   6.70232    34   %  3.6961
     265      11.16808     39.61015         50.77823   7.14482    35   %  3.7619
     274      11.09229     40.13751         51.22980   7.59640    36   %  3.8277
     283      11.01050     40.66558         51.67608   8.04267    37   %  3.8913
     292      10.94264     41.19971         52.14234   8.50894    38   %  3.9552
     301      10.86666     41.72644         52.59310   8.95970    39   %  4.0167
     310      10.80579     42.25419         53.05998   9.42658    40   %  4.0784
     319      10.73563     42.77442         53.51005   9.87664    41   %  4.1379
     328      10.68076     43.31078         53.99154  10.35814    42   %  4.1978
     338      10.61554     43.89966         54.51520  10.88179    43   %  4.2627
     347      10.55132     44.42368         54.97499  11.34159    44   %  4.3195
     357      10.49009     45.01213         55.50222  11.86882    45   %  4.3828
     366      10.44711     45.54662         55.99373  12.36033    46   %  4.4400
     376      10.39116     46.14255         56.53371  12.90031    47   %  4.5021
     385      10.33059     46.67274         57.00333  13.36992    48   %  4.5562
     395      10.27758     47.26764         57.54523  13.91182    49   %  4.6170
     405      10.22719     47.85431         58.08150  14.44810    50   %  4.6768
     415      10.17881     48.44100         58.61981  14.98641    51   %  4.7354
     424      10.14756     48.97668         59.12425  15.49084    52   %  4.7881
     434      10.10356     49.56601         59.66957  16.03617    53   %  4.8455
     444      10.05959     50.15952         60.21911  16.58570    54   %  4.9025
     454      10.01693     50.74767         60.76460  17.13120    55   %  4.9588
     464       9.97657     51.34303         61.31960  17.68620    56   %  5.0143
     473       9.92601     51.88425         61.81025  18.17685    57   %  5.0629
     483       9.88686     52.48765         62.37451  18.74110    58   %  5.1180
     493       9.84915     53.09202         62.94117  19.30777    59   %  5.1722
     503       9.81267     53.69903         63.51169  19.87829    60   %  5.2257
     513       9.77747     54.30139         64.07886  20.44545    61   %  5.2784
     523       9.74318     54.91146         64.65464  21.02123    62   %  5.3307
     533       9.71046     55.51181         65.22228  21.58887    63   %  5.3822
     543       9.67878     56.10776         65.78653  22.15313    64   %  5.4326
     552       9.66681     56.65028         66.31708  22.68368    65   %  5.4787
     562       9.63807     57.25815         66.89622  23.26282    66   %  5.5284
     572       9.61089     57.87728         67.48818  23.85477    67   %  5.5782
     582       9.58203     58.49846         68.08048  24.44708    68   %  5.6280
     592       9.55387     59.12437         68.67824  25.04484    69   %  5.6773
     602       9.52844     59.75714         69.28557  25.65217    70   %  5.7262
     611       9.48234     60.32401         69.80634  26.17294    71   %  5.7679
     621       9.45615     60.96848         70.42463  26.79123    72   %  5.8161
     631       9.43061     61.61542         71.04603  27.41263    73   %  5.8640
     640       9.43200     62.20732         71.63932  28.00591    74   %  5.9086
     650       9.40933     62.86117         72.27050  28.63709    75   %  5.9557
     659       9.36300     63.45144         72.81444  29.18103    76   %  5.9956
     669       9.33965     64.15119         73.49084  29.85744    77   %  6.0432
     678       9.35030     64.82836         74.17866  30.54525    78   %  6.0901
     687       9.29721     65.46883         74.76604  31.13263    79   %  6.1303
     696       9.30606     66.10949         75.41555  31.78214    80   %  6.1751
     705       9.25795     66.71601         75.97396  32.34056    81   %  6.2129
     714       9.26783     67.33362         76.60145  32.96805    82   %  6.2556
     723       9.22207     67.95105         77.17312  33.53971    83   %  6.2923
     732       9.23400     68.59848         77.83247  34.19907    84   %  6.3358
     740       9.22100     69.18269         78.40368  34.77028    85   %  6.3715
     749       9.17156     69.82498         78.99655  35.36314    86   %  6.4076
     758       9.19064     70.52093         79.71157  36.07817    87   %  6.4516
     766       9.17735     71.15260         80.32995  36.69655    88   %  6.4878
     774       9.16327     71.80825         80.97152  37.33812    89   %  6.5244
     783       9.10867     72.50140         81.61007  37.97666    90   %  6.5593
     791       9.09589     73.15325         82.24914  38.61574    91   %  6.5941
     799       9.08243     73.82808         82.91051  39.27711    92   %  6.6293
     807       9.06892     74.54921         83.61813  39.98473    93   %  6.6654
     816       9.09735     75.37765         84.47500  40.84160    94   %  6.7108
     824       9.08553     76.11291         85.19844  41.56503    95   %  6.7458
     832       9.07743     76.88795         85.96538  42.33197    96   %  6.7815
     841       9.01463     77.79998         86.81461  43.18120    97   %  6.8157
     850       9.05444     78.82922         87.88366  44.25025    98   %  6.8636
     859       8.98757     79.84884         88.83641  45.20301    99   %  6.8976
     869       8.97149     80.96855         89.94004  46.30664   100   %  6.9412
     879       8.95761     82.12238         91.07999  47.44659   101   %  6.9846
     890       9.00122     83.49822         92.49944  48.86603   102   %  7.0399
     900       8.99192     84.88443         93.87636  50.24295   103   %  7.0849
     911       8.91413     86.29005         95.20418  51.57078   104   %  7.1253
     922       8.97700     88.10148         97.07848  53.44508   105   %  7.1837
     933       8.89536     90.03321         98.92857  55.29517   106   %  7.2287
     944       8.95663     92.33648        101.29311  57.65971   107   %  7.2902
     955       8.86582     94.44605        103.31187  59.67846   108   %  7.3349
     967       8.84767     96.88052        105.72819  62.09479   109   %  7.3914
     978       8.80381     98.12219        106.92600  63.29259   110   %  7.4282
     990       8.79373     98.95792        107.75165  64.11825   111   %  7.4624
    1000       8.78605     99.68018        108.46623  64.83283   112   %  7.4911
    1011       8.81381    100.53081        109.34463  65.71122   113   %  7.5286
    1021       8.81105    101.34274        110.15380  66.52039   114   %  7.5584
    1032       8.76426    102.32940        111.09367  67.46026   115   %  7.5870
    1043       8.81182    103.53132        112.34314  68.70974   116   %  7.6290
    1053       8.80989    104.69953        113.50943  69.87602   117   %  7.6627
    1065       8.80724    106.30673        115.11396  71.48056   118   %  7.7051
    1076       8.74110    107.98040        116.72150  73.08809   119   %  7.7398
    1088       8.73743    109.47534        118.21277  74.57936   120   %  7.7817
    1099       8.70127    110.26601        118.96728  75.33388   121   %  7.8053
    1110       8.73517    111.15450        119.88967  76.25627   122   %  7.8391
    1120       8.73800    112.04768        120.78569  77.15228   123   %  7.8667
    1131       8.68822    113.15214        121.84036  78.20695   124   %  7.8936
    1142       8.74420    114.54916        123.29336  79.65996   125   %  7.9331
    1154       8.75760    116.39860        125.15620  81.52280   126   %  7.9734
    1166       8.65306    118.50701        127.16007  83.52667   127   %  8.0070
    1177       8.68321    119.28235        127.96557  84.33216   128   %  8.0384
    1189       8.68498    120.28967        128.97465  85.34124   129   %  8.0680
    1200       8.64005    121.34280        129.98285  86.34945   130   %  8.0924
    1211       8.70075    122.73501        131.43576  87.80235   131   %  8.1287
    1222       8.64406    124.43353        133.07759  89.44419   132   %  8.1584


 IRC CALCULATION COMPLETE 

 **********************
 *                    *
 * JOB ENDED NORMALLY *
 *                    *
 **********************



 TOTAL JOB TIME:            11.28 SECONDS

 == MOPAC DONE ==
