 *******************************************************************************
 ** Site#: 29054        For non-commercial use only    Version 18.027W 64BITS **
 *******************************************************************************
 ** Cite this program as: MOPAC2016, Version: 18.027W, James J. P. Stewart,   **
 ** Stewart Computational Chemistry, web: HTTP://OpenMOPAC.net. Days left: 365**
 *******************************************************************************
 **                                                                           **
 **                                MOPAC2016                                  **
 **                                                                           **
 *******************************************************************************

                              PM7 CALCULATION RESULTS


 *******************************************************************************
 *  CALCULATION DONE:                                Sat Jan 27 22:17:26 2018  *
 *  SYMMETRY   - SYMMETRY CONDITIONS TO BE IMPOSED
 *  PRECISE    - CRITERIA TO BE INCREASED BY 100 TIMES
 *  T=         - A TIME OF 172800.0 SECONDS REQUESTED
 *  DUMP=N     - RESTART FILE WRITTEN EVERY  7200.000 SECONDS
 *******************************************************************************



                    PARAMETER DEPENDENCE DATA

        REFERENCE ATOM      FUNCTION NO.    DEPENDENT ATOM(S)
            3                  1               4    5    6
            3                  2               4    5    6

             DESCRIPTIONS OF THE FUNCTIONS USED
   1      BOND LENGTH    IS SET EQUAL TO THE REFERENCE BOND LENGTH   
   2      BOND ANGLE     IS SET EQUAL TO THE REFERENCE BOND ANGLE    
 
 symmetry precise
 Optimize the PF5 Berry pseudorotation transition state

  ATOM    CHEMICAL      BOND LENGTH      BOND ANGLE     TWIST ANGLE 
 NUMBER    SYMBOL       (ANGSTROMS)      (DEGREES)       (DEGREES) 
   (I)                     NA:I           NB:NA:I       NC:NB:NA:I       NA    NB    NC 
     1       P          0.00000000       0.0000000       0.0000000        0     0     0
     2       F          2.00000000  *    0.0000000       0.0000000        0     0     0
     3       F          1.60000000  *   60.0000000  *    0.0000000        1     2     0
     4       F          1.60000000      60.0000000      90.0000000        1     2     3
     5       F          1.60000000      60.0000000     180.0000000        1     2     3
     6       F          1.60000000      60.0000000     -90.0000000        1     2     3
 


          CARTESIAN COORDINATES 

    NO.       ATOM           X           Y           Z

     1         P          0.0000      0.0000      0.0000
     2         F          2.0000      0.0000      0.0000
     3         F          0.8000      1.3856      0.0000
     4         F          0.8000      0.0000     -1.3856
     5         F          0.8000     -1.3856     -0.0000
     6         F          0.8000      0.0000      1.3856

 General Reference for PM7:
 "Optimization of Parameters for Semiempirical Methods VI: More Modifications to the 
 NDDO Approximations and Re-optimization of Parameters", J. J. P. Stewart, J. Mol. Mod., 1:32, 19 (2013)
 http://www.springerlink.com/openurl.asp?genre=article&id=doi:10.1007/s00894-012-1667-x

           Empirical Formula: P F5  =     6 atoms



      MOLECULAR POINT GROUP   :   C4v 


      RHF CALCULATION, NO. OF DOUBLY OCCUPIED LEVELS = 20


          Geometry optimization using EF

          DIAGONAL MATRIX USED AS START HESSIAN

 CYCLE:     1 TIME:   0.031 TIME LEFT:  2.00D  GRAD.:   503.613 HEAT: -193.8171
 CYCLE:     2 TIME:   0.016 TIME LEFT:  2.00D  GRAD.:   249.536 HEAT: -237.7126
 CYCLE:     3 TIME:   0.000 TIME LEFT:  2.00D  GRAD.:   211.657 HEAT: -282.3129
 CYCLE:     4 TIME:   0.016 TIME LEFT:  2.00D  GRAD.:   442.026 HEAT: -309.4233
 CYCLE:     5 TIME:   0.000 TIME LEFT:  2.00D  GRAD.:   251.688 HEAT: -335.9598
 CYCLE:     6 TIME:   0.000 TIME LEFT:  2.00D  GRAD.:    28.864 HEAT: -367.5056
 CYCLE:     7 TIME:   0.000 TIME LEFT:  2.00D  GRAD.:    20.260 HEAT: -367.7960
 CYCLE:     8 TIME:   0.016 TIME LEFT:  2.00D  GRAD.:     8.580 HEAT: -367.9751
 CYCLE:     9 TIME:   0.000 TIME LEFT:  2.00D  GRAD.:     4.112 HEAT: -367.9876
 CYCLE:    10 TIME:   0.000 TIME LEFT:  2.00D  GRAD.:     1.897 HEAT: -367.9906
 CYCLE:    11 TIME:   0.016 TIME LEFT:  2.00D  GRAD.:     0.209 HEAT: -367.9911
 CYCLE:    12 TIME:   0.000 TIME LEFT:  2.00D  GRAD.:     0.054 HEAT: -367.9911
 CYCLE:    13 TIME:   0.000 TIME LEFT:  2.00D  GRAD.:     0.011 HEAT: -367.9911

     GRADIENT =  0.01077  IS LESS THAN CUTOFF =  0.05000



 -------------------------------------------------------------------------------
 symmetry precise
 Optimize the PF5 Berry pseudorotation transition state



     GEOMETRY OPTIMISED USING EIGENVECTOR FOLLOWING (EF).     
     SCF FIELD WAS ACHIEVED                                   


                              PM7 CALCULATION
                                                       MOPAC2016 (Version: 18.027W)
                                                       Sat Jan 27 22:17:26 2018
                                                       No. of days remaining = 365




          FINAL HEAT OF FORMATION =       -367.99114 KCAL/MOL =   -1539.67492 KJ/MOL


          TOTAL ENERGY            =      -2509.34532 EV
          ELECTRONIC ENERGY       =      -6058.77018 EV  POINT GROUP:     C4v 
          CORE-CORE REPULSION     =       3549.42487 EV
          COSMO AREA              =        102.46 SQUARE ANGSTROMS
          COSMO VOLUME            =         87.53 CUBIC ANGSTROMS

          GRADIENT NORM           =          0.01077
          IONIZATION POTENTIAL    =         11.514098 EV
          HOMO LUMO ENERGIES (EV) =        -11.514 -1.102
          NO. OF FILLED LEVELS    =         20
          MOLECULAR WEIGHT        =        125.9658

          MOLECULAR DIMENSIONS (Angstroms)

            Atom       Atom       Distance
            F     5    F     3     3.01530
            F     4    F     6     3.01530
            F     3    F     2     1.88196


          SCF CALCULATIONS        =         14
 
          WALL-CLOCK TIME         =          0.125 SECONDS
          COMPUTATION TIME        =          0.406 SECONDS




  ATOM    CHEMICAL      BOND LENGTH      BOND ANGLE     TWIST ANGLE 
 NUMBER    SYMBOL       (ANGSTROMS)      (DEGREES)       (DEGREES) 
   (I)                     NA:I           NB:NA:I       NC:NB:NA:I       NA    NB    NC 
     1       P          0.00000000       0.0000000       0.0000000        0     0     0
     2       F          1.52938274  *    0.0000000       0.0000000        0     0     0
     3       F          1.54832944  *  103.1627449  *    0.0000000        1     2     0
     4       F          1.54832944     103.1627449      90.0000000        1     2     3
     5       F          1.54832944     103.1627449     180.0000000        1     2     3
     6       F          1.54832944     103.1627449     -90.0000000        1     2     3

                             CARTESIAN COORDINATES

   1    P        0.000000000     0.000000000     0.000000000
   2    F        1.529382737     0.000000000     0.000000000
   3    F       -0.352582140     1.507650452     0.000000000
   4    F       -0.352582140     0.000000000    -1.507650452
   5    F       -0.352582140    -1.507650452    -0.000000000
   6    F       -0.352582140     0.000000000     1.507650452


           Empirical Formula: P F5  =     6 atoms



      MOLECULAR POINT GROUP   :   C4v 


                  EIGENVALUES  
 -48.40965 -42.16794 -41.13224 -41.13224 -40.80323 -35.37708 -18.02078 -18.02078
 -17.74408 -16.74931 -16.09987 -16.09987 -15.05961 -15.05961 -14.86807 -14.56806
 -13.44782 -13.44782 -13.32249 -11.51410  -1.10181   0.43649   1.66696   1.66696
 103.75171 103.75171 103.98857 104.07609 104.69053


              NET ATOMIC CHARGES AND DIPOLE CONTRIBUTIONS

  ATOM NO.   TYPE          CHARGE      No. of ELECS.   s-Pop       p-Pop       d-Pop       
    1          P           0.664555        4.3354     1.73608     2.46192     0.13745
    2          F          -0.068450        7.0684     1.94988     5.11857
    3          F          -0.149026        7.1490     1.95186     5.19716
    4          F          -0.149026        7.1490     1.95186     5.19716
    5          F          -0.149026        7.1490     1.95186     5.19716
    6          F          -0.149026        7.1490     1.95186     5.19716
 DIPOLE           X         Y         Z       TOTAL
 POINT-CHG.     0.507    -0.000     0.000     0.507
 HYBRID        -0.071     0.000    -0.000     0.071
 SUM            0.436    -0.000     0.000     0.436


          ATOMIC ORBITAL ELECTRON POPULATIONS

     Atom    s        px        py        pz      x^2-y^2     xz        z^2       yz        xy
    1  P   1.73608   0.79605   0.83293   0.83293   0.02934   0.02327   0.03519   0.02638   0.02327
    2  F   1.94988   1.20858   1.95500   1.95500
    3  F   1.95186   1.91634   1.32083   1.95999
    4  F   1.95186   1.91634   1.95999   1.32083
    5  F   1.95186   1.91634   1.32083   1.95999
    6  F   1.95186   1.91634   1.95999   1.32083
 *******************************************************************************
 ** Site#: 29054        For non-commercial use only    Version 18.027W 64BITS **
 *******************************************************************************
 ** Cite this program as: MOPAC2016, Version: 18.027W, James J. P. Stewart,   **
 ** Stewart Computational Chemistry, web: HTTP://OpenMOPAC.net. Days left: 365**
 *******************************************************************************
 **                                                                           **
 **                                MOPAC2016                                  **
 **                                                                           **
 *******************************************************************************

                              PM7 CALCULATION RESULTS


 *******************************************************************************
 *  CALCULATION DONE:                                Sat Jan 27 22:17:26 2018  *
 *  OPT        - OPTIMIZE COORDINATES OF ALL ATOMS
 *  OLDGEO     - PREVIOUS GEOMETRY TO BE USED
 *  FORCE      - FORCE CALCULATION SPECIFIED
 *  T=         - A TIME OF 172800.0 SECONDS REQUESTED
 *  DUMP=N     - RESTART FILE WRITTEN EVERY  7200.000 SECONDS
 *  ISOTOPE    - FORCE MATRIX WRITTEN TO DISK (CHAN. 9 )
 *******************************************************************************
oldgeo force isotope opt
 Verify that the C4v geometry of the PF5 transition state is a true transition state

  ATOM    CHEMICAL      BOND LENGTH      BOND ANGLE     TWIST ANGLE 
 NUMBER    SYMBOL       (ANGSTROMS)      (DEGREES)       (DEGREES) 
   (I)                     NA:I           NB:NA:I       NC:NB:NA:I       NA    NB    NC 
     1       P          0.00000000  *    0.0000000  *    0.0000000  *     0     0     0
     2       F          1.52938274  *    0.0000000  *    0.0000000  *     0     0     0
     3       F          1.54832944  *  103.1627449  *    0.0000000  *     1     2     0
     4       F          1.54832944  *  103.1627449  *   90.0000000  *     1     2     3
     5       F          1.54832944  *  103.1627449  *  180.0000000  *     1     2     3
     6       F          1.54832944  *  103.1627449  *  -90.0000000  *     1     2     3
 


          CARTESIAN COORDINATES 

    NO.       ATOM           X           Y           Z

     1         P          0.0000      0.0000      0.0000
     2         F          1.5294      0.0000      0.0000
     3         F         -0.3526      1.5077      0.0000
     4         F         -0.3526      0.0000     -1.5077
     5         F         -0.3526     -1.5077     -0.0000
     6         F         -0.3526      0.0000      1.5077

 General Reference for PM7:
 "Optimization of Parameters for Semiempirical Methods VI: More Modifications to the 
 NDDO Approximations and Re-optimization of Parameters", J. J. P. Stewart, J. Mol. Mod., 1:32, 19 (2013)
 http://www.springerlink.com/openurl.asp?genre=article&id=doi:10.1007/s00894-012-1667-x

           Empirical Formula: P F5  =     6 atoms



      MOLECULAR POINT GROUP   :   C4v 


      RHF CALCULATION, NO. OF DOUBLY OCCUPIED LEVELS = 20



          HEAT OF FORMATION =    -367.991139 KCALS/MOLE


          CARTESIAN COORDINATE DERIVATIVES

   NUMBER  ATOM         X            Y            Z

     1       P     -0.009835    -0.000000    -0.000000
     2       F     -0.001916    -0.000000    -0.000000
     3       F      0.002937     0.000475     0.000237
     4       F      0.002937     0.000237    -0.000477
     5       F      0.002937    -0.000477    -0.000237
     6       F      0.002937    -0.000237     0.000475
 


          GRADIENT NORM =   0.01166

          MOLECULAR WEIGHT =  125.97



          ROTATIONAL CONSTANTS IN CM(-1)

          A =    0.12023041   B =    0.12023041   C =    0.09759290



           PRINCIPAL MOMENTS OF INERTIA IN UNITS OF 10**(-40)*GRAM-CM**2

          A =      232.8261   B =      232.8261   C =      286.8321


          ORIENTATION OF MOLECULE IN FORCE CALCULATION

    NO.       ATOM         X         Y         Z

     1          P      -0.0180   -0.0000    0.0000
     2          F       1.5114   -0.0000    0.0000
     3          F      -0.3705    1.5077    0.0000
     4          F      -0.3705    0.0000   -1.5077
     5          F      -0.3705   -1.5077   -0.0000
     6          F      -0.3705    0.0000    1.5077


    FIRST DERIVATIVES WILL BE USED IN THE CALCULATION OF SECOND DERIVATIVES

    FOR POINT-GROUP C4v  THERE ARE   8 UNIQUE SYMMETRY FUNCTIONS.

 STEP:   1 TIME =     0.00 SECS, INTEGRAL =      0.00 TIME LEFT: 172800.00
 STEP:   2 TIME =     0.02 SECS, INTEGRAL =      0.02 TIME LEFT: 172799.98
 STEP:   3 TIME =     0.02 SECS, INTEGRAL =      0.03 TIME LEFT: 172799.97
 STEP:   4 TIME =     0.02 SECS, INTEGRAL =      0.05 TIME LEFT: 172799.95
 STEP:   5 TIME =     0.02 SECS, INTEGRAL =      0.06 TIME LEFT: 172799.94
 STEP:   6 TIME =     0.00 SECS, INTEGRAL =      0.06 TIME LEFT: 172799.94
 STEP:   7 TIME =     0.02 SECS, INTEGRAL =      0.08 TIME LEFT: 172799.92
 STEP:   8 TIME =     0.02 SECS, INTEGRAL =      0.09 TIME LEFT: 172799.91
 STEP:   9 TIME =     0.00 SECS, INTEGRAL =      0.09 TIME LEFT: 172799.91
 STEP:  10                       INTEGRAL =      0.09 TIME LEFT: 172799.91
 STEP:  11                       INTEGRAL =      0.09 TIME LEFT: 172799.91
 STEP:  12                       INTEGRAL =      0.09 TIME LEFT: 172799.91
 STEP:  13                       INTEGRAL =      0.09 TIME LEFT: 172799.91
 STEP:  14                       INTEGRAL =      0.09 TIME LEFT: 172799.91
 STEP:  15                       INTEGRAL =      0.09 TIME LEFT: 172799.91
 STEP:  16                       INTEGRAL =      0.09 TIME LEFT: 172799.91
 STEP:  17                       INTEGRAL =      0.09 TIME LEFT: 172799.91
 STEP:  18                       INTEGRAL =      0.09 TIME LEFT: 172799.91

(To convert to Hartree/Bohr^2, multiply by (10^(-21) x N x a0^2)/(4.184 x 627.51) =  0.0642)


           FORCE MATRIX IN MILLIDYNES/ANGSTROM


                  P  1       F  2       F  3       F  4       F  5       F  6
 ------------------------------------------------------------------------------
     P    1  17.962497
     F    2   6.097361   6.654997
     F    3   5.355368   0.301097   6.115660
     F    4   5.356093   0.301318   0.811861   6.115660
     F    5   5.356226   0.301195   0.194485   0.811793   6.115660
     F    6   5.356070   0.301331   0.811793   0.194485   0.811861   6.115660


          HEAT OF FORMATION =    -367.991139 KCALS/MOLE

          ZERO POINT ENERGY       9.431 KCAL/MOL

         NOTE: SYSTEM IS NOT A GROUND STATE, THEREFORE ZERO POINT
         ENERGY IS NOT MEANINGFULL. ZERO POINT ENERGY PRINTED
         DOES NOT INCLUDE THE  1 IMAGINARY FREQUENCIES


           NORMAL COORDINATE ANALYSIS (Total motion = 1 Angstrom)


   Root No.       1         2         3         4         5         6         7         8

                 1 B2      1 E       1 E       1 A1      2 E       2 E       1 B1      2 B2  

                -103.7     252.0     252.0     359.1     393.1     393.1     412.8     683.8
  
           1   -0.0000   -0.0000    0.0000    0.1938    0.0000   -0.0000   -0.0000    0.0000
           2   -0.0000   -0.0459    0.0001   -0.0000    0.1053   -0.1180   -0.0000   -0.0000
           3   -0.0000   -0.0001   -0.0459    0.0000   -0.1180   -0.1053    0.0000   -0.0000
           4   -0.0000   -0.0000    0.0000    0.2087    0.0000   -0.0000   -0.0000    0.0000
           5    0.0000    0.3260   -0.0009    0.0000   -0.0603    0.0675    0.0000    0.0000
           6    0.0000    0.0009    0.3260   -0.0000    0.0675    0.0603   -0.0000    0.0000
           7    0.2416    0.1948   -0.0005   -0.1312   -0.0175    0.0196    0.0000   -0.0643
           8    0.0643   -0.0065    0.0000   -0.0715    0.0935   -0.1047   -0.0000    0.2416
           9   -0.0000   -0.0003   -0.1192   -0.0000    0.1672    0.1492    0.2500    0.0000
          10   -0.2416   -0.0005   -0.1948   -0.1312   -0.0196   -0.0175    0.0000    0.0643
          11   -0.0000   -0.1192    0.0003    0.0000   -0.1492    0.1672   -0.2500    0.0000
          12    0.0643   -0.0000   -0.0065    0.0715   -0.1047   -0.0935    0.0000    0.2416
          13    0.2416   -0.1948    0.0005   -0.1312    0.0175   -0.0196   -0.0000   -0.0643
          14   -0.0643   -0.0065    0.0000    0.0715    0.0935   -0.1047   -0.0000   -0.2416
          15   -0.0000   -0.0003   -0.1192   -0.0000    0.1672    0.1492   -0.2500    0.0000
          16   -0.2416    0.0005    0.1948   -0.1312    0.0196    0.0175   -0.0000    0.0643
          17   -0.0000   -0.1192    0.0003    0.0000   -0.1492    0.1672    0.2500    0.0000
          18   -0.0643   -0.0000   -0.0065   -0.0715   -0.1047   -0.0935    0.0000   -0.2416


   Root No.       9        10        11        12

                 2 A1      3 A1      3 E       3 E   

                 756.2    1001.6    1046.5    1046.5
  
           1    0.0012   -0.2897    0.0000   -0.0000
           2    0.0000    0.0000    0.3590   -0.0026
           3   -0.0000   -0.0000    0.0026    0.3590
           4   -0.1720    0.3859   -0.0000    0.0000
           5   -0.0000   -0.0000   -0.0023    0.0000
           6    0.0000    0.0000   -0.0000   -0.0023
           7    0.0425    0.0216    0.0670   -0.0005
           8   -0.2023   -0.0782   -0.3016    0.0022
           9    0.0000    0.0000    0.0001    0.0101
          10    0.0425    0.0216   -0.0005   -0.0670
          11   -0.0000   -0.0000    0.0101   -0.0001
          12    0.2023    0.0782   -0.0022   -0.3016
          13    0.0425    0.0216   -0.0670    0.0005
          14    0.2023    0.0782   -0.3016    0.0022
          15    0.0000    0.0000    0.0001    0.0101
          16    0.0425    0.0216    0.0005    0.0670
          17   -0.0000   -0.0000    0.0101   -0.0001
          18   -0.2023   -0.0782   -0.0022   -0.3016


           MASS-WEIGHTED COORDINATE ANALYSIS (NORMAL COORDINATES)


   Root No.       1         2         3         4         5         6         7         8

                 1 B2      1 E       1 E       1 A1      2 E       2 E       1 B1      2 B2  

                -103.7     252.0     252.0     359.1     393.1     393.1     412.8     683.8
  
           1   -0.0000   -0.0000    0.0000    0.5618   -0.0000    0.0000    0.0000    0.0000
           2   -0.0000   -0.1265   -0.0006   -0.0000   -0.4603   -0.0506    0.0000   -0.0000
           3   -0.0000    0.0006   -0.1265    0.0000    0.0506   -0.4603   -0.0000   -0.0000
           4   -0.0000   -0.0000    0.0000    0.4738   -0.0000    0.0000    0.0000    0.0000
           5    0.0000    0.7047    0.0034    0.0000    0.2063    0.0227   -0.0000    0.0000
           6    0.0000   -0.0034    0.7047   -0.0000   -0.0227    0.2063    0.0000    0.0000
           7    0.4832    0.4209    0.0020   -0.2978    0.0600    0.0066   -0.0000   -0.1287
           8    0.1287   -0.0140   -0.0001   -0.1623   -0.3200   -0.0352    0.0000    0.4832
           9   -0.0000    0.0012   -0.2576   -0.0000   -0.0561    0.5107   -0.5000    0.0000
          10   -0.4832    0.0020   -0.4209   -0.2978    0.0066   -0.0600   -0.0000    0.1287
          11   -0.0000   -0.2576   -0.0012    0.0000    0.5107    0.0561    0.5000    0.0000
          12    0.1287    0.0001   -0.0140    0.1623    0.0352   -0.3200   -0.0000    0.4832
          13    0.4832   -0.4209   -0.0020   -0.2978   -0.0600   -0.0066    0.0000   -0.1287
          14   -0.1287   -0.0140   -0.0001    0.1623   -0.3200   -0.0352    0.0000   -0.4832
          15   -0.0000    0.0012   -0.2576   -0.0000   -0.0561    0.5107    0.5000    0.0000
          16   -0.4832   -0.0020    0.4209   -0.2978   -0.0066    0.0600    0.0000    0.1287
          17   -0.0000   -0.2576   -0.0012    0.0000    0.5107    0.0561   -0.5000    0.0000
          18   -0.1287    0.0001   -0.0140   -0.1623    0.0352   -0.3200   -0.0000   -0.4832


   Root No.       9        10        11        12

                 2 A1      3 A1      3 E       3 E   

                 756.2    1001.6    1046.5    1046.5
  
           1    0.0034   -0.6622    0.0000   -0.0000
           2    0.0000    0.0000    0.7236    0.0014
           3   -0.0000   -0.0000   -0.0014    0.7236
           4   -0.3842    0.6908   -0.0000    0.0000
           5   -0.0000   -0.0000   -0.0036   -0.0000
           6    0.0000    0.0000    0.0000   -0.0036
           7    0.0950    0.0387    0.1058    0.0002
           8   -0.4518   -0.1400   -0.4762   -0.0009
           9    0.0000    0.0000   -0.0000    0.0160
          10    0.0950    0.0387    0.0002   -0.1058
          11   -0.0000   -0.0000    0.0160    0.0000
          12    0.4518    0.1400    0.0009   -0.4762
          13    0.0950    0.0387   -0.1058   -0.0002
          14    0.4518    0.1400   -0.4762   -0.0009
          15    0.0000    0.0000   -0.0000    0.0160
          16    0.0950    0.0387   -0.0002    0.1058
          17   -0.0000   -0.0000    0.0160    0.0000
          18   -0.4518   -0.1400    0.0009   -0.4762


          DESCRIPTION OF VIBRATIONS


 VIBRATION    1    1B2      ATOM PAIR        ENERGY CONTRIBUTION    RADIAL
 FREQ.      -103.65        P  1 --  F  3          +16.7% (-72.7%)     0.1%
 T-DIPOLE    0.0000        P  1 --  F  5          +16.7% (-72.7%)     0.1%
 TRAVEL      0.1850        P  1 --  F  4          +16.7% (-72.7%)     0.1%
 RED. MASS   4.7496        P  1 --  F  6          +16.7% (-72.7%)     0.1%
 EFF. MASS  18.9984

 VIBRATION    3    1E       ATOM PAIR        ENERGY CONTRIBUTION    RADIAL
 FREQ.       252.02        P  1 --  F  2          +23.0% ( 72.1%)     0.0%
 T-DIPOLE    0.3985        F  3 --  F  6          +10.8% ( 49.4%)    12.8%
 TRAVEL      0.1175        F  4 --  F  5          +10.8% ( 49.4%)    12.8%
 RED. MASS   6.0550        F  3 --  F  4          +10.7% ( 49.3%)    12.3%
 EFF. MASS  19.3891        F  5 --  F  6          +10.7% ( 49.3%)    12.3%

 VIBRATION    4    1A1      ATOM PAIR        ENERGY CONTRIBUTION    RADIAL
 FREQ.       359.09        P  1 --  F  6          +20.7% (111.3%)     0.2%
 T-DIPOLE    2.7882        P  1 --  F  5          +20.7% (111.3%)     0.2%
 TRAVEL      0.0884        P  1 --  F  4          +20.7% (111.3%)     0.2%
 RED. MASS   5.0468        P  1 --  F  3          +20.7% (111.3%)     0.2%
 EFF. MASS  24.0302

 VIBRATION    6    2E       ATOM PAIR        ENERGY CONTRIBUTION    RADIAL
 FREQ.       393.10        P  1 --  F  3          +16.5% (102.7%)     0.0%
 T-DIPOLE    3.0062        P  1 --  F  5          +16.5% (102.7%)     0.0%
 TRAVEL      0.0873        P  1 --  F  2          +13.8% ( 94.0%)     0.0%
 RED. MASS   4.5224        F  3 --  F  6           +9.6% ( 78.5%)    60.6%
 EFF. MASS  22.4816

 VIBRATION    7    1B1      ATOM PAIR        ENERGY CONTRIBUTION    RADIAL
 FREQ.       412.75        F  5 --  F  6          +18.7% ( 61.9%)   100.0%
 T-DIPOLE    0.0000        F  4 --  F  5          +18.7% ( 61.9%)   100.0%
 TRAVEL      0.0927        F  3 --  F  6          +18.7% ( 61.9%)   100.0%
 RED. MASS   4.7496        F  3 --  F  4          +18.7% ( 61.9%)   100.0%
 EFF. MASS  18.9984

 VIBRATION    8    2B2      ATOM PAIR        ENERGY CONTRIBUTION    RADIAL
 FREQ.       683.81        F  5 --  F  6          +16.4% ( 73.9%)     0.0%
 T-DIPOLE    0.0000        F  4 --  F  5          +16.4% ( 73.9%)     0.0%
 TRAVEL      0.0720        F  3 --  F  6          +16.4% ( 73.9%)     0.0%
 RED. MASS   4.7496        F  3 --  F  4          +16.4% ( 73.9%)     0.0%
 EFF. MASS  18.9984

 VIBRATION    9    2A1      ATOM PAIR        ENERGY CONTRIBUTION    RADIAL
 FREQ.       756.25        F  3 --  F  4          +16.0% ( 65.0%)   100.0%
 T-DIPOLE    0.3444        F  3 --  F  6          +16.0% ( 65.0%)   100.0%
 TRAVEL      0.0685        F  4 --  F  5          +16.0% ( 65.0%)   100.0%
 RED. MASS   3.8649        F  5 --  F  6          +16.0% ( 65.0%)   100.0%
 EFF. MASS  18.9985

 VIBRATION   10    3A1      ATOM PAIR        ENERGY CONTRIBUTION    RADIAL
 FREQ.      1001.61        P  1 --  F  2          +45.6% ( 93.8%)   100.0%
 T-DIPOLE    4.2745        P  1 --  F  4          +12.4% ( 48.8%)    17.1%
 TRAVEL      0.0531        P  1 --  F  3          +12.4% ( 48.8%)    17.1%
 RED. MASS  10.3153        P  1 --  F  6          +12.4% ( 48.8%)    17.1%
 EFF. MASS  23.9172        P  1 --  F  5          +12.4% ( 48.8%)    17.1%

 VIBRATION   12    3E       ATOM PAIR        ENERGY CONTRIBUTION    RADIAL
 FREQ.      1046.51        P  1 --  F  6          +24.4% ( 80.1%)    98.0%
 T-DIPOLE    5.2280        P  1 --  F  4          +24.4% ( 80.1%)    98.0%
 TRAVEL      0.0508        P  1 --  F  2          +11.1% ( 53.9%)     0.0%
 RED. MASS  10.6427        P  1 --  F  3          +11.1% ( 53.9%)     0.0%
 EFF. MASS  24.9293        P  1 --  F  5          +11.1% ( 53.9%)     0.0%

           FORCE CONSTANT IN INTERNAL COORDINATES (Millidynes/A)

    ATOM   CHEMICAL  BOND LENGTH      BOND ANGLE     TWIST ANGLE
   NUMBER   SYMBOL  FORCE CONSTANT  FORCE CONSTANT  FORCE CONSTANT

      1       P        0.000000        0.000000        0.000000
      2       F        6.627032        0.000000        0.000000
      3       F        6.028938        0.591670        0.000000
      4       F        6.028938        0.591670        2.237969
      5       F        6.028938        0.591670        2.237969
      6       F        6.028938        0.591670        2.237969
 *******************************************************************************
 ** Site#: 29054        For non-commercial use only    Version 18.027W 64BITS **
 *******************************************************************************
 ** Cite this program as: MOPAC2016, Version: 18.027W, James J. P. Stewart,   **
 ** Stewart Computational Chemistry, web: HTTP://OpenMOPAC.net. Days left: 365**
 *******************************************************************************
 **                                                                           **
 **                                MOPAC2016                                  **
 **                                                                           **
 *******************************************************************************

                              PM7 CALCULATION RESULTS


 *******************************************************************************
 *  CALCULATION DONE:                                Sat Jan 27 22:17:26 2018  *
 *  IRC=N      - INTRINSIC REACTION COORDINATE  1 DEFINED
 *  OLDGEO     - PREVIOUS GEOMETRY TO BE USED
 *  RESTART    - CALCULATION RESTARTED
 *  T=         - A TIME OF 172800.0 SECONDS REQUESTED
 *  DUMP=N     - RESTART FILE WRITTEN EVERY  7200.000 SECONDS
 *  HTML       - WRITE HTML SCRIPT TO GENERATE ANIMATION USING JSMOL
 *             - TO DISPLAY IN PDB FORMAT, ADD "PDBOUT"
 *  X-PRIOR    - GEOMETRY CHANGES TAKE PRIORITY IN DRC
 *******************************************************************************
oldgeo restart IRC=1* HTML x-priority=0.1
 IRC of Phosphorus pentafluoride pseudorotation
 (The small anomaly at the top of the barrier is an algorithmic artifact - this should be corrected "some day")
  ATOM    CHEMICAL      BOND LENGTH      BOND ANGLE     TWIST ANGLE 
 NUMBER    SYMBOL       (ANGSTROMS)      (DEGREES)       (DEGREES) 
   (I)                     NA:I           NB:NA:I       NC:NB:NA:I       NA    NB    NC 
     1       P          0.00000000  *    0.0000000  *    0.0000000  *     0     0     0
     2       F          1.52938274  *    0.0000000  *    0.0000000  *     0     0     0
     3       F          1.54832944  *  103.1627449  *    0.0000000  *     1     2     0
     4       F          1.54832944  *  103.1627449  *   90.0000000  *     1     2     3
     5       F          1.54832944  *  103.1627449  *  180.0000000  *     1     2     3
     6       F          1.54832944  *  103.1627449  *  -90.0000000  *     1     2     3
 


          CARTESIAN COORDINATES 

    NO.       ATOM           X           Y           Z

     1         P          0.0000      0.0000      0.0000
     2         F          1.5294      0.0000      0.0000
     3         F         -0.3526      1.5077      0.0000
     4         F         -0.3526      0.0000     -1.5077
     5         F         -0.3526     -1.5077     -0.0000
     6         F         -0.3526      0.0000      1.5077

 General Reference for PM7:
 "Optimization of Parameters for Semiempirical Methods VI: More Modifications to the 
 NDDO Approximations and Re-optimization of Parameters", J. J. P. Stewart, J. Mol. Mod., 1:32, 19 (2013)
 http://www.springerlink.com/openurl.asp?genre=article&id=doi:10.1007/s00894-012-1667-x

           Empirical Formula: P F5  =     6 atoms



      MOLECULAR POINT GROUP   :   C4v 


      RHF CALCULATION, NO. OF DOUBLY OCCUPIED LEVELS = 20


          MOLECULAR WEIGHT =  125.97


          TIME USED UP TO RESTART =                  0.09

    FOR POINT-GROUP C4v  THERE ARE   8 UNIQUE SYMMETRY FUNCTIONS.

           INITIAL VELOCITY IN DRC (Angstroms/Femtosecond)
        -0.00001        -0.00000         0.00000
        -0.00001         0.00002         0.00001
         0.24159         0.06433        -0.00001
        -0.24157        -0.00001         0.06432
         0.24157        -0.06433        -0.00001
        -0.24156        -0.00001        -0.06432

 GEOMETRY PRIORITY, STEP = 0.1000 ANGSTROMS



     POINT   POTENTIAL  +  ENERGY LOST   =   TOTAL      ERROR    REF%   MOVEMENT
       1    -367.99115      0.00000       -367.99115   0.00000     1   %  0.0000
       9    -368.01347      0.00000       -368.01347  -0.02233     2   %  0.1000
      15    -368.07517      0.00000       -368.07517  -0.08402     3   %  0.1947
      21    -368.15173      0.09562       -368.05611   0.03334     4   %  0.2793
      26    -368.18836      0.45665       -367.73171   0.35774     5   %  0.3144
      32    -368.23522      0.84578       -367.38943   0.70002     6   %  0.3484
      37    -368.29409      1.25265       -367.04144   1.04801     7   %  0.3862
      43    -368.36429      1.66268       -366.70161   1.38784     8   %  0.4283
      49    -368.44824      2.06958       -366.37866   1.71079     9   %  0.4741
      55    -368.54582      2.46943       -366.07640   2.01305    10   %  0.5233
      60    -368.65619      2.86168       -365.79451   2.29494    11   %  0.5761
      66    -368.78119      3.25056       -365.53063   2.55882    12   %  0.6318
      72    -368.91853      3.63304       -365.28548   2.80397    13   %  0.6904
      77    -369.06744      4.01197       -365.05547   3.03398    14   %  0.7514
      83    -369.22551      4.38640       -364.83911   3.25034    15   %  0.8142
      88    -369.38901      4.75904       -364.62997   3.45948    16   %  0.8783
      94    -369.55498      5.12879       -364.42619   3.66326    17   %  0.9433
     100    -369.71804      5.49756       -364.22047   3.86898    18   %  1.0080
     105    -369.87397      5.86810       -364.00587   4.08358    19   %  1.0716
     111    -370.02032      6.23974       -363.78058   4.30887    20   %  1.1336
     116    -370.15261      6.61637       -363.53624   4.55321    21   %  1.1929
     122    -370.27010      6.99870       -363.27140   4.81805    22   %  1.2488
     128    -370.36966      7.38710       -362.98256   5.10689    23   %  1.3011
     134    -370.45357      7.78251       -362.67107   5.41838    24   %  1.3492
     139    -370.52221      8.18424       -362.33797   5.75148    25   %  1.3929
     145    -370.57639      8.59217       -361.98421   6.10524    26   %  1.4320
     151    -370.61830      9.00394       -361.61436   6.47509    27   %  1.4665
     157    -370.64959      9.41825       -361.23134   6.85811    28   %  1.4964
     163    -370.67234      9.83149       -360.84085   7.24860    29   %  1.5223
     169    -370.68958     10.24462       -360.44496   7.64449    30   %  1.5442
     174    -370.70206     10.65475       -360.04731   8.04214    31   %  1.5629
     180    -370.71113     11.06387       -359.64726   8.44219    32   %  1.5786
     186    -370.71740     11.46892       -359.24849   8.84096    33   %  1.5918
     191    -370.72129     11.87224       -358.84905   9.24040    34   %  1.6031
     197    -370.72464     12.27690       -358.44774   9.64171    35   %  1.6125
     203    -370.72676     12.68278       -358.04398  10.04547    36   %  1.6204
     208    -370.72872     13.09195       -357.63677  10.45268    37   %  1.6271
     214    -370.72853     13.50140       -357.22713  10.86232    38   %  1.6328
     220    -370.72970     13.92111       -356.80859  11.28086    39   %  1.6375
     226    -370.73157     14.34878       -356.38280  11.70665    40   %  1.6415
     232    -370.73198     14.78220       -355.94978  12.13967    41   %  1.6449
     238    -370.73269     15.22074       -355.51196  12.57749    42   %  1.6477
     244    -370.73264     15.66787       -355.06477  13.02468    43   %  1.6501
     250    -370.73154     16.11925       -354.61229  13.47716    44   %  1.6521
     256    -370.73167     16.57868       -354.15299  13.93646    45   %  1.6538
     262    -370.73205     17.04123       -353.69082  14.39863    46   %  1.6551
     269    -370.73234     17.50668       -353.22566  14.86379    47   %  1.6562
     275    -370.73200     17.97546       -352.75653  15.33292    48   %  1.6571
     282    -370.73284     18.44723       -352.28561  15.80384    49   %  1.6578


           POTENTIAL ENERGY HAS STOPPED DROPPING

           INITIAL VELOCITY IN DRC (Angstroms/Femtosecond)
         0.00001         0.00000        -0.00000
         0.00001        -0.00002        -0.00001
        -0.24159        -0.06433         0.00001
         0.24157         0.00001        -0.06432
        -0.24157         0.06433         0.00001
         0.24156         0.00001         0.06432

 GEOMETRY PRIORITY, STEP = 0.1000 ANGSTROMS



     POINT   POTENTIAL  +  ENERGY LOST   =   TOTAL      ERROR    REF%   MOVEMENT
       1    -367.99115      0.00000       -367.99115   0.00000     1   %  0.0000
       9    -368.01347      0.00000       -368.01347  -0.02232     2   %  0.1000
      15    -368.07514      0.00000       -368.07514  -0.08400     3   %  0.1946
      21    -368.15162      0.09824       -368.05338   0.03603     4   %  0.2792
      26    -368.18646      0.45326       -367.73320   0.35621     5   %  0.3136
      31    -368.23231      0.83362       -367.39869   0.69073     6   %  0.3466
      37    -368.28870      1.22743       -367.06128   1.02814     7   %  0.3827
      42    -368.35604      1.62168       -366.73436   1.35505     8   %  0.4232
      48    -368.43551      2.01437       -366.42114   1.66827     9   %  0.4672
      54    -368.52744      2.40150       -366.12594   1.96347    10   %  0.5146
      59    -368.63279      2.78380       -365.84899   2.24042    11   %  0.5653
      65    -368.75209      3.16257       -365.58951   2.49990    12   %  0.6189
      70    -368.88444      3.53474       -365.34970   2.73971    13   %  0.6758
      76    -369.02854      3.90395       -365.12459   2.96483    14   %  0.7353
      81    -369.18249      4.27008       -364.91241   3.17700    15   %  0.7970
      87    -369.34280      4.63415       -364.70865   3.38076    16   %  0.8601
      92    -369.50585      4.99658       -364.50927   3.58015    17   %  0.9242
      98    -369.66812      5.36091       -364.30721   3.78220    18   %  0.9881
     103    -369.82482      5.72587       -364.09895   3.99046    19   %  1.0513
     109    -369.97203      6.09344       -363.87859   4.21082    20   %  1.1127
     114    -370.10700      6.46390       -363.64310   4.44631    21   %  1.1719
     120    -370.22738      6.83770       -363.38968   4.69973    22   %  1.2280
     125    -370.33189      7.21543       -363.11646   4.97295    23   %  1.2807
     131    -370.42020      7.60112       -362.81907   5.27034    24   %  1.3292
     137    -370.49329      7.98986       -362.50343   5.58598    25   %  1.3736
     142    -370.55094      8.38128       -362.16966   5.91975    26   %  1.4136
     148    -370.59693      8.77894       -361.81799   6.27142    27   %  1.4490
     154    -370.63256      9.17861       -361.45395   6.63546    28   %  1.4801
     159    -370.65957      9.57970       -361.07987   7.00954    29   %  1.5072
     165    -370.67924      9.98148       -360.69776   7.39165    30   %  1.5306
     171    -370.69405     10.38344       -360.31061   7.77880    31   %  1.5507
     176    -370.70549     10.78698       -359.91851   8.17090    32   %  1.5678
     182    -370.71287     11.18717       -359.52569   8.56372    33   %  1.5825
     187    -370.71914     11.59466       -359.12448   8.96493    34   %  1.5949
     193    -370.72320     12.00509       -358.71811   9.37130    35   %  1.6054
     199    -370.72486     12.41673       -358.30812   9.78129    36   %  1.6146
     205    -370.72736     12.83663       -357.89073  10.19868    37   %  1.6222
     210    -370.72929     13.26295       -357.46634  10.62307    38   %  1.6286
     216    -370.72906     13.69352       -357.03554  11.05387    39   %  1.6341
     222    -370.72878     14.13149       -356.59730  11.49211    40   %  1.6386
     228    -370.72616     14.57246       -356.15370  11.93571    41   %  1.6426
     235    -370.72905     15.03321       -355.69584  12.39357    42   %  1.6458
     241    -370.72594     15.45562       -355.27032  12.81909    43   %  1.6485
     247    -370.72477     15.89354       -354.83123  13.25818    44   %  1.6507
     254    -370.73506     16.42232       -354.31275  13.77667    45   %  1.6527
     260    -370.72837     16.88434       -353.84403  14.24538    46   %  1.6543
     266    -370.73818     17.29496       -353.44322  14.64619    47   %  1.6553
     273    -370.72300     17.79604       -352.92697  15.16244    48   %  1.6566
     279    -370.72320     18.23309       -352.49010  15.59931    49   %  1.6574
     286    -370.73879     18.76238       -351.97642  16.11300    50   %  1.6579
     292    -370.74009     19.20365       -351.53644  16.55297    51   %  1.6584
     299    -370.72102     19.69804       -351.02297  17.06644    52   %  1.6592
     306    -370.74089     20.22958       -350.51131  17.57810    53   %  1.6594
     312    -370.74192     20.66968       -350.07225  18.01717    54   %  1.6597
     319    -370.71838     21.15667       -349.56172  18.52770    55   %  1.6603
     325    -370.72057     21.60040       -349.12017  18.96925    56   %  1.6604
     332    -370.74112     22.13633       -348.60479  19.48462    57   %  1.6604
     339    -370.72002     22.62791       -348.09211  19.99730    58   %  1.6608
     345    -370.71678     23.06531       -347.65147  20.43794    59   %  1.6609
     352    -370.74297     23.60539       -347.13758  20.95183    60   %  1.6608
     359    -370.71478     24.08744       -346.62734  21.46207    61   %  1.6612
     365    -370.71475     24.53159       -346.18316  21.90625    62   %  1.6613
     372    -370.74356     25.07237       -345.67119  22.41822    63   %  1.6611
     379    -370.71221     25.55318       -345.15903  22.93038    64   %  1.6615
     386    -370.74544     26.09639       -344.64905  23.44036    65   %  1.6611
     392    -370.74630     26.53628       -344.21002  23.87940    66   %  1.6611
     399    -370.70291     27.00553       -343.69738  24.39203    67   %  1.6617
     406    -370.74830     27.57772       -343.17058  24.91883    68   %  1.6612
     412    -370.74791     28.09370       -342.65421  25.43520    69   %  1.6612
     419    -370.69841     28.76265       -341.93577  26.15365    70   %  1.6618
     426    -370.74875     29.59112       -341.15763  26.93178    71   %  1.6613
     432    -370.74939     30.36564       -340.38375  27.70566    72   %  1.6613
     439    -370.68871     31.34557       -339.34313  28.74628    73   %  1.6620
     446    -370.74937     32.45180       -338.29757  29.79184    74   %  1.6613
     452    -370.74940     33.46647       -337.28293  30.80649    75   %  1.6613
     459    -370.68515     34.72383       -335.96132  32.12809    76   %  1.6621
     465    -370.68642     35.89810       -334.78832  33.30109    77   %  1.6620
     472    -370.74991     37.36386       -333.38605  34.70336    78   %  1.6613
     479    -370.67153     38.96641       -331.70512  36.38430    79   %  1.6622
     485    -370.67298     40.40400       -330.26899  37.82042    80   %  1.6622
     492    -370.74967     42.17637       -328.57330  39.51611    81   %  1.6613
     498    -370.74932     43.79851       -326.95081  41.13860    82   %  1.6613
     505    -370.65969     45.80396       -324.85573  43.23368    83   %  1.6624


           POTENTIAL ENERGY HAS STOPPED DROPPING


 **********************
 *                    *
 * JOB ENDED NORMALLY *
 *                    *
 **********************



 TOTAL JOB TIME:             2.96 SECONDS

 == MOPAC DONE ==
