 *******************************************************************************
 ** Site#: 37037        For non-commercial use only           Version 21.153W **
 *******************************************************************************
 ** Cite this program as: MOPAC2016, Version: 21.153W, James J. P. Stewart,   **
 ** Stewart Computational Chemistry, web: HTTP://OpenMOPAC.net. Days left: 365**
 *******************************************************************************
 **                                                                           **
 **                                MOPAC2016                                  **
 **                                                                           **
 *******************************************************************************

                              PM7 CALCULATION RESULTS

 *******************************************************************************
 *  CALCULATION DONE:                                Wed Jun  2 17:37:46 2021  *
 *  GEO_DAT    - DATA SET GEOMETRY IS IN FILE "Locate-ts Fulminic acid plus ethylene.arc"
 *  TS         - USE EF ROUTINE FOR TS SEARCH
 *  T=         - A TIME OF 172800.0 SECONDS REQUESTED
 *  DUMP=N     - RESTART FILE WRITTEN EVERY 7200.0 SECONDS REQUESTED
 *******************************************************************************
TS  geo_dat="Locate-ts Fulminic acid plus ethylene.arc"
 Transition state for Fulminic acid plus ethylene

   ATOM                 CHEMICAL                   X               Y               Z
  NUMBER                 SYMBOL               (ANGSTROMS)     (ANGSTROMS)     (ANGSTROMS)
 
     1       C(HETATM    1  C1  HET A   1)   -0.13175800  *   0.65811775  *  -0.02839865  *
     2       C(HETATM    2  C2  HET A   1)    1.21215143  *   0.76800184  *   0.20995098  *
     3       O(HETATM    3  O   HET B   1)   -0.78192398  *   2.64817972  *   0.23266015  *
     4       N(HETATM    4  N   HET B   1)    0.22354831      3.13833615      0.72097092   
     5       C(HETATM    5  C3  HET B   1)    1.33689848  *   2.73308980  *   0.97326683  *
     6       H(HETATM    6 1H1  HET A   1)   -0.82301541      0.32632123      0.73410689   
     7       H(HETATM    7 2H1  HET A   1)   -0.56591458      0.74847198     -1.01110759   
     8       H(HETATM    8 1H2  HET A   1)    1.91643125      0.93725424     -0.59671323   
     9       H(HETATM    9 2H2  HET A   1)    1.67562862      0.38140850      1.10722437   
    10       H(HETATM   10  H3  HET B   1)    2.27813472      2.89663303      1.38513932   
 

 General Reference for PM7:
 "Optimization of Parameters for Semiempirical Methods VI: More Modifications to the 
 NDDO Approximations and Re-optimization of Parameters", J. J. P. Stewart, J. Mol. Mod., 1:32, 19 (2013)
 https://link.springer.com/article/10.1007/s00894-012-1667-x

           Empirical Formula: C3 H5 N O  =    10 atoms



      MOLECULAR POINT GROUP   :   C1  


      RHF CALCULATION, NO. OF DOUBLY OCCUPIED LEVELS = 14


          Transition state refinement using EF

          HESSIAN CALCULATED NUMERICALLY

 CYCLE:     1 TIME:   0.031 TIME LEFT:  2.00D  GRAD.:     2.722 HEAT:  59.31927
 CYCLE:     2 TIME:   0.000 TIME LEFT:  2.00D  GRAD.:     0.396 HEAT:  59.29531

     GRADIENT =  0.39566 IS LESS THAN CUTOFF =  1.00000



 -------------------------------------------------------------------------------
 TS
 Transition state for Fulminic acid plus ethylene



     GEOMETRY OPTIMISED USING EIGENVECTOR FOLLOWING (TS).     
     SCF FIELD WAS ACHIEVED                                   


                              PM7 CALCULATION
                                                       MOPAC2016 (Version: 21.153W)
                                                       Wed Jun  2 17:37:46 2021
                                                       No. of days remaining = 365




          FINAL HEAT OF FORMATION =         59.29531 KCAL/MOL =     248.09159 KJ/MOL


          TOTAL ENERGY            =       -913.46034 EV
          ELECTRONIC ENERGY       =      -3021.17359 EV  POINT GROUP:     C1  
          CORE-CORE REPULSION     =       2107.71325 EV
          COSMO AREA              =        108.49 SQUARE ANGSTROMS
          COSMO VOLUME            =         94.96 CUBIC ANGSTROMS

          GRADIENT NORM           =          0.39566 = 0.12512 PER ATOM
          IONIZATION POTENTIAL    =          9.869543 EV
          HOMO LUMO ENERGIES (EV) =         -9.870 -0.352
          NO. OF FILLED LEVELS    =         14
          MOLECULAR WEIGHT        =         71.0786

          MOLECULAR DIMENSIONS (Angstroms)

            Atom       Atom       Distance
            H    10    H     7     4.29479
            O     3    H     9     3.30627
            H     8    H     6     2.64392


          SCF CALCULATIONS        =         15
 
          WALL-CLOCK TIME         =          0.062 SECONDS
          COMPUTATION TIME        =          0.047 SECONDS




   ATOM                 CHEMICAL                   X               Y               Z
  NUMBER                 SYMBOL               (ANGSTROMS)     (ANGSTROMS)     (ANGSTROMS)
 
     1       C(HETATM    1  C1  HET A   1)   -0.13160603  *   0.65882979  *  -0.02766782  *
     2       C(HETATM    2  C2  HET A   1)    1.21195768  *   0.77012222  *   0.21064440  *
     3       O(HETATM    3  O   HET B   1)   -0.78742085  *   2.63836447  *   0.25414494  *
     4       N(HETATM    4  N   HET B   1)    0.22354831      3.13833615      0.72097092   
     5       C(HETATM    5  C3  HET B   1)    1.33932435  *   2.73843408  *   0.96831084  *
     6       H(HETATM    6 1H1  HET A   1)   -0.82301541      0.32632123      0.73410689   
     7       H(HETATM    7 2H1  HET A   1)   -0.56591458      0.74847198     -1.01110759   
     8       H(HETATM    8 1H2  HET A   1)    1.91643125      0.93725424     -0.59671323   
     9       H(HETATM    9 2H2  HET A   1)    1.67562862      0.38140850      1.10722437   
    10       H(HETATM   10  H3  HET B   1)    2.27813472      2.89663303      1.38513932   

                             CARTESIAN COORDINATES

   1    C       -0.131606034     0.658829794    -0.027667821
   2    C        1.211957683     0.770122219     0.210644403
   3    O       -0.787420849     2.638364468     0.254144944
   4    N        0.223548310     3.138336150     0.720970920
   5    C        1.339324351     2.738434079     0.968310838
   6    H       -0.823015410     0.326321230     0.734106890
   7    H       -0.565914580     0.748471980    -1.011107590
   8    H        1.916431250     0.937254240    -0.596713230
   9    H        1.675628620     0.381408500     1.107224370
  10    H        2.278134720     2.896633030     1.385139320


           Empirical Formula: C3 H5 N O  =    10 atoms



      MOLECULAR POINT GROUP   :   C1  


                  EIGENVALUES  
 -36.81194 -29.04061 -26.80900 -21.21967 -20.41727 -17.29659 -16.46660 -16.06752
 -15.38652 -14.39718 -12.28604 -10.41448  -9.96966  -9.86954  -0.35244   0.98635
   1.12027   3.06493   5.41396   5.42192   5.49008   6.16425   6.27214   6.38554
   6.44367


              NET ATOMIC CHARGES AND DIPOLE CONTRIBUTIONS

  ATOM NO.                 TYPE                        CHARGE      No. of ELECS.   s-Pop       p-Pop       
    1          C(HETATM    1  C1  HET A   1)          -0.188431        4.1884     1.10869     3.07974
    2          C(HETATM    2  C2  HET A   1)          -0.344062        4.3441     1.09348     3.25058
    3          O(HETATM    3  O   HET B   1)          -0.247502        6.2475     1.94129     4.30621
    4          N(HETATM    4  N   HET B   1)           0.122236        4.8778     1.56901     3.30875
    5          C(HETATM    5  C3  HET B   1)          -0.124996        4.1250     1.18450     2.94049
    6          H(HETATM    6 1H1  HET A   1)           0.142096        0.8579     0.85790
    7          H(HETATM    7 2H1  HET A   1)           0.145310        0.8547     0.85469
    8          H(HETATM    8 1H2  HET A   1)           0.146640        0.8534     0.85336
    9          H(HETATM    9 2H2  HET A   1)           0.146855        0.8531     0.85315
   10          H(HETATM   10  H3  HET B   1)           0.201855        0.7981     0.79814

          NET CHARGE ON RESIDUES

      Residue         Charge  Anion or
                              Cation?
      HET A   1       +0.048
      HET B   1       -0.048
 


 DIPOLE           X         Y         Z       TOTAL
 POINT-CHG.     2.163    -0.324     0.716     2.302
 HYBRID        -0.222     0.024    -0.035     0.226
 SUM            1.941    -0.301     0.681     2.079


          ATOMIC ORBITAL ELECTRON POPULATIONS

                   Atom                  s        px        py        pz   
   C(HETATM    1  C1  HET A   1)   1.10869   1.02642   0.92409   1.12923
   C(HETATM    2  C2  HET A   1)   1.09348   1.04598   1.06762   1.13698
   O(HETATM    3  O   HET B   1)   1.94129   1.21538   1.45542   1.63541
   N(HETATM    4  N   HET B   1)   1.56901   1.04157   1.19086   1.07633
   C(HETATM    5  C3  HET B   1)   1.18450   0.96312   0.83382   1.14355
   H(HETATM    6 1H1  HET A   1)   0.85790
   H(HETATM    7 2H1  HET A   1)   0.85469
   H(HETATM    8 1H2  HET A   1)   0.85336
   H(HETATM    9 2H2  HET A   1)   0.85315
   H(HETATM   10  H3  HET B   1)   0.79814
 *******************************************************************************
 ** Site#: 37037        For non-commercial use only           Version 21.153W **
 *******************************************************************************
 ** Cite this program as: MOPAC2016, Version: 21.153W, James J. P. Stewart,   **
 ** Stewart Computational Chemistry, web: HTTP://OpenMOPAC.net. Days left: 365**
 *******************************************************************************
 **                                                                           **
 **                                MOPAC2016                                  **
 **                                                                           **
 *******************************************************************************

                              PM7 CALCULATION RESULTS

 *******************************************************************************
 *  CALCULATION DONE:                                Wed Jun  2 17:37:46 2021  *
 *  IRC=N      - INTRINSIC REACTION COORDINATE  1 DEFINED
 *  DRC        - DYNAMIC REACTION COORDINATE CALCULATION
 *  OLDGEO     - PREVIOUS GEOMETRY TO BE USED
 *  T=         - A TIME OF 172800.0 SECONDS REQUESTED
 *  DUMP=N     - RESTART FILE WRITTEN EVERY 7200.0 SECONDS REQUESTED
 *  CYCLES=    - DO A MAXIMUM OF 300 STEPS
 *  HTML       - WRITE HTML SCRIPT TO GENERATE ANIMATION USING JSMOL
 *             - TO DISPLAY IN PDB FORMAT, ADD "PDBOUT"
 *  T-PRIOR    - TIME TAKES PRIORITY IN DRC
 *******************************************************************************
oldgeo IRC=1* T-priority=1 HTML DRC cycles=300
 Dynamic Reaction path for Fulminic acid plus ethylene

   ATOM                 CHEMICAL                   X               Y               Z
  NUMBER                 SYMBOL               (ANGSTROMS)     (ANGSTROMS)     (ANGSTROMS)
 
     1       C(HETATM    1  C1  HET A   1)   -0.13160603  *   0.65882979  *  -0.02766782  *
     2       C(HETATM    2  C2  HET A   1)    1.21195768  *   0.77012222  *   0.21064440  *
     3       O(HETATM    3  O   HET B   1)   -0.78742085  *   2.63836447  *   0.25414494  *
     4       N(HETATM    4  N   HET B   1)    0.22354831      3.13833615      0.72097092   
     5       C(HETATM    5  C3  HET B   1)    1.33932435  *   2.73843408  *   0.96831084  *
     6       H(HETATM    6 1H1  HET A   1)   -0.82301541      0.32632123      0.73410689   
     7       H(HETATM    7 2H1  HET A   1)   -0.56591458      0.74847198     -1.01110759   
     8       H(HETATM    8 1H2  HET A   1)    1.91643125      0.93725424     -0.59671323   
     9       H(HETATM    9 2H2  HET A   1)    1.67562862      0.38140850      1.10722437   
    10       H(HETATM   10  H3  HET B   1)    2.27813472      2.89663303      1.38513932   
 

 General Reference for PM7:
 "Optimization of Parameters for Semiempirical Methods VI: More Modifications to the 
 NDDO Approximations and Re-optimization of Parameters", J. J. P. Stewart, J. Mol. Mod., 1:32, 19 (2013)
 https://link.springer.com/article/10.1007/s00894-012-1667-x

           Empirical Formula: C3 H5 N O  =    10 atoms



      MOLECULAR POINT GROUP   :   C1  


      RHF CALCULATION, NO. OF DOUBLY OCCUPIED LEVELS = 14



          HEAT OF FORMATION =      59.295332 KCALS/MOLE


          GRADIENT NORM =   4.78232

          MOLECULAR WEIGHT =   71.08


          ESTIMATED TIME TO COMPLETE CALCULATION =        0.70 SECONDS

    FOR POINT-GROUP C1   THERE ARE   1 UNIQUE SYMMETRY FUNCTIONS.

 STEP:   1 TIME =     0.00 SECS, INTEGRAL =      0.00 TIME LEFT: 172800.00
 STEP:   2 TIME =     0.00 SECS, INTEGRAL =      0.00 TIME LEFT: 172800.00
 STEP:   3 TIME =     0.00 SECS, INTEGRAL =      0.00 TIME LEFT: 172800.00
 STEP:   4 TIME =     0.00 SECS, INTEGRAL =      0.00 TIME LEFT: 172800.00
 STEP:   5 TIME =     0.02 SECS, INTEGRAL =      0.02 TIME LEFT: 172799.98
 STEP:   6 TIME =     0.00 SECS, INTEGRAL =      0.02 TIME LEFT: 172799.98
 STEP:   7 TIME =     0.00 SECS, INTEGRAL =      0.02 TIME LEFT: 172799.98
 STEP:   8 TIME =     0.00 SECS, INTEGRAL =      0.02 TIME LEFT: 172799.98
 STEP:   9 TIME =     0.02 SECS, INTEGRAL =      0.04 TIME LEFT: 172799.96
 STEP:  10 TIME =     0.00 SECS, INTEGRAL =      0.04 TIME LEFT: 172799.96
 STEP:  11 TIME =     0.00 SECS, INTEGRAL =      0.04 TIME LEFT: 172799.96
 STEP:  12 TIME =     0.00 SECS, INTEGRAL =      0.04 TIME LEFT: 172799.96
 STEP:  13 TIME =     0.00 SECS, INTEGRAL =      0.04 TIME LEFT: 172799.96
 STEP:  14 TIME =     0.01 SECS, INTEGRAL =      0.05 TIME LEFT: 172799.95
 STEP:  15 TIME =     0.00 SECS, INTEGRAL =      0.05 TIME LEFT: 172799.95
 STEP:  16 TIME =     0.00 SECS, INTEGRAL =      0.05 TIME LEFT: 172799.95
 STEP:  17 TIME =     0.00 SECS, INTEGRAL =      0.05 TIME LEFT: 172799.95
 STEP:  18 TIME =     0.00 SECS, INTEGRAL =      0.05 TIME LEFT: 172799.95
 STEP:  19 TIME =     0.02 SECS, INTEGRAL =      0.07 TIME LEFT: 172799.93
 STEP:  20 TIME =     0.00 SECS, INTEGRAL =      0.07 TIME LEFT: 172799.93
 STEP:  21 TIME =     0.00 SECS, INTEGRAL =      0.07 TIME LEFT: 172799.93
 STEP:  22 TIME =     0.00 SECS, INTEGRAL =      0.07 TIME LEFT: 172799.93
 STEP:  23 TIME =     0.00 SECS, INTEGRAL =      0.07 TIME LEFT: 172799.93
 STEP:  24 TIME =     0.00 SECS, INTEGRAL =      0.07 TIME LEFT: 172799.93
 STEP:  25 TIME =     0.00 SECS, INTEGRAL =      0.07 TIME LEFT: 172799.93
 STEP:  26 TIME =     0.00 SECS, INTEGRAL =      0.07 TIME LEFT: 172799.93
 STEP:  27 TIME =     0.00 SECS, INTEGRAL =      0.07 TIME LEFT: 172799.93
 STEP:  28 TIME =     0.02 SECS, INTEGRAL =      0.08 TIME LEFT: 172799.92
 STEP:  29 TIME =     0.00 SECS, INTEGRAL =      0.08 TIME LEFT: 172799.92
 STEP:  30 TIME =     0.00 SECS, INTEGRAL =      0.08 TIME LEFT: 172799.92
           INITIAL VELOCITY IN DRC (Angstroms/Femtosecond)
         0.03135        -0.15499         0.00199
        -0.04254        -0.17438        -0.03009
        -0.03078         0.14410        -0.00500
         0.00419        -0.07340        -0.00052
         0.04238         0.21337         0.03318
         0.00571        -0.02723        -0.00024
        -0.01409         0.02961         0.02361
        -0.00610         0.00824        -0.01141
         0.02719         0.06056        -0.01033
         0.04602         0.04379         0.02456
 THE VIBRATIONAL FREQUENCY (  -577.61CM(-1)) IS TOO SMALL
 FOR ONE QUANTUM TO BE USED
 INSTEAD 0.3KCAL/MOLE WILL BE USED TO START THE IRC

 TIME PRIORITY, INTERVAL = 1.00 FEMTOSECONDS



 FEMTOSECONDS  POINT  POTENTIAL + KINETIC  =   TOTAL     ERROR    REF%   MOVEMENT
     0.000       1    59.29531    0.30000    59.59531   0.00000     1   %  0.0000
     1.000       1    59.28402    0.29587    59.57989  -0.01542     2   %  0.0128
     2.000       1    59.26000    0.31883    59.57883  -0.01648     3   %  0.0285
     3.000       1    59.22326    0.36887    59.59213  -0.00318     4   %  0.0472
     4.000       3    59.17418    0.42083    59.59501  -0.00030     5   %  0.0691
     5.000       4    59.11135    0.48297    59.59431  -0.00100     6   %  0.0931
     6.000       5    59.03097    0.56359    59.59456  -0.00075     7   %  0.1187
     7.000       6    58.93135    0.66371    59.59506  -0.00025     8   %  0.1465
     8.000       6    58.81225    0.78321    59.59546   0.00015     9   %  0.1766
     9.000       7    58.67410    0.92062    59.59473  -0.00058    10   %  0.2096
    10.000       8    58.51322    1.08116    59.59438  -0.00093    11   %  0.2454
    11.000       9    58.32102    1.27303    59.59404  -0.00126    12   %  0.2835
    12.000      10    58.08852    1.50618    59.59469  -0.00061    13   %  0.3238
    13.000      11    57.81081    1.78502    59.59583   0.00053    14   %  0.3663
    14.000      12    57.48624    2.10923    59.59547   0.00016    15   %  0.4111
    15.000      13    57.11207    2.48289    59.59496  -0.00034    16   %  0.4578
    16.000      14    56.68035    2.91406    59.59441  -0.00089    17   %  0.5061
    17.000      15    56.18100    3.41384    59.59484  -0.00046    18   %  0.5552
    18.000      16    55.60814    3.98783    59.59597   0.00067    19   %  0.6050
    19.000      17    54.96424    4.63315    59.59739   0.00210    20   %  0.6556
    20.000      18    54.25663    5.34069    59.59732   0.00204    21   %  0.7074
    21.000      19    53.49058    6.10611    59.59669   0.00141    22   %  0.7610
    22.000      20    52.66797    6.92916    59.59713   0.00185    23   %  0.8169
    23.000      21    51.79183    7.80696    59.59879   0.00352    24   %  0.8757
    24.000      22    50.87363    8.72732    59.60095   0.00568    25   %  0.9380
    25.000      23    49.93488    9.66861    59.60349   0.00823    26   %  1.0047
    26.000      24    48.99884   10.59982    59.59866   0.00340    27   %  1.0760
    27.000      26    48.08118   11.51546    59.59664   0.00139    28   %  1.1519
    28.000      27    47.19279   12.40410    59.59689   0.00165    29   %  1.2322
    29.000      28    46.34492   13.25173    59.59665   0.00142    30   %  1.3171
    30.000      30    45.55411   14.04198    59.59609   0.00087    31   %  1.4073
    31.000      32    44.84170   14.75403    59.59572   0.00051    32   %  1.5040
    32.000      34    44.22263   15.37288    59.59551   0.00031    33   %  1.6083
    33.000      36    43.70083   15.89458    59.59540   0.00022    34   %  1.7209
    34.000      38    43.27201   16.32351    59.59552   0.00035    35   %  1.8419
    35.000      40    42.93188   16.66446    59.59634   0.00117    36   %  1.9708
    36.000      42    42.68164   16.91660    59.59823   0.00308    37   %  2.1070
    37.000      44    42.52471   17.07347    59.59819   0.00304    38   %  2.2493
    38.000      46    42.45892   17.13827    59.59719   0.00206    39   %  2.3965
    39.000      48    42.47244   17.12420    59.59664   0.00152    40   %  2.5473
    40.000      50    42.54812   17.04824    59.59636   0.00125    41   %  2.7005
    41.000      51    42.67246   16.92371    59.59617   0.00107    42   %  2.8551
    42.000      53    42.83913   16.75746    59.59659   0.00151    43   %  3.0105
    43.000      55    43.04525   16.55060    59.59585   0.00078    44   %  3.1659
    44.000      57    43.28280   16.31272    59.59553   0.00047    45   %  3.3208
    45.000      59    43.53542   16.05995    59.59538   0.00033    46   %  3.4746
    46.000      61    43.78314   15.81223    59.59537   0.00034    47   %  3.6267
    47.000      63    44.00981   15.58558    59.59538   0.00036    48   %  3.7764
    48.000      66    44.20534   15.38998    59.59532   0.00031    49   %  3.9233
    49.000      68    44.36111   15.23409    59.59520   0.00020    50   %  4.0669
    50.000      70    44.46366   15.13139    59.59505   0.00005    51   %  4.2067
    51.000      72    44.49502   15.09992    59.59495  -0.00004    52   %  4.3424
    52.000      73    44.44025   15.15480    59.59506   0.00008    53   %  4.4737
    53.000      75    44.29504   15.30025    59.59529   0.00033    54   %  4.6006
    54.000      76    44.06788   15.52744    59.59532   0.00037    55   %  4.7232
    55.000      78    43.77242   15.82260    59.59502   0.00008    56   %  4.8419
    56.000      80    43.41874   16.17622    59.59497   0.00004    57   %  4.9570
    57.000      82    43.01189   16.58314    59.59503   0.00011    58   %  5.0693
    58.000      84    42.55721   17.03799    59.59520   0.00029    59   %  5.1791
    59.000      86    42.06586   17.52940    59.59526   0.00036    60   %  5.2872
    60.000      88    41.55399   18.04113    59.59512   0.00024    61   %  5.3947
    61.000      90    41.03637   18.55859    59.59496   0.00009    62   %  5.5033
    62.000      92    40.52078   19.07411    59.59489   0.00003    63   %  5.6156
    63.000      93    40.00966   19.58534    59.59500   0.00015    64   %  5.7342
    64.000      95    39.50740   20.08791    59.59532   0.00049    65   %  5.8595
    65.000      97    39.02673   20.56885    59.59558   0.00077    66   %  5.9893
    66.000      99    38.58654   21.00912    59.59566   0.00086    67   %  6.1219
    67.000     101    38.20464   21.39112    59.59576   0.00097    68   %  6.2561
    68.000     102    37.89237   21.70372    59.59609   0.00132    69   %  6.3915
    69.000     104    37.65599   21.93956    59.59555   0.00079    70   %  6.5278
    70.000     106    37.50246   22.09324    59.59570   0.00096    71   %  6.6648
    71.000     108    37.44199   22.15461    59.59660   0.00187    72   %  6.8021
    72.000     110    37.48389   22.11202    59.59591   0.00120    73   %  6.9395
    73.000     112    37.62984   21.96613    59.59597   0.00128    74   %  7.0767
    74.000     114    37.87111   21.72517    59.59627   0.00159    75   %  7.2135
    75.000     116    38.19266   21.40230    59.59496   0.00029    76   %  7.3498
    76.000     117    38.58038   21.01499    59.59537   0.00072    77   %  7.4854
    77.000     119    39.02479   20.57060    59.59539   0.00076    78   %  7.6206
    78.000     121    39.51552   20.07941    59.59493   0.00030    79   %  7.7555
    79.000     122    40.03655   19.55936    59.59592   0.00131    80   %  7.8904
    80.000     124    40.56476   19.03053    59.59529   0.00070    81   %  8.0256
    81.000     125    41.07598   18.51949    59.59546   0.00088    82   %  8.1614
    82.000     126    41.55328   18.04246    59.59575   0.00118    83   %  8.2982
    83.000     128    41.98828   17.60714    59.59542   0.00087    84   %  8.4361
    84.000     129    42.37364   17.22140    59.59504   0.00050    85   %  8.5756
    85.000     131    42.69886   16.89587    59.59473   0.00020    86   %  8.7167
    86.000     132    42.94838   16.64639    59.59477   0.00025    87   %  8.8599
    87.000     133    43.11097   16.48426    59.59523   0.00072    88   %  9.0052
    88.000     135    43.18467   16.41120    59.59587   0.00137    89   %  9.1530
    89.000     136    43.17540   16.42053    59.59594   0.00145    90   %  9.3034
    90.000     137    43.08946   16.50571    59.59517   0.00070    91   %  9.4569
    91.000     138    42.92717   16.66806    59.59523   0.00077    92   %  9.6136
    92.000     139    42.68658   16.90947    59.59604   0.00159    93   %  9.7735
    93.000     141    42.37090   17.22691    59.59781   0.00337    94   %  9.9368
    94.000     142    41.99546   17.60320    59.59866   0.00423    95   % 10.1032
    95.000     143    41.57940   18.01748    59.59688   0.00246    96   % 10.2724
    96.000     145    41.13829   18.45765    59.59594   0.00154    97   % 10.4440
    97.000     146    40.67949   18.91605    59.59554   0.00115    98   % 10.6173
    98.000     148    40.21113   19.38408    59.59521   0.00083    99   % 10.7917
    99.000     150    39.74824   19.84664    59.59488   0.00052   100   % 10.9668
   100.000     152    39.31476   20.27994    59.59470   0.00035   101   % 11.1421
   101.000     154    38.93299   20.66161    59.59460   0.00026   102   % 11.3171
   102.000     157    38.61402   20.98052    59.59455   0.00023   103   % 11.4915
   103.000     159    38.35768   21.23691    59.59459   0.00028   104   % 11.6647
   104.000     161    38.16099   21.43374    59.59473   0.00044   105   % 11.8364
   105.000     163    38.02694   21.56789    59.59483   0.00055   106   % 12.0058
   106.000     165    37.96430   21.63057    59.59487   0.00061   107   % 12.1726
   107.000     167    37.97941   21.61559    59.59501   0.00076   108   % 12.3362
   108.000     169    38.06885   21.52662    59.59547   0.00124   109   % 12.4962
   109.000     171    38.22074   21.37411    59.59485   0.00063   110   % 12.6524
   110.000     173    38.42394   21.17138    59.59532   0.00112   111   % 12.8048
   111.000     175    38.67654   20.91859    59.59513   0.00094   112   % 12.9535
   112.000     177    38.98429   20.61062    59.59491   0.00073   113   % 13.0988
   113.000     180    39.35088   20.24475    59.59562   0.00147   114   % 13.2412
   114.000     182    39.77033   19.82513    59.59546   0.00131   115   % 13.3813
   115.000     184    40.22820   19.36700    59.59519   0.00106   116   % 13.5195
   116.000     187    40.71060   18.88434    59.59494   0.00082   117   % 13.6564
   117.000     189    41.20950   18.38524    59.59475   0.00064   118   % 13.7925
   118.000     192    41.71904   17.87557    59.59461   0.00052   119   % 13.9283
   119.000     194    42.22651   17.36801    59.59452   0.00044   120   % 14.0644
   120.000     197    42.70802   16.88642    59.59444   0.00037   121   % 14.2012
   121.000     199    43.13261   16.46186    59.59446   0.00041   122   % 14.3393
   122.000     200    43.47460   16.12006    59.59466   0.00061   123   % 14.4790
   123.000     202    43.72134   15.87357    59.59490   0.00087   124   % 14.6209
   124.000     204    43.87065   15.72434    59.59499   0.00096   125   % 14.7653
   125.000     205    43.92171   15.67319    59.59491   0.00089   126   % 14.9125
   126.000     207    43.86968   15.72522    59.59489   0.00089   127   % 15.0625
   127.000     208    43.71016   15.88532    59.59548   0.00148   128   % 15.2152
   128.000     209    43.44998   16.14590    59.59588   0.00190   129   % 15.3705
   129.000     211    43.10804   16.48697    59.59501   0.00104   130   % 15.5277
   130.000     213    42.71016   16.88429    59.59445   0.00049   131   % 15.6865
   131.000     215    42.27598   17.31826    59.59424   0.00030   132   % 15.8463
   132.000     217    41.81480   17.77947    59.59427   0.00034   133   % 16.0063
   133.000     219    41.33184   18.26268    59.59452   0.00060   134   % 16.1661
   134.000     221    40.83847   18.75629    59.59476   0.00085   135   % 16.3252
   135.000     223    40.35548   19.23938    59.59486   0.00097   136   % 16.4831
   136.000     225    39.90556   19.68939    59.59495   0.00107   137   % 16.6394
   137.000     227    39.50285   20.09230    59.59515   0.00128   138   % 16.7939
   138.000     229    39.15027   20.44529    59.59556   0.00170   139   % 16.9461
   139.000     231    38.84686   20.74778    59.59464   0.00080   140   % 17.0956
   140.000     233    38.59807   20.99649    59.59456   0.00074   141   % 17.2421
   141.000     235    38.41792   21.17749    59.59541   0.00160   142   % 17.3853
   142.000     237    38.32111   21.27346    59.59457   0.00078   143   % 17.5250
   143.000     240    38.31315   21.28144    59.59459   0.00081   144   % 17.6612
   144.000     242    38.38734   21.20728    59.59463   0.00086   145   % 17.7941
   145.000     243    38.53243   21.06181    59.59423   0.00048   146   % 17.9241
   146.000     245    38.74244   20.85203    59.59446   0.00073   147   % 18.0517
   147.000     247    39.01961   20.57578    59.59539   0.00167   148   % 18.1775
   148.000     249    39.36614   20.22867    59.59481   0.00110   149   % 18.3022
   149.000     251    39.77435   19.82035    59.59470   0.00100   150   % 18.4263
   150.000     253    40.22533   19.36941    59.59473   0.00105   151   % 18.5503
   151.000     255    40.69719   18.89766    59.59485   0.00119   152   % 18.6746
   152.000     257    41.17497   18.41993    59.59490   0.00124   153   % 18.7996
   153.000     258    41.65210   17.94266    59.59476   0.00111   154   % 18.9254
   154.000     260    42.12354   17.47098    59.59452   0.00089   155   % 19.0526
   155.000     262    42.57674   17.01754    59.59428   0.00067   156   % 19.1813
   156.000     264    42.98997   16.60427    59.59424   0.00063   157   % 19.3121
   157.000     265    43.34302   16.25160    59.59462   0.00103   158   % 19.4453
   158.000     266    43.62541   15.96989    59.59530   0.00172   159   % 19.5812
   159.000     268    43.83880   15.75630    59.59511   0.00153   160   % 19.7203
   160.000     269    43.98698   15.60743    59.59441   0.00085   161   % 19.8625
   161.000     271    44.06574   15.52836    59.59411   0.00055   162   % 20.0079
   162.000     272    44.06122   15.53321    59.59443   0.00089   163   % 20.1562
   163.000     274    43.96226   15.63208    59.59434   0.00081   164   % 20.3070
   164.000     275    43.77009   15.82432    59.59441   0.00090   165   % 20.4601
   165.000     277    43.49840   16.09583    59.59423   0.00072   166   % 20.6150
   166.000     278    43.16443   16.42921    59.59364   0.00014   167   % 20.7714
   167.000     280    42.77781   16.81554    59.59335  -0.00014   168   % 20.9291
   168.000     282    42.33993   17.25357    59.59350   0.00003   169   % 21.0878
   169.000     284    41.85440   17.73943    59.59383   0.00037   170   % 21.2475
   170.000     286    41.33719   18.25687    59.59405   0.00061   171   % 21.4080
   171.000     288    40.81578   18.77835    59.59413   0.00069   172   % 21.5691
   172.000     291    40.31787   19.27625    59.59412   0.00070   173   % 21.7307
   173.000     293    39.86085   19.73329    59.59414   0.00073   174   % 21.8925
   174.000     295    39.45060   20.14369    59.59429   0.00089   175   % 22.0540
   175.000     297    39.09058   20.50397    59.59455   0.00117   176   % 22.2150
   176.000     299    38.79125   20.80344    59.59469   0.00132   177   % 22.3752
   177.000     301    38.57030   21.02420    59.59450   0.00115   178   % 22.5344
   178.000     303    38.44276   21.15148    59.59424   0.00091   179   % 22.6927
   179.000     305    38.41082   21.18330    59.59412   0.00080   180   % 22.8502
   180.000     308    38.46406   21.13017    59.59423   0.00092   181   % 23.0073
   181.000     310    38.58977   21.00478    59.59455   0.00126   182   % 23.1642
   182.000     312    38.78414   20.81066    59.59480   0.00152   183   % 23.3214
   183.000     314    39.05173   20.54285    59.59458   0.00131   184   % 23.4790
   184.000     316    39.39454   20.19963    59.59417   0.00092   185   % 23.6370
   185.000     319    39.80195   19.79197    59.59393   0.00069   186   % 23.7954
   186.000     321    40.25171   19.34216    59.59387   0.00065   187   % 23.9538
   187.000     324    40.72107   18.87289    59.59395   0.00074   188   % 24.1118
   188.000     326    41.19762   18.39645    59.59407   0.00087   189   % 24.2691
   189.000     329    41.67924   17.91483    59.59407   0.00089   190   % 24.4253
   190.000     331    42.16305   17.43091    59.59396   0.00079   191   % 24.5805
   191.000     333    42.63369   16.96019    59.59388   0.00072   192   % 24.7346
   192.000     335    43.06396   16.53005    59.59402   0.00087   193   % 24.8877
   193.000     337    43.42787   16.16665    59.59452   0.00138   194   % 25.0399
   194.000     338    43.71393   15.88129    59.59522   0.00210   195   % 25.1913
   195.000     340    43.92606   15.66944    59.59550   0.00238   196   % 25.3416
   196.000     341    44.07055   15.52371    59.59426   0.00116   197   % 25.4906
   197.000     343    44.14420   15.44933    59.59353   0.00044   198   % 25.6378
   198.000     345    44.13286   15.46043    59.59329   0.00020   199   % 25.7825
   199.000     346    44.02598   15.56740    59.59338   0.00031   200   % 25.9243
   200.000     348    43.82881   15.76471    59.59352   0.00046   201   % 26.0629
   201.000     350    43.56200   16.03116    59.59316   0.00011   202   % 26.1983
   202.000     352    43.24607   16.34688    59.59295  -0.00009   203   % 26.3309
   203.000     354    42.88761   16.70533    59.59295  -0.00008   204   % 26.4612
   204.000     356    42.48137   17.11183    59.59320   0.00018   205   % 26.5898
   205.000     358    42.02624   17.56757    59.59381   0.00081   206   % 26.7174
   206.000     360    41.53811   18.05633    59.59443   0.00144   207   % 26.8446
   207.000     362    41.04651   18.54774    59.59425   0.00127   208   % 26.9717
   208.000     364    40.57707   19.01679    59.59385   0.00089   209   % 27.0990
   209.000     366    40.13891   19.45479    59.59370   0.00075   210   % 27.2266
   210.000     368    39.72873   19.86515    59.59388   0.00094   211   % 27.3547
   211.000     370    39.34716   20.24607    59.59323   0.00031   212   % 27.4834
   212.000     372    39.01155   20.58214    59.59369   0.00078   213   % 27.6130
   213.000     374    38.74921   20.84449    59.59370   0.00081   214   % 27.7439
   214.000     377    38.57949   21.01388    59.59337   0.00049   215   % 27.8768
   215.000     379    38.50084   21.09248    59.59332   0.00045   216   % 28.0122
   216.000     381    38.49732   21.09627    59.59360   0.00075   217   % 28.1506
   217.000     383    38.55784   21.03639    59.59422   0.00139   218   % 28.2924
   218.000     385    38.68861   20.90577    59.59438   0.00156   219   % 28.4376
   219.000     388    38.90580   20.68764    59.59344   0.00063   220   % 28.5860
   220.000     390    39.21564   20.37748    59.59312   0.00032   221   % 28.7371
   221.000     393    39.60274   19.99023    59.59297   0.00019   222   % 28.8901
   222.000     395    40.03866   19.55436    59.59302   0.00025   223   % 29.0443
   223.000     397    40.50063   19.09268    59.59331   0.00056   224   % 29.1988
   224.000     399    40.98370   18.60968    59.59338   0.00064   225   % 29.3532
   225.000     401    41.49207   18.10093    59.59300   0.00027   226   % 29.5070
   226.000     403    42.01977   17.57295    59.59271  -0.00000   227   % 29.6601
   227.000     405    42.54032   17.05229    59.59261  -0.00009   228   % 29.8124
   228.000     407    43.01758   16.57532    59.59290   0.00021   229   % 29.9641
   229.000     409    43.42724   16.16633    59.59357   0.00089   230   % 30.1149
   230.000     410    43.76582   15.82755    59.59338   0.00071   231   % 30.2647
   231.000     413    44.03983   15.55299    59.59282   0.00016   232   % 30.4129
   232.000     415    44.24474   15.34781    59.59255  -0.00010   233   % 30.5591
   233.000     417    44.35894   15.23346    59.59240  -0.00023   234   % 30.7026
   234.000     419    44.35828   15.23434    59.59263  -0.00000   235   % 30.8431
   235.000     421    44.23611   15.35682    59.59293   0.00032   236   % 30.9805
   236.000     423    44.01090   15.58208    59.59298   0.00037   237   % 31.1151
   237.000     425    43.71148   15.88106    59.59254  -0.00005   238   % 31.2477
   238.000     427    43.35501   16.23736    59.59238  -0.00021   239   % 31.3790
   239.000     429    42.94220   16.65027    59.59247  -0.00010   240   % 31.5102
   240.000     431    42.47212   17.12076    59.59288   0.00032   241   % 31.6421
   241.000     434    41.96167   17.63149    59.59317   0.00062   242   % 31.7756
   242.000     436    41.44763   18.14525    59.59288   0.00034   243   % 31.9112
   243.000     439    40.96583   18.62673    59.59256   0.00004   244   % 32.0489
   244.000     441    40.53008   19.06228    59.59236  -0.00015   245   % 32.1888
   245.000     443    40.13211   19.46019    59.59231  -0.00019   246   % 32.3308
   246.000     446    39.76140   19.83116    59.59256   0.00007   247   % 32.4750
   247.000     448    39.42417   20.16864    59.59280   0.00033   248   % 32.6214
   248.000     450    39.14353   20.44923    59.59276   0.00031   249   % 32.7703
   249.000     453    38.93875   20.65396    59.59270   0.00026   250   % 32.9221
   250.000     456    38.80827   20.78448    59.59276   0.00033   251   % 33.0772
   251.000     458    38.73266   20.86040    59.59306   0.00065   252   % 33.2358
   252.000     461    38.69734   20.89636    59.59370   0.00131   253   % 33.3981
   253.000     463    38.71076   20.88314    59.59389   0.00151   254   % 33.5637
   254.000     465    38.79900   20.79415    59.59314   0.00078   255   % 33.7320
   255.000     468    38.98088   20.61195    59.59283   0.00048   256   % 33.9022
   256.000     471    39.25009   20.34267    59.59276   0.00042   257   % 34.0732
   257.000     474    39.58150   20.01136    59.59285   0.00053   258   % 34.2440
   258.000     477    39.95382   19.63929    59.59312   0.00081   259   % 34.4135
   259.000     479    40.36524   19.22795    59.59319   0.00089   260   % 34.5812
   260.000     481    40.82583   18.76708    59.59290   0.00062   261   % 34.7467
   261.000     484    41.33424   18.25840    59.59263   0.00036   262   % 34.9102
   262.000     486    41.86361   17.72892    59.59254   0.00027   263   % 35.0717
   263.000     488    42.37183   17.22102    59.59285   0.00060   264   % 35.2315
   264.000     490    42.82901   16.76460    59.59361   0.00138   265   % 35.3896
   265.000     491    43.23178   16.36252    59.59430   0.00207   266   % 35.5460
   266.000     493    43.59094   16.00171    59.59266   0.00044   267   % 35.7002
   267.000     496    43.90503   15.68720    59.59222   0.00002   268   % 35.8517
   268.000     498    44.14846   15.44344    59.59189  -0.00030   269   % 35.9998
   269.000     500    44.28969   15.30227    59.59197  -0.00021   270   % 36.1442
   270.000     501    44.31788   15.27454    59.59242   0.00025   271   % 36.2847
   271.000     503    44.25108   15.34146    59.59254   0.00038   272   % 36.4217
   272.000     506    44.11697   15.47524    59.59222   0.00007   273   % 36.5561
   273.000     508    43.92493   15.66720    59.59213  -0.00001   274   % 36.6887
   274.000     510    43.65849   15.93384    59.59233   0.00020   275   % 36.8207
   275.000     512    43.29838   16.29469    59.59307   0.00096   276   % 36.9529
   276.000     514    42.85060   16.74359    59.59418   0.00208   277   % 37.0860
   277.000     516    42.35247   17.24137    59.59384   0.00175   278   % 37.2202
   278.000     519    41.84459   17.74824    59.59283   0.00075   279   % 37.3551
   279.000     521    41.34336   18.24918    59.59254   0.00047   280   % 37.4904
   280.000     523    40.83877   18.75389    59.59266   0.00060   281   % 37.6256
   281.000     525    40.32255   19.27074    59.59329   0.00125   282   % 37.7601
   282.000     527    39.81533   19.77879    59.59412   0.00209   283   % 37.8940
   283.000     529    39.36140   20.23150    59.59291   0.00089   284   % 38.0274
   284.000     532    39.00210   20.59048    59.59258   0.00058   285   % 38.1608
   285.000     534    38.74512   20.84748    59.59260   0.00061   286   % 38.2947
   286.000     537    38.56999   21.02301    59.59301   0.00104   287   % 38.4297
   287.000     539    38.45836   21.13547    59.59383   0.00187   288   % 38.5660
   288.000     541    38.42104   21.17315    59.59419   0.00225   289   % 38.7036
   289.000     544    38.48869   21.10426    59.59295   0.00102   290   % 38.8421
   290.000     546    38.67764   20.91476    59.59240   0.00049   291   % 38.9807
   291.000     549    38.96643   20.62577    59.59221   0.00031   292   % 39.1187
   292.000     551    39.30837   20.28389    59.59226   0.00037   293   % 39.2554
   293.000     553    39.66950   19.92318    59.59268   0.00081   294   % 39.3906
   294.000     555    40.05109   19.54170    59.59279   0.00093   295   % 39.5241
   295.000     558    40.47573   19.11642    59.59215   0.00030   296   % 39.6565
   296.000     560    40.95062   18.64121    59.59183  -0.00000   297   % 39.7886
   297.000     563    41.44704   18.14465    59.59169  -0.00013   298   % 39.9211
   298.000     565    41.91638   17.67562    59.59200   0.00020   299   % 40.0549
   299.000     567    42.33211   17.26074    59.59284   0.00105   300   % 40.1906


           INITIAL VELOCITY IN DRC (Angstroms/Femtosecond)
        -0.03135         0.15499        -0.00199
         0.04254         0.17438         0.03009
         0.03078        -0.14410         0.00500
        -0.00419         0.07340         0.00052
        -0.04238        -0.21337        -0.03318
        -0.00571         0.02723         0.00024
         0.01409        -0.02961        -0.02361
         0.00610        -0.00824         0.01141
        -0.02719        -0.06056         0.01033
        -0.04602        -0.04379        -0.02456
 THE VIBRATIONAL FREQUENCY (  -577.61CM(-1)) IS TOO SMALL
 FOR ONE QUANTUM TO BE USED
 INSTEAD 0.3KCAL/MOLE WILL BE USED TO START THE IRC

 TIME PRIORITY, INTERVAL = 1.00 FEMTOSECONDS



 FEMTOSECONDS  POINT  POTENTIAL + KINETIC  =   TOTAL     ERROR    REF%   MOVEMENT
     0.000       1    59.29533    0.30000    59.59533   0.00000     1   %  0.0000
     1.000       1    59.28990    0.29038    59.58028  -0.01505     2   %  0.0121
     2.000       1    59.27154    0.30785    59.57939  -0.01594     3   %  0.0269
     3.000       1    59.24026    0.35239    59.59265  -0.00268     4   %  0.0444
     4.000       3    59.19642    0.39870    59.59512  -0.00021     5   %  0.0651
     5.000       4    59.13811    0.45645    59.59455  -0.00078     6   %  0.0880
     6.000       5    59.06047    0.53402    59.59448  -0.00085     7   %  0.1128
     7.000       6    58.95954    0.63501    59.59455  -0.00078     8   %  0.1395
     8.000       7    58.83256    0.76189    59.59445  -0.00088     9   %  0.1685
     9.000       8    58.67525    0.91932    59.59458  -0.00075    10   %  0.2002
    10.000      10    58.47771    1.11638    59.59409  -0.00123    11   %  0.2347
    11.000      11    58.22252    1.37145    59.59398  -0.00135    12   %  0.2721
    12.000      13    57.88784    1.70624    59.59408  -0.00124    13   %  0.3124
    13.000      15    57.44811    2.14612    59.59423  -0.00110    14   %  0.3558
    14.000      17    56.87268    2.72161    59.59429  -0.00103    15   %  0.4028
    15.000      19    56.11978    3.47453    59.59432  -0.00100    16   %  0.4538
    16.000      22    55.13332    4.46104    59.59436  -0.00096    17   %  0.5091
    17.000      25    53.84031    5.75413    59.59445  -0.00087    18   %  0.5694
    18.000      29    52.15618    7.43843    59.59461  -0.00070    19   %  0.6353
    19.000      32    49.99052    9.60433    59.59485  -0.00046    20   %  0.7081
    20.000      36    47.25662   12.33860    59.59522  -0.00008    21   %  0.7889
    21.000      39    43.88434   15.71151    59.59585   0.00056    22   %  0.8791
    22.000      43    39.83966   19.75715    59.59680   0.00153    23   %  0.9796
    23.000      46    35.15001   24.44754    59.59756   0.00230    24   %  1.0908
    24.000      50    29.93145   29.66583    59.59728   0.00204    25   %  1.2125
    25.000      56    24.41512   35.18144    59.59656   0.00134    26   %  1.3438
    26.000      63    18.97656   40.61942    59.59598   0.00079    27   %  1.4833
    27.000      73    14.17038   45.42542    59.59580   0.00064    28   %  1.6288
    28.000      83    10.75365   48.84216    59.59581   0.00068    29   %  1.7776
    29.000      93     9.63127   49.96450    59.59577   0.00068    30   %  1.9264
    30.000     103    11.61603   47.97963    59.59566   0.00060    31   %  2.0710
    31.000     113    16.96068   42.63482    59.59550   0.00047    32   %  2.2063
    32.000     123    24.87326   34.72208    59.59535   0.00035    33   %  2.3266
    33.000     133    33.48782   26.10743    59.59524   0.00027    34   %  2.4260
    34.000     143    40.52663   19.06852    59.59515   0.00018    35   %  2.4991
    35.000     153    44.15782   15.43721    59.59503   0.00008    36   %  2.5420
    36.000     163    43.41948   16.17550    59.59498   0.00004    37   %  2.5534
    37.000     173    38.38489   21.21013    59.59502   0.00009    38   %  2.5351
    38.000     183    30.39325   29.20179    59.59504   0.00013    39   %  2.4921
    39.000     193    21.89231   37.70262    59.59493   0.00004    40   %  2.4323
    40.000     203    15.51044   44.08427    59.59471  -0.00015    41   %  2.3642
    41.000     213    12.92351   46.67099    59.59449  -0.00033    42   %  2.2951
    42.000     223    14.33596   45.25844    59.59439  -0.00040    43   %  2.2306
    43.000     233    18.75860   40.83583    59.59443  -0.00034    44   %  2.1739
    44.000     243    24.68761   34.90693    59.59454  -0.00020    45   %  2.1264
    45.000     253    30.71962   28.87504    59.59465  -0.00006    46   %  2.0883
    46.000     261    35.86775   23.72701    59.59476   0.00006    47   %  2.0586
    47.000     267    39.59032   20.00465    59.59497   0.00029    48   %  2.0359
    48.000     273    41.68787   17.90710    59.59497   0.00030    49   %  2.0188
    49.000     280    42.23417   17.36064    59.59481   0.00015    50   %  2.0065
    50.000     290    41.59413   18.00064    59.59478   0.00013    51   %  1.9996
    51.000     300    40.42968   19.16513    59.59481   0.00017    52   %  2.0008
    52.000     310    39.54561   20.04920    59.59481   0.00019    53   %  2.0133
    53.000     320    39.54173   20.05304    59.59477   0.00017    54   %  2.0401
    54.000     330    40.43526   19.15948    59.59474   0.00015    55   %  2.0817
    55.000     340    41.54567   18.04909    59.59476   0.00018    56   %  2.1338
    56.000     349    41.85514   17.73974    59.59488   0.00031    57   %  2.1883
    57.000     358    40.70939   18.88555    59.59493   0.00038    58   %  2.2409
    58.000     368    38.34004   21.25491    59.59495   0.00041    59   %  2.2917
    59.000     378    35.74806   23.84682    59.59489   0.00036    60   %  2.3436
    60.000     388    34.06772   25.52708    59.59480   0.00029    61   %  2.4009
    61.000     398    33.96761   25.62711    59.59473   0.00024    62   %  2.4676
    62.000     408    35.45999   24.13469    59.59468   0.00021    63   %  2.5454
    63.000     418    38.02349   21.57112    59.59461   0.00016    64   %  2.6329
    64.000     428    40.76898   18.82555    59.59453   0.00009    65   %  2.7241
    65.000     438    42.57175   17.02272    59.59447   0.00004    66   %  2.8110
    66.000     447    42.30866   17.28582    59.59448   0.00006    67   %  2.8855
    67.000     455    39.28339   20.31116    59.59455   0.00015    68   %  2.9417
    68.000     465    33.67244   25.92217    59.59461   0.00022    69   %  2.9771
    69.000     475    26.67176   32.92290    59.59466   0.00029    70   %  2.9932
    70.000     485    20.15683   39.43778    59.59461   0.00027    71   %  2.9948
    71.000     495    15.93040   43.66408    59.59448   0.00016    72   %  2.9881
    72.000     505    14.88012   44.71418    59.59430   0.00002    73   %  2.9794
    73.000     515    16.56400   43.03016    59.59416  -0.00009    74   %  2.9732
    74.000     525    19.65232   39.94176    59.59408  -0.00015    75   %  2.9723
    75.000     535    22.97367   36.62037    59.59404  -0.00016    76   %  2.9794
    76.000     545    26.16895   33.42503    59.59398  -0.00019    77   %  2.9988
    77.000     555    29.35443   30.23948    59.59390  -0.00025    78   %  3.0360
    78.000     565    32.44640   27.14747    59.59387  -0.00026    79   %  3.0929
    79.000     575    35.06158   24.53232    59.59390  -0.00022    80   %  3.1645
    80.000     585    36.91731   22.67664    59.59395  -0.00015    81   %  3.2397
    81.000     595    38.06040   21.53361    59.59400  -0.00008    82   %  3.3073
    82.000     605    38.68382   20.91025    59.59407   0.00001    83   %  3.3585
    83.000     615    38.83186   20.76225    59.59411   0.00006    84   %  3.3889
    84.000     625    38.31317   21.28087    59.59404   0.00000    85   %  3.3974


 GRADIENT CONSTANT AND SMALL -- ASSUME ALL MOTION STOPPED
 TO CONTINUE, USE KEYWORD 'GNORM=0'

 **********************
 *                    *
 * JOB ENDED NORMALLY *
 *                    *
 **********************



 TOTAL JOB TIME:             2.48 SECONDS

 == MOPAC DONE ==
