 *******************************************************************************
 ** Site#: 37037        For non-commercial use only           Version 21.153W **
 *******************************************************************************
 ** Cite this program as: MOPAC2016, Version: 21.153W, James J. P. Stewart,   **
 ** Stewart Computational Chemistry, web: HTTP://OpenMOPAC.net. Days left: 365**
 *******************************************************************************
 **                                                                           **
 **                                MOPAC2016                                  **
 **                                                                           **
 *******************************************************************************

                              PM7 CALCULATION RESULTS

 *******************************************************************************
 *  CALCULATION DONE:                                Wed Jun  2 17:31:02 2021  *
 *  RESIDUES   - DETERMINE THE SEQUENCE OF RESIDUES
 *  T=         - A TIME OF 172800.0 SECONDS REQUESTED
 *  DUMP=N     - RESTART FILE WRITTEN EVERY 7200.0 SECONDS REQUESTED
 *  HTML       - WRITE HTML SCRIPT TO READ PDB FILE USING JSMOL
 *******************************************************************************
       html
     Fulminic acid plus ethylene Reactants

  ATOM    CHEMICAL      BOND LENGTH      BOND ANGLE     TWIST ANGLE 
 NUMBER    SYMBOL       (ANGSTROMS)      (DEGREES)       (DEGREES) 
   (I)                     NA:I           NB:NA:I       NC:NB:NA:I       NA    NB    NC 
     1       C          0.00000000       0.0000000       0.0000000        0     0     0
     2       C          1.32969200  *    0.0000000       0.0000000        1     0     0
     3       O          3.93184300  *  102.4950310  *    0.0000000        1     2     0
     4       N          1.18935000  *   75.1892420  *  -32.6367670  *     3     1     2
     5       C          1.15456300  *   93.1581540  *  179.9909630  *     4     1     3
     6       H          1.07997900  *  123.7178350  * -109.4783100  *     1     2     3
     7       H          1.08078500  *  123.6545740  *  179.9710900  *     1     2     6
     8       H          1.07983000  *  123.6192080  *  -70.6671950  *     2     1     3
     9       H          1.07955600  *  123.6775400  * -179.7128170  *     2     1     8
    10       H          1.02835000  *  179.4913830  *    1.7746180  *     5     4     1
 


          CARTESIAN COORDINATES 

    NO.       ATOM           X           Y           Z

     1         C          0.0000      0.0000      0.0000
     2         C          1.3297      0.0000      0.0000
     3         O         -0.8507      3.8387      0.0000
     4         N          0.1605      3.7514      0.6201
     5         C          1.1419      3.6742      1.2233
     6         H         -0.5995     -0.2995      0.8469
     7         H         -0.5990      0.3004     -0.8480
     8         H          1.9276      0.2977     -0.8485
     9         H          1.9283     -0.3017      0.8462
    10         H          2.0162      3.5965      1.7591

 General Reference for PM7:
 "Optimization of Parameters for Semiempirical Methods VI: More Modifications to the 
 NDDO Approximations and Re-optimization of Parameters", J. J. P. Stewart, J. Mol. Mod., 1:32, 19 (2013)
 https://link.springer.com/article/10.1007/s00894-012-1667-x

           Empirical Formula: C3 H5 N O  =    10 atoms



      MOLECULAR POINT GROUP   :   C1  


      RHF CALCULATION, NO. OF DOUBLY OCCUPIED LEVELS = 14


          Geometry optimization using EF

     GRADIENT =  0.11101 IS LESS THAN CUTOFF =  1.00000



 -------------------------------------------------------------------------------
 html
     Fulminic acid plus ethylene Reactants



     GRADIENTS WERE INITIALLY ACCEPTABLY SMALL                
     SCF FIELD WAS ACHIEVED                                   


                              PM7 CALCULATION
                                                       MOPAC2016 (Version: 21.153W)
                                                       Wed Jun  2 17:31:02 2021
                                                       No. of days remaining = 365




          FINAL HEAT OF FORMATION =         37.12305 KCAL/MOL =     155.32286 KJ/MOL


          TOTAL ENERGY            =       -914.39265 EV
          ELECTRONIC ENERGY       =      -2712.41252 EV  POINT GROUP:     C1  
          CORE-CORE REPULSION     =       1798.01987 EV
          COSMO AREA              =        130.51 SQUARE ANGSTROMS
          COSMO VOLUME            =        113.13 CUBIC ANGSTROMS

          GRADIENT NORM           =          0.11101 = 0.03510 PER ATOM
          IONIZATION POTENTIAL    =         10.535580 EV
          HOMO LUMO ENERGIES (EV) =        -10.536  0.957
          NO. OF FILLED LEVELS    =         14
          MOLECULAR WEIGHT        =         71.0786

          MOLECULAR DIMENSIONS (Angstroms)

            Atom       Atom       Distance
            H     9    O     3     5.05783
            H    10    H     7     4.88049
            H     8    H     6     2.88512


          SCF CALCULATIONS        =          1
 
          WALL-CLOCK TIME         =          0.031 SECONDS
          COMPUTATION TIME        =          0.016 SECONDS




  ATOM               CHEMICAL                 BOND LENGTH      BOND ANGLE     TWIST ANGLE 
 NUMBER               SYMBOL                  (ANGSTROMS)      (DEGREES)       (DEGREES) 
   (I)                                           NA:I           NB:NA:I       NC:NB:NA:I       NA    NB    NC 
     1       C(HETATM    1  C1  HET A   1)    0.00000000       0.0000000       0.0000000   
     2       C(HETATM    2  C2  HET A   1)    1.32969200  *    0.0000000       0.0000000        1     0     0
     3       O(HETATM    3  O   HET B   2)    3.93184300  *  102.4950310  *    0.0000000        1     2     0
     4       N(HETATM    4  N   HET B   2)    1.18935000  *   75.1892420  *  -32.6367670  *     3     1     2
     5       C(HETATM    5  C   HET B   2)    1.15456300  *   93.1581540  *  179.9909630  *     4     1     3
     6       H(HETATM    6 1H1  HET A   1)    1.07997900  *  123.7178350  * -109.4783100  *     1     2     3
     7       H(HETATM    7 2H1  HET A   1)    1.08078500  *  123.6545740  *  179.9710900  *     1     2     6
     8       H(HETATM    8 1H2  HET A   1)    1.07983000  *  123.6192080  *  -70.6671950  *     2     1     3
     9       H(HETATM    9 2H2  HET A   1)    1.07955600  *  123.6775400  * -179.7128170  *     2     1     8
    10       H(HETATM   10  H   HET B   2)    1.02835000  *  179.4913830  *    1.7746180  *     5     4     1

                             CARTESIAN COORDINATES

   1    C        0.000000000     0.000000000     0.000000000
   2    C        1.329692000     0.000000000     0.000000000
   3    O       -0.850673670     3.838716411     0.000000000
   4    N        0.160453746     3.751379928     0.620118626
   5    C        1.141896996     3.674220921     1.223302972
   6    H       -0.599499983    -0.299540262     0.846894351
   7    H       -0.598954459     0.300412427    -0.847998907
   8    H        1.927562285     0.297688692    -0.848507745
   9    H        1.928325513    -0.301656798     0.846216433
  10    H        2.016209241     3.596491005     1.759064002


           Empirical Formula: C3 H5 N O  =    10 atoms



      MOLECULAR POINT GROUP   :   C1  


                  EIGENVALUES  
 -37.69828 -30.66381 -26.87264 -20.96568 -20.33060 -17.93657 -16.89053 -16.88482
 -16.15904 -14.55287 -12.06602 -10.79767 -10.54536 -10.53558   0.95709   0.96224
   0.98577   1.39778   5.36494   5.40972   5.69272   6.40245   6.41900   6.47118
   6.56029


              NET ATOMIC CHARGES AND DIPOLE CONTRIBUTIONS

  ATOM NO.                 TYPE                        CHARGE      No. of ELECS.   s-Pop       p-Pop       
    1          C(HETATM    1  C1  HET A   1)          -0.275867        4.2759     1.09660     3.17926
    2          C(HETATM    2  C2  HET A   1)          -0.289518        4.2895     1.09487     3.19465
    3          O(HETATM    3  O   HET B   2)          -0.304633        6.3046     1.93829     4.36635
    4          N(HETATM    4  N   HET B   2)           0.385551        4.6144     1.43382     3.18063
    5          C(HETATM    5  C   HET B   2)          -0.329527        4.3295     1.07387     3.25566
    6          H(HETATM    6 1H1  HET A   1)           0.140719        0.8593     0.85928
    7          H(HETATM    7 2H1  HET A   1)           0.145030        0.8550     0.85497
    8          H(HETATM    8 1H2  HET A   1)           0.140642        0.8594     0.85936
    9          H(HETATM    9 2H2  HET A   1)           0.138991        0.8610     0.86101
   10          H(HETATM   10  H   HET B   2)           0.248612        0.7514     0.75139
 DIPOLE           X         Y         Z       TOTAL
 POINT-CHG.     2.060    -0.184     1.286     2.436
 HYBRID        -0.578     0.025    -0.359     0.681
 SUM            1.482    -0.159     0.927     1.755


          ATOMIC ORBITAL ELECTRON POPULATIONS

                   Atom                  s        px        py        pz   
   C(HETATM    1  C1  HET A   1)   1.09660   1.03980   1.00909   1.13037
   C(HETATM    2  C2  HET A   1)   1.09487   1.04203   1.02327   1.12934
   O(HETATM    3  O   HET B   2)   1.93829   1.10456   1.75108   1.51071
   N(HETATM    4  N   HET B   2)   1.43382   1.03640   1.08050   1.06373
   C(HETATM    5  C   HET B   2)   1.07387   0.99373   1.16238   1.09954
   H(HETATM    6 1H1  HET A   1)   0.85928
   H(HETATM    7 2H1  HET A   1)   0.85497
   H(HETATM    8 1H2  HET A   1)   0.85936
   H(HETATM    9 2H2  HET A   1)   0.86101
   H(HETATM   10  H   HET B   2)   0.75139

 **********************
 *                    *
 * JOB ENDED NORMALLY *
 *                    *
 **********************



 TOTAL JOB TIME:             0.03 SECONDS

 == MOPAC DONE ==
