 *******************************************************************************
 ** Site#: 37037        For non-commercial use only           Version 21.148W **
 *******************************************************************************
 ** Cite this program as: MOPAC2016, Version: 21.148W, James J. P. Stewart,   **
 ** Stewart Computational Chemistry, web: HTTP://OpenMOPAC.net. Days left: 364**
 *******************************************************************************
 **                                                                           **
 **                                MOPAC2016                                  **
 **                                                                           **
 *******************************************************************************

                              PM7 CALCULATION RESULTS

 *******************************************************************************
 *  CALCULATION DONE:                                Sat May 29 10:54:36 2021  *
 *  UHF        - UNRESTRICTED HARTREE-FOCK CALCULATION
 *  SYMMETRY   - SYMMETRY CONDITIONS TO BE IMPOSED
 *  STEP       - STEP-SIZE IN PATH =   1.000
 *  POINT      - NUMBER OF POINTS IN PATH =200
 *  PRECISE    - TIGHTER CRITERIA TO BE USED
 *  T=         - A TIME OF 172800.0 SECONDS REQUESTED
 *  DUMP=N     - RESTART FILE WRITTEN EVERY 7200.0 SECONDS REQUESTED
 *  HTML       - WRITE HTML SCRIPT TO GENERATE ANIMATION USING JSMOL
 *             - TO DISPLAY IN PDB FORMAT, ADD "PDBOUT"
 *******************************************************************************



                    PARAMETER DEPENDENCE DATA

        REFERENCE ATOM      FUNCTION NO.    DEPENDENT ATOM(S)
           10                  9              14

             DESCRIPTIONS OF THE FUNCTIONS USED
   9      DIHEDRAL ANGLE VARIES AS 180 DEGREES + REFERENCE DIHEDRAL  
 
precise html  symmetry step=1 points=200  UHF
      Rotation of phenyl group in azobenzene
 (Horizontal axis is C-C-N=N torsion, in degrees)
  ATOM               CHEMICAL                 BOND LENGTH      BOND ANGLE     TWIST ANGLE 
 NUMBER               SYMBOL                  (ANGSTROMS)      (DEGREES)       (DEGREES) 
   (I)                                           NA:I           NB:NA:I       NC:NB:NA:I       NA    NB    NC 
     1       C(HETATM    1  C   HET A   1)    0.00000000  *    0.0000000  *    0.0000000  *
     2       C(HETATM    2  C   HET A   1)    1.39445145  *    0.0000000  *    0.0000000  *     1     0     0
     3       C(HETATM    3  C   HET A   1)    1.39122375  *  120.1686119  *    0.0000000  *     2     1     0
     4       C(HETATM    4  C   HET A   1)    1.40114295  *  119.4943679  *   -0.0032393  *     3     2     1
     5       C(HETATM    5  C   HET A   1)    1.40357267  *  120.4712456  *    0.0070421  *     4     3     2
     6       C(HETATM    6  C   HET A   1)    1.39082844  *  119.3786495  *   -0.0071438  *     5     4     3
     7       N(HETATM    7  N   HET A   1)    1.42840071  *  125.2781471  *  179.9924148  *     4     3     5
     8       N(HETATM    8  N   HET A   1)    1.25298295  *  117.2530322  *    0.1499156  *     7     4     3
     9       C(HETATM    9  C   HET A   1)    1.42841537  *  117.2646815  * -179.9979530  *     8     7     4
    10       C(HETATM   10  C   HET A   1)    1.40356899  *  114.2584539  *  180.0000000  +     9     8     7
    11       C(HETATM   11  C   HET A   1)    1.39086127  *  119.3765951  *  179.9650254  *    10     9     8
    12       C(HETATM   12  C   HET A   1)    1.39499579  *  120.2278525  *    0.0498639  *    11    10     9
    13       C(HETATM   13  C   HET A   1)    1.39442555  *  120.2626353  *   -0.0433256  *    12    11    10
    14       C(HETATM   14  C   HET A   1)    1.40124238  *  125.2651046  *   -0.0000000        9     8     7
    15       H(HETATM   15  H   HET A   1)    1.08884820  *  119.8930111  *  179.9969420  *     1     2     3
    16       H(HETATM   16  H   HET A   1)    1.08876761  *  119.9830219  * -179.9993387  *     2     1     3
    17       H(HETATM   17  H   HET A   1)    1.09156564  *  120.7086842  * -179.9914012  *     3     2     4
    18       H(HETATM   18  H   HET A   1)    1.09082208  *  119.7153984  * -179.9950996  *     5     4     6
    19       H(HETATM   19  H   HET A   1)    1.08871935  *  119.8341691  * -179.9975423  *     6     5     4
    20       H(HETATM   20  H   HET A   1)    1.09078128  *  119.7242541  * -179.9935253  *    10     9    11
    21       H(HETATM   21  H   HET A   1)    1.08870258  *  119.8418809  *  179.9673190  *    11    10    12
    22       H(HETATM   22  H   HET A   1)    1.08887123  *  119.8421404  * -179.9674195  *    12    11    13
    23       H(HETATM   23  H   HET A   1)    1.08880654  *  119.9788090  *  179.9946323  *    13    12    14
    24       H(HETATM   24  H   HET A   1)    1.09157407  *  120.7091571  *  179.9785044  *    14    13    12
 

 General Reference for PM7:
 "Optimization of Parameters for Semiempirical Methods VI: More Modifications to the 
 NDDO Approximations and Re-optimization of Parameters", J. J. P. Stewart, J. Mol. Mod., 1:32, 19 (2013)
 https://link.springer.com/article/10.1007/s00894-012-1667-x

           Empirical Formula: C12 H10 N2  =    24 atoms



      MOLECULAR POINT GROUP   :   C2h 


          UHF CALCULATION, NO. OF ALPHA ELECTRONS =   34
                           NO. OF BETA  ELECTRONS =   34
  ABOUT TO ENTER EF FROM PATHK

          Geometry optimization using EF

          DIAGONAL MATRIX USED AS START HESSIAN

 CYCLE:     1 TIME:   0.062 TIME LEFT:  2.00D  GRAD.:     0.177 HEAT:  95.33605
 CYCLE:     2 TIME:   0.016 TIME LEFT:  2.00D  GRAD.:     4.058 HEAT:  95.33639
 CYCLE:     3 TIME:   0.031 TIME LEFT:  2.00D  GRAD.:     0.817 HEAT:  95.33608
 CYCLE:     4 TIME:   0.016 TIME LEFT:  2.00D  GRAD.:    17.710 HEAT:  95.34333
 CYCLE:     5 TIME:   0.031 TIME LEFT:  2.00D  GRAD.:     3.868 HEAT:  95.33752
 CYCLE:     6 TIME:   0.031 TIME LEFT:  2.00D  GRAD.:     7.866 HEAT:  95.34301
 CYCLE:     7 TIME:   0.031 TIME LEFT:  2.00D  GRAD.:     0.779 HEAT:  95.33616
 CYCLE:     8 TIME:   0.016 TIME LEFT:  2.00D  GRAD.:     2.369 HEAT:  95.33781
 CYCLE:     9 TIME:   0.016 TIME LEFT:  2.00D  GRAD.:     0.417 HEAT:  95.33604
 CYCLE:    10 TIME:   0.031 TIME LEFT:  2.00D  GRAD.:     1.557 HEAT:  95.33666
 CYCLE:    11 TIME:   0.016 TIME LEFT:  2.00D  GRAD.:     0.348 HEAT:  95.33602
 CYCLE:    12 TIME:   0.016 TIME LEFT:  2.00D  GRAD.:     1.286 HEAT:  95.33640
 CYCLE:    13 TIME:   0.016 TIME LEFT:  2.00D  GRAD.:     0.064 HEAT:  95.33598
 CYCLE:    14 TIME:   0.016 TIME LEFT:  2.00D  GRAD.:     0.086 HEAT:  95.33598
 CYCLE:    15 TIME:   0.016 TIME LEFT:  2.00D  GRAD.:     0.045 HEAT:  95.33598

     GRADIENT =  0.04523 IS LESS THAN CUTOFF =  0.05000



          VARIABLE        FUNCTION
 :       180.00000       95.335979
 precise html  symmetry step=1 points=200  UHF
      Rotation of phenyl group in azobenzene
 (Horizontal axis is C-C-N=N torsion, in degrees)
  C(HETATM    1  C   HET A   1)   0.00000005 +1   -0.0000000 +1    0.0000001 +1
  C(HETATM    2  C   HET A   1)   1.39445487 +1   -0.0000000 +1    0.0000000 +1     1     0     0
  C(HETATM    3  C   HET A   1)   1.39121807 +1  120.1682640 +1   -0.0000000 +1     2     1     0
  C(HETATM    4  C   HET A   1)   1.40117120 +1  119.4954449 +1    0.0003105 +1     3     2     1
  C(HETATM    5  C   HET A   1)   1.40358500 +1  120.4684712 +1    0.0020532 +1     4     3     2
  C(HETATM    6  C   HET A   1)   1.39083611 +1  119.3800372 +1   -0.0035273 +1     5     4     3
  N(HETATM    7  N   HET A   1)   1.42840594 +1  125.2765887 +1  179.9793242 +1     4     3     5
  N(HETATM    8  N   HET A   1)   1.25297568 +1  117.2594996 +1    0.1420330 +1     7     4     3
  C(HETATM    9  C   HET A   1)   1.42839870 +1  117.2592450 +1 -179.9966788 +1     8     7     4
  C(HETATM   10  C   HET A   1)   1.40358337 +1  114.2545200 +1  180.0000000 -1     9     8     7
  C(HETATM   11  C   HET A   1)   1.39083431 +1  119.3805487 +1  179.9930756 +1    10     9     8
  C(HETATM   12  C   HET A   1)   1.39494399 +1  120.2331267 +1    0.0166042 +1    11    10     9
  C(HETATM   13  C   HET A   1)   1.39445225 +1  120.2543569 +1   -0.0177993 +1    12    11    10
  C(HETATM   14  C   HET A   1)   1.40115579 +1  125.2770382 +1   -0.0000000 +0     9     8     7
  H(HETATM   15  H   HET A   1)   1.08885551 +1  119.8914637 +1  179.9995116 +1     1     2     3
  H(HETATM   16  H   HET A   1)   1.08878404 +1  119.9830905 +1 -179.9997581 +1     2     1     3
  H(HETATM   17  H   HET A   1)   1.09159439 +1  120.7047051 +1 -179.9985177 +1     3     2     4
  H(HETATM   18  H   HET A   1)   1.09078562 +1  119.7159385 +1 -179.9989249 +1     5     4     6
  H(HETATM   19  H   HET A   1)   1.08875028 +1  119.8322050 +1 -179.9980126 +1     6     5     4
  H(HETATM   20  H   HET A   1)   1.09078834 +1  119.7154521 +1 -179.9901387 +1    10     9    11
  H(HETATM   21  H   HET A   1)   1.08874980 +1  119.8327682 +1  179.9870136 +1    11    10    12
  H(HETATM   22  H   HET A   1)   1.08885524 +1  119.8536551 +1 -179.9903625 +1    12    11    13
  H(HETATM   23  H   HET A   1)   1.08878010 +1  119.9839914 +1  179.9960793 +1    13    12    14
  H(HETATM   24  H   HET A   1)   1.09159298 +1  120.7045896 +1  179.9995491 +1    14    13    12
 
  10  9   14
 

          Geometry optimization using EF

          DIAGONAL MATRIX USED AS START HESSIAN

 CYCLE:     1 TIME:   0.031 TIME LEFT:  2.00D  GRAD.:     0.097 HEAT:  95.33614
 CYCLE:     2 TIME:   0.016 TIME LEFT:  2.00D  GRAD.:     0.744 HEAT:  95.33620
 CYCLE:     3 TIME:   0.016 TIME LEFT:  2.00D  GRAD.:     3.572 HEAT:  95.33641
 CYCLE:     4 TIME:   0.016 TIME LEFT:  2.00D  GRAD.:     5.905 HEAT:  95.34116
 CYCLE:     5 TIME:   0.016 TIME LEFT:  2.00D  GRAD.:     8.522 HEAT:  95.33777
 CYCLE:     6 TIME:   0.078 TIME LEFT:  2.00D  GRAD.:    17.216 HEAT:  95.34348
 CYCLE:     7 TIME:   0.016 TIME LEFT:  2.00D  GRAD.:     0.782 HEAT:  95.33625
 CYCLE:     8 TIME:   0.016 TIME LEFT:  2.00D  GRAD.:     4.297 HEAT:  95.33838
 CYCLE:     9 TIME:   0.000 TIME LEFT:  2.00D  GRAD.:     0.220 HEAT:  95.33612
 CYCLE:    10 TIME:   0.016 TIME LEFT:  2.00D  GRAD.:     0.214 HEAT:  95.33612
 CYCLE:    11 TIME:   0.016 TIME LEFT:  2.00D  GRAD.:     0.135 HEAT:  95.33611
 CYCLE:    12 TIME:   0.016 TIME LEFT:  2.00D  GRAD.:     0.314 HEAT:  95.33613
 CYCLE:    13 TIME:   0.016 TIME LEFT:  2.00D  GRAD.:     0.074 HEAT:  95.33611
 CYCLE:    14 TIME:   0.016 TIME LEFT:  2.00D  GRAD.:     0.061 HEAT:  95.33611
 CYCLE:    15 TIME:   0.016 TIME LEFT:  2.00D  GRAD.:     0.034 HEAT:  95.33611

     GRADIENT =  0.03448 IS LESS THAN CUTOFF =  0.05000



          VARIABLE        FUNCTION
 :       181.00000       95.336107
 precise html  symmetry step=1 points=200  UHF
      Rotation of phenyl group in azobenzene
 (Horizontal axis is C-C-N=N torsion, in degrees)
  C(HETATM    1  C   HET A   1)   0.00000011 +1   -0.0000001 +1    0.0000003 +1
  C(HETATM    2  C   HET A   1)   1.39445277 +1   -0.0000000 +1    0.0000000 +1     1     0     0
  C(HETATM    3  C   HET A   1)   1.39121758 +1  120.1682191 +1    0.0000000 +1     2     1     0
  C(HETATM    4  C   HET A   1)   1.40116479 +1  119.4955642 +1    0.0021098 +1     3     2     1
  C(HETATM    5  C   HET A   1)   1.40358393 +1  120.4687318 +1   -0.0004834 +1     4     3     2
  C(HETATM    6  C   HET A   1)   1.39083468 +1  119.3797485 +1   -0.0005037 +1     5     4     3
  N(HETATM    7  N   HET A   1)   1.42840326 +1  125.2765824 +1  179.9860969 +1     4     3     5
  N(HETATM    8  N   HET A   1)   1.25297595 +1  117.2595324 +1    0.1698510 +1     7     4     3
  C(HETATM    9  C   HET A   1)   1.42840418 +1  117.2586885 +1 -179.9883748 +1     8     7     4
  C(HETATM   10  C   HET A   1)   1.40358308 +1  114.2555456 +1 -179.0000000 -1     9     8     7
  C(HETATM   11  C   HET A   1)   1.39083720 +1  119.3799369 +1 -179.9700795 +1    10     9     8
  C(HETATM   12  C   HET A   1)   1.39495102 +1  120.2334323 +1    0.0040642 +1    11    10     9
  C(HETATM   13  C   HET A   1)   1.39445274 +1  120.2543793 +1   -0.0205386 +1    12    11    10
  C(HETATM   14  C   HET A   1)   1.40116428 +1  125.2755266 +1    1.0000000 +0     9     8     7
  H(HETATM   15  H   HET A   1)   1.08885518 +1  119.8911221 +1  179.9985779 +1     1     2     3
  H(HETATM   16  H   HET A   1)   1.08878201 +1  119.9830027 +1 -179.9992328 +1     2     1     3
  H(HETATM   17  H   HET A   1)   1.09159243 +1  120.7049544 +1  179.9996261 +1     3     2     4
  H(HETATM   18  H   HET A   1)   1.09078797 +1  119.7162703 +1 -179.9961399 +1     5     4     6
  H(HETATM   19  H   HET A   1)   1.08874836 +1  119.8319544 +1 -179.9987345 +1     6     5     4
  H(HETATM   20  H   HET A   1)   1.09078718 +1  119.7159379 +1 -179.9984088 +1    10     9    11
  H(HETATM   21  H   HET A   1)   1.08874874 +1  119.8323993 +1  179.9960592 +1    11    10    12
  H(HETATM   22  H   HET A   1)   1.08885488 +1  119.8540535 +1 -179.9930998 +1    12    11    13
  H(HETATM   23  H   HET A   1)   1.08878217 +1  119.9835793 +1 -179.9910082 +1    13    12    14
  H(HETATM   24  H   HET A   1)   1.09159122 +1  120.7045546 +1 -179.9743651 +1    14    13    12
 
  10  9   14
 

          Geometry optimization using EF

          DIAGONAL MATRIX USED AS START HESSIAN

 CYCLE:     1 TIME:   0.031 TIME LEFT:  2.00D  GRAD.:     0.103 HEAT:  95.33658
 CYCLE:     2 TIME:   0.016 TIME LEFT:  2.00D  GRAD.:     0.759 HEAT:  95.33666
 CYCLE:     3 TIME:   0.016 TIME LEFT:  2.00D  GRAD.:     3.596 HEAT:  95.33686
 CYCLE:     4 TIME:   0.016 TIME LEFT:  2.00D  GRAD.:     6.784 HEAT:  95.34256
 CYCLE:     5 TIME:   0.016 TIME LEFT:  2.00D  GRAD.:     9.943 HEAT:  95.33877
 CYCLE:     6 TIME:   0.078 TIME LEFT:  2.00D  GRAD.:    18.767 HEAT:  95.34558
 CYCLE:     7 TIME:   0.016 TIME LEFT:  2.00D  GRAD.:     1.126 HEAT:  95.33675
 CYCLE:     8 TIME:   0.016 TIME LEFT:  2.00D  GRAD.:     5.830 HEAT:  95.34009
 CYCLE:     9 TIME:   0.016 TIME LEFT:  2.00D  GRAD.:     0.263 HEAT:  95.33656
 CYCLE:    10 TIME:   0.031 TIME LEFT:  2.00D  GRAD.:     0.239 HEAT:  95.33656
 CYCLE:    11 TIME:   0.016 TIME LEFT:  2.00D  GRAD.:     0.188 HEAT:  95.33655
 CYCLE:    12 TIME:   0.016 TIME LEFT:  2.00D  GRAD.:     0.325 HEAT:  95.33656
 CYCLE:    13 TIME:   0.016 TIME LEFT:  2.00D  GRAD.:     0.112 HEAT:  95.33654
 CYCLE:    14 TIME:   0.016 TIME LEFT:  2.00D  GRAD.:     0.149 HEAT:  95.33655
 CYCLE:    15 TIME:   0.031 TIME LEFT:  2.00D  GRAD.:     0.078 HEAT:  95.33654
 CYCLE:    16 TIME:   0.000 TIME LEFT:  2.00D  GRAD.:     0.042 HEAT:  95.33654

     GRADIENT =  0.04209 IS LESS THAN CUTOFF =  0.05000



          VARIABLE        FUNCTION
 :       182.00000       95.336540
 precise html  symmetry step=1 points=200  UHF
      Rotation of phenyl group in azobenzene
 (Horizontal axis is C-C-N=N torsion, in degrees)
  C(HETATM    1  C   HET A   1)   0.00000017 +1   -0.0000002 +1    0.0000004 +1
  C(HETATM    2  C   HET A   1)   1.39445218 +1   -0.0000000 +1    0.0000000 +1     1     0     0
  C(HETATM    3  C   HET A   1)   1.39122078 +1  120.1674472 +1    0.0000000 +1     2     1     0
  C(HETATM    4  C   HET A   1)   1.40116866 +1  119.4954363 +1   -0.0005257 +1     3     2     1
  C(HETATM    5  C   HET A   1)   1.40358287 +1  120.4688660 +1   -0.0058825 +1     4     3     2
  C(HETATM    6  C   HET A   1)   1.39083312 +1  119.3802220 +1    0.0065058 +1     5     4     3
  N(HETATM    7  N   HET A   1)   1.42840852 +1  125.2770856 +1  179.9838742 +1     4     3     5
  N(HETATM    8  N   HET A   1)   1.25298306 +1  117.2602417 +1    0.2233927 +1     7     4     3
  C(HETATM    9  C   HET A   1)   1.42841024 +1  117.2568165 +1 -179.9804699 +1     8     7     4
  C(HETATM   10  C   HET A   1)   1.40358205 +1  114.2588596 +1 -178.0000000 -1     9     8     7
  C(HETATM   11  C   HET A   1)   1.39083770 +1  119.3793532 +1 -179.9326559 +1    10     9     8
  C(HETATM   12  C   HET A   1)   1.39495168 +1  120.2334557 +1   -0.0045138 +1    11    10     9
  C(HETATM   13  C   HET A   1)   1.39444933 +1  120.2542651 +1   -0.0297585 +1    12    11    10
  C(HETATM   14  C   HET A   1)   1.40116089 +1  125.2710972 +1    2.0000000 +0     9     8     7
  H(HETATM   15  H   HET A   1)   1.08885516 +1  119.8915714 +1 -179.9992819 +1     1     2     3
  H(HETATM   16  H   HET A   1)   1.08878267 +1  119.9835922 +1  179.9997293 +1     2     1     3
  H(HETATM   17  H   HET A   1)   1.09159393 +1  120.7044635 +1  179.9977361 +1     3     2     4
  H(HETATM   18  H   HET A   1)   1.09078896 +1  119.7157331 +1 -179.9935033 +1     5     4     6
  H(HETATM   19  H   HET A   1)   1.08874814 +1  119.8324312 +1 -179.9988775 +1     6     5     4
  H(HETATM   20  H   HET A   1)   1.09078523 +1  119.7165489 +1  179.9945448 +1    10     9    11
  H(HETATM   21  H   HET A   1)   1.08874917 +1  119.8322547 +1  179.9999018 +1    11    10    12
  H(HETATM   22  H   HET A   1)   1.08885415 +1  119.8540601 +1 -179.9902882 +1    12    11    13
  H(HETATM   23  H   HET A   1)   1.08878169 +1  119.9836726 +1 -179.9786659 +1    13    12    14
  H(HETATM   24  H   HET A   1)   1.09158764 +1  120.7048052 +1 -179.9480105 +1    14    13    12
 
  10  9   14
 

          Geometry optimization using EF

          DIAGONAL MATRIX USED AS START HESSIAN

 CYCLE:     1 TIME:   0.031 TIME LEFT:  2.00D  GRAD.:     0.120 HEAT:  95.33733
 CYCLE:     2 TIME:   0.016 TIME LEFT:  2.00D  GRAD.:     1.060 HEAT:  95.33742
 CYCLE:     3 TIME:   0.016 TIME LEFT:  2.00D  GRAD.:     5.552 HEAT:  95.33801
 CYCLE:     4 TIME:   0.016 TIME LEFT:  2.00D  GRAD.:     2.910 HEAT:  95.33998
 CYCLE:     5 TIME:   0.016 TIME LEFT:  2.00D  GRAD.:     4.578 HEAT:  95.33782
 CYCLE:     6 TIME:   0.047 TIME LEFT:  2.00D  GRAD.:    17.099 HEAT:  95.34459
 CYCLE:     7 TIME:   0.016 TIME LEFT:  2.00D  GRAD.:     4.285 HEAT:  95.33843
 CYCLE:     8 TIME:   0.016 TIME LEFT:  2.00D  GRAD.:     9.384 HEAT:  95.34186
 CYCLE:     9 TIME:   0.016 TIME LEFT:  2.00D  GRAD.:     1.526 HEAT:  95.33768
 CYCLE:    10 TIME:   0.016 TIME LEFT:  2.00D  GRAD.:     6.507 HEAT:  95.34050
 CYCLE:    11 TIME:   0.016 TIME LEFT:  2.00D  GRAD.:     0.243 HEAT:  95.33729
 CYCLE:    12 TIME:   0.016 TIME LEFT:  2.00D  GRAD.:     0.657 HEAT:  95.33736
 CYCLE:    13 TIME:   0.016 TIME LEFT:  2.00D  GRAD.:     0.081 HEAT:  95.33728
 CYCLE:    14 TIME:   0.016 TIME LEFT:  2.00D  GRAD.:     0.079 HEAT:  95.33728
 CYCLE:    15 TIME:   0.016 TIME LEFT:  2.00D  GRAD.:     0.059 HEAT:  95.33727
 CYCLE:    16 TIME:   0.016 TIME LEFT:  2.00D  GRAD.:     0.136 HEAT:  95.33727
 CYCLE:    17 TIME:   0.000 TIME LEFT:  2.00D  GRAD.:     0.084 HEAT:  95.33727
 CYCLE:    18 TIME:   0.016 TIME LEFT:  2.00D  GRAD.:     0.104 HEAT:  95.33727
 CYCLE:    19 TIME:   0.016 TIME LEFT:  2.00D  GRAD.:     0.061 HEAT:  95.33726
 CYCLE:    20 TIME:   0.016 TIME LEFT:  2.00D  GRAD.:     0.055 HEAT:  95.33726
 CYCLE:    21 TIME:   0.016 TIME LEFT:  2.00D  GRAD.:     0.047 HEAT:  95.33726

     GRADIENT =  0.04734 IS LESS THAN CUTOFF =  0.05000



          VARIABLE        FUNCTION
 :       183.00000       95.337257
 precise html  symmetry step=1 points=200  UHF
      Rotation of phenyl group in azobenzene
 (Horizontal axis is C-C-N=N torsion, in degrees)
  C(HETATM    1  C   HET A   1)   0.00000032 +1   -0.0000003 +1    0.0000008 +1
  C(HETATM    2  C   HET A   1)   1.39445633 +1   -0.0000000 +1   -0.0000000 +1     1     0     0
  C(HETATM    3  C   HET A   1)   1.39121800 +1  120.1678398 +1    0.0000000 +1     2     1     0
  C(HETATM    4  C   HET A   1)   1.40116728 +1  119.4951918 +1   -0.0145433 +1     3     2     1
  C(HETATM    5  C   HET A   1)   1.40357840 +1  120.4693096 +1   -0.0029220 +1     4     3     2
  C(HETATM    6  C   HET A   1)   1.39083672 +1  119.3796155 +1    0.0142002 +1     5     4     3
  N(HETATM    7  N   HET A   1)   1.42841273 +1  125.2768202 +1  179.9637208 +1     4     3     5
  N(HETATM    8  N   HET A   1)   1.25297572 +1  117.2604692 +1    0.3334615 +1     7     4     3
  C(HETATM    9  C   HET A   1)   1.42841731 +1  117.2544698 +1 -179.9806969 +1     8     7     4
  C(HETATM   10  C   HET A   1)   1.40357409 +1  114.2641628 +1 -177.0000000 -1     9     8     7
  C(HETATM   11  C   HET A   1)   1.39083800 +1  119.3782279 +1 -179.8940293 +1    10     9     8
  C(HETATM   12  C   HET A   1)   1.39495415 +1  120.2339278 +1   -0.0155858 +1    11    10     9
  C(HETATM   13  C   HET A   1)   1.39444880 +1  120.2543035 +1   -0.0370072 +1    12    11    10
  C(HETATM   14  C   HET A   1)   1.40115500 +1  125.2645058 +1    3.0000000 +0     9     8     7
  H(HETATM   15  H   HET A   1)   1.08885601 +1  119.8910295 +1 -179.9872057 +1     1     2     3
  H(HETATM   16  H   HET A   1)   1.08878265 +1  119.9829497 +1  179.9919875 +1     2     1     3
  H(HETATM   17  H   HET A   1)   1.09159459 +1  120.7049040 +1  179.9996727 +1     3     2     4
  H(HETATM   18  H   HET A   1)   1.09078978 +1  119.7162476 +1 -179.9962486 +1     5     4     6
  H(HETATM   19  H   HET A   1)   1.08874862 +1  119.8318724 +1  179.9935159 +1     6     5     4
  H(HETATM   20  H   HET A   1)   1.09078138 +1  119.7174352 +1  179.9838732 +1    10     9    11
  H(HETATM   21  H   HET A   1)   1.08875002 +1  119.8319729 +1 -179.9957354 +1    11    10    12
  H(HETATM   22  H   HET A   1)   1.08885255 +1  119.8541168 +1 -179.9860923 +1    12    11    13
  H(HETATM   23  H   HET A   1)   1.08878249 +1  119.9835772 +1 -179.9656226 +1    13    12    14
  H(HETATM   24  H   HET A   1)   1.09158136 +1  120.7053775 +1 -179.9228343 +1    14    13    12
 
  10  9   14
 

          Geometry optimization using EF

          DIAGONAL MATRIX USED AS START HESSIAN

 CYCLE:     1 TIME:   0.031 TIME LEFT:  2.00D  GRAD.:     0.139 HEAT:  95.33836
 CYCLE:     2 TIME:   0.031 TIME LEFT:  2.00D  GRAD.:     1.423 HEAT:  95.33848
 CYCLE:     3 TIME:   0.016 TIME LEFT:  2.00D  GRAD.:     7.800 HEAT:  95.33985
 CYCLE:     4 TIME:   0.016 TIME LEFT:  2.00D  GRAD.:     2.226 HEAT:  95.33949
 CYCLE:     5 TIME:   0.047 TIME LEFT:  2.00D  GRAD.:    11.057 HEAT:  95.34138
 CYCLE:     6 TIME:   0.031 TIME LEFT:  2.00D  GRAD.:    16.458 HEAT:  95.35120
 CYCLE:     7 TIME:   0.016 TIME LEFT:  2.00D  GRAD.:     7.051 HEAT:  95.33967
 CYCLE:     8 TIME:   0.016 TIME LEFT:  2.00D  GRAD.:     4.993 HEAT:  95.33963
 CYCLE:     9 TIME:   0.016 TIME LEFT:  2.00D  GRAD.:     4.755 HEAT:  95.33993
 CYCLE:    10 TIME:   0.016 TIME LEFT:  2.00D  GRAD.:     4.394 HEAT:  95.33872
 CYCLE:    11 TIME:   0.016 TIME LEFT:  2.00D  GRAD.:     0.675 HEAT:  95.33828
 CYCLE:    12 TIME:   0.016 TIME LEFT:  2.00D  GRAD.:     0.441 HEAT:  95.33827
 CYCLE:    13 TIME:   0.016 TIME LEFT:  2.00D  GRAD.:     0.333 HEAT:  95.33825
 CYCLE:    14 TIME:   0.000 TIME LEFT:  2.00D  GRAD.:     0.227 HEAT:  95.33824
 CYCLE:    15 TIME:   0.031 TIME LEFT:  2.00D  GRAD.:     0.182 HEAT:  95.33823
 CYCLE:    16 TIME:   0.016 TIME LEFT:  2.00D  GRAD.:     0.119 HEAT:  95.33822
 CYCLE:    17 TIME:   0.016 TIME LEFT:  2.00D  GRAD.:     0.115 HEAT:  95.33821
 CYCLE:    18 TIME:   0.016 TIME LEFT:  2.00D  GRAD.:     0.120 HEAT:  95.33821
 CYCLE:    19 TIME:   0.016 TIME LEFT:  2.00D  GRAD.:     0.187 HEAT:  95.33820
 CYCLE:    20 TIME:   0.016 TIME LEFT:  2.00D  GRAD.:     0.066 HEAT:  95.33819
 CYCLE:    21 TIME:   0.016 TIME LEFT:  2.00D  GRAD.:     0.209 HEAT:  95.33819
 CYCLE:    22 TIME:   0.016 TIME LEFT:  2.00D  GRAD.:     0.098 HEAT:  95.33818
 CYCLE:    23 TIME:   0.016 TIME LEFT:  2.00D  GRAD.:     0.230 HEAT:  95.33817
 CYCLE:    24 TIME:   0.016 TIME LEFT:  2.00D  GRAD.:     0.124 HEAT:  95.33817
 CYCLE:    25 TIME:   0.000 TIME LEFT:  2.00D  GRAD.:     0.131 HEAT:  95.33816
 CYCLE:    26 TIME:   0.016 TIME LEFT:  2.00D  GRAD.:     0.075 HEAT:  95.33816
 CYCLE:    27 TIME:   0.016 TIME LEFT:  2.00D  GRAD.:     0.052 HEAT:  95.33816
 CYCLE:    28 TIME:   0.016 TIME LEFT:  2.00D  GRAD.:     0.054 HEAT:  95.33815
 CYCLE:    29 TIME:   0.016 TIME LEFT:  2.00D  GRAD.:     0.041 HEAT:  95.33814

     GRADIENT =  0.04055 IS LESS THAN CUTOFF =  0.05000



          VARIABLE        FUNCTION
 :       184.00000       95.338144
 precise html  symmetry step=1 points=200  UHF
      Rotation of phenyl group in azobenzene
 (Horizontal axis is C-C-N=N torsion, in degrees)
  C(HETATM    1  C   HET A   1)   0.00000067 +1   -0.0000006 +1    0.0000016 +1
  C(HETATM    2  C   HET A   1)   1.39445319 +1    0.0000000 +1   -0.0000000 +1     1     0     0
  C(HETATM    3  C   HET A   1)   1.39121593 +1  120.1678290 +1   -0.0000000 +1     2     1     0
  C(HETATM    4  C   HET A   1)   1.40116090 +1  119.4952059 +1   -0.0304211 +1     3     2     1
  C(HETATM    5  C   HET A   1)   1.40357998 +1  120.4694629 +1    0.0088023 +1     4     3     2
  C(HETATM    6  C   HET A   1)   1.39083804 +1  119.3797428 +1    0.0109235 +1     5     4     3
  N(HETATM    7  N   HET A   1)   1.42841486 +1  125.2758741 +1  179.9281706 +1     4     3     5
  N(HETATM    8  N   HET A   1)   1.25295550 +1  117.2606857 +1    0.6316705 +1     7     4     3
  C(HETATM    9  C   HET A   1)   1.42842557 +1  117.2508340 +1 -179.9691842 +1     8     7     4
  C(HETATM   10  C   HET A   1)   1.40356385 +1  114.2711492 +1 -176.0000000 -1     9     8     7
  C(HETATM   11  C   HET A   1)   1.39083642 +1  119.3769598 +1 -179.8596978 +1    10     9     8
  C(HETATM   12  C   HET A   1)   1.39495698 +1  120.2341408 +1   -0.0220703 +1    11    10     9
  C(HETATM   13  C   HET A   1)   1.39444539 +1  120.2545546 +1   -0.0478893 +1    12    11    10
  C(HETATM   14  C   HET A   1)   1.40114574 +1  125.2553867 +1    4.0000000 +0     9     8     7
  H(HETATM   15  H   HET A   1)   1.08885624 +1  119.8913063 +1 -179.9762988 +1     1     2     3
  H(HETATM   16  H   HET A   1)   1.08878276 +1  119.9834475 +1  179.9818877 +1     2     1     3
  H(HETATM   17  H   HET A   1)   1.09159537 +1  120.7047446 +1 -179.9909964 +1     3     2     4
  H(HETATM   18  H   HET A   1)   1.09079161 +1  119.7159304 +1 -179.9927836 +1     5     4     6
  H(HETATM   19  H   HET A   1)   1.08874931 +1  119.8322254 +1  179.9914488 +1     6     5     4
  H(HETATM   20  H   HET A   1)   1.09077668 +1  119.7185063 +1  179.9805399 +1    10     9    11
  H(HETATM   21  H   HET A   1)   1.08875030 +1  119.8318994 +1 -179.9930061 +1    11    10    12
  H(HETATM   22  H   HET A   1)   1.08885124 +1  119.8538439 +1 -179.9831085 +1    12    11    13
  H(HETATM   23  H   HET A   1)   1.08878247 +1  119.9838806 +1 -179.9564079 +1    13    12    14
  H(HETATM   24  H   HET A   1)   1.09157285 +1  120.7058360 +1 -179.9000994 +1    14    13    12
 
  10  9   14
 

          Geometry optimization using EF

          DIAGONAL MATRIX USED AS START HESSIAN

 CYCLE:     1 TIME:   0.031 TIME LEFT:  2.00D  GRAD.:     0.150 HEAT:  95.33954
 CYCLE:     2 TIME:   0.016 TIME LEFT:  2.00D  GRAD.:     1.043 HEAT:  95.33965
 CYCLE:     3 TIME:   0.016 TIME LEFT:  2.00D  GRAD.:     6.536 HEAT:  95.34043
 CYCLE:     4 TIME:   0.016 TIME LEFT:  2.00D  GRAD.:     3.734 HEAT:  95.34340
 CYCLE:     5 TIME:   0.016 TIME LEFT:  2.00D  GRAD.:     4.074 HEAT:  95.33994
 CYCLE:     6 TIME:   0.047 TIME LEFT:  2.00D  GRAD.:    12.737 HEAT:  95.34350
 CYCLE:     7 TIME:   0.016 TIME LEFT:  2.00D  GRAD.:     7.147 HEAT:  95.34186
 CYCLE:     8 TIME:   0.016 TIME LEFT:  2.00D  GRAD.:    10.328 HEAT:  95.34378
 CYCLE:     9 TIME:   0.016 TIME LEFT:  2.00D  GRAD.:     3.604 HEAT:  95.34015
 CYCLE:    10 TIME:   0.016 TIME LEFT:  2.00D  GRAD.:     9.694 HEAT:  95.34268
 CYCLE:    11 TIME:   0.016 TIME LEFT:  2.00D  GRAD.:     0.431 HEAT:  95.33942
 CYCLE:    12 TIME:   0.016 TIME LEFT:  2.00D  GRAD.:     0.634 HEAT:  95.33947
 CYCLE:    13 TIME:   0.016 TIME LEFT:  2.00D  GRAD.:     0.157 HEAT:  95.33940
 CYCLE:    14 TIME:   0.016 TIME LEFT:  2.00D  GRAD.:     0.070 HEAT:  95.33939
 CYCLE:    15 TIME:   0.000 TIME LEFT:  2.00D  GRAD.:     0.147 HEAT:  95.33938
 CYCLE:    16 TIME:   0.016 TIME LEFT:  2.00D  GRAD.:     0.146 HEAT:  95.33936
 CYCLE:    17 TIME:   0.016 TIME LEFT:  2.00D  GRAD.:     0.074 HEAT:  95.33935
 CYCLE:    18 TIME:   0.016 TIME LEFT:  2.00D  GRAD.:     0.941 HEAT:  95.33933
 CYCLE:    19 TIME:   0.016 TIME LEFT:  2.00D  GRAD.:     0.383 HEAT:  95.33929
 CYCLE:    20 TIME:   0.016 TIME LEFT:  2.00D  GRAD.:     0.364 HEAT:  95.33921
 CYCLE:    21 TIME:   0.016 TIME LEFT:  2.00D  GRAD.:     0.285 HEAT:  95.33915
 CYCLE:    22 TIME:   0.016 TIME LEFT:  2.00D  GRAD.:     0.224 HEAT:  95.33909
 CYCLE:    23 TIME:   0.031 TIME LEFT:  2.00D  GRAD.:     0.071 HEAT:  95.33906
 CYCLE:    24 TIME:   0.016 TIME LEFT:  2.00D  GRAD.:     0.328 HEAT:  95.33896
 CYCLE:    25 TIME:   0.016 TIME LEFT:  2.00D  GRAD.:     0.836 HEAT:  95.33873
 CYCLE:    26 TIME:   0.031 TIME LEFT:  2.00D  GRAD.:     0.983 HEAT:  95.33833
 CYCLE:    27 TIME:   0.031 TIME LEFT:  2.00D  GRAD.:     0.865 HEAT:  95.33716
 CYCLE:    28 TIME:   0.016 TIME LEFT:  2.00D  GRAD.:     0.272 HEAT:  95.33704
 CYCLE:    29 TIME:   0.031 TIME LEFT:  2.00D  GRAD.:     0.203 HEAT:  95.33685
 CYCLE:    30 TIME:   0.031 TIME LEFT:  2.00D  GRAD.:     0.104 HEAT:  95.33679
 CYCLE:    31 TIME:   0.016 TIME LEFT:  2.00D  GRAD.:     0.239 HEAT:  95.33693
 CYCLE:    32 TIME:   0.031 TIME LEFT:  2.00D  GRAD.:     0.128 HEAT:  95.33676
 CYCLE:    33 TIME:   0.031 TIME LEFT:  2.00D  GRAD.:     0.609 HEAT:  95.33760
 CYCLE:    34 TIME:   0.016 TIME LEFT:  2.00D  GRAD.:     0.161 HEAT:  95.33659
 CYCLE:    35 TIME:   0.031 TIME LEFT:  2.00D  GRAD.:     0.146 HEAT:  95.33653
 CYCLE:    36 TIME:   0.016 TIME LEFT:  2.00D  GRAD.:     0.128 HEAT:  95.33652
 CYCLE:    37 TIME:   0.016 TIME LEFT:  2.00D  GRAD.:     0.245 HEAT:  95.33646
 CYCLE:    38 TIME:   0.016 TIME LEFT:  2.00D  GRAD.:     0.127 HEAT:  95.33646
 CYCLE:    39 TIME:   0.031 TIME LEFT:  2.00D  GRAD.:     0.089 HEAT:  95.33642
 CYCLE:    40 TIME:   0.094 TIME LEFT:  2.00D  GRAD.:     1.044 HEAT:  95.33893
 CYCLE:    41 TIME:   0.031 TIME LEFT:  2.00D  GRAD.:     0.233 HEAT:  95.33652
 CYCLE:    42 TIME:   0.016 TIME LEFT:  2.00D  GRAD.:     0.102 HEAT:  95.33642
 CYCLE:    43 TIME:   0.031 TIME LEFT:  2.00D  GRAD.:     0.100 HEAT:  95.33643
 CYCLE:    44 TIME:   0.016 TIME LEFT:  2.00D  GRAD.:     0.120 HEAT:  95.33643
 CYCLE:    45 TIME:   0.016 TIME LEFT:  2.00D  GRAD.:     0.081 HEAT:  95.33641
 CYCLE:    46 TIME:   0.016 TIME LEFT:  2.00D  GRAD.:     0.060 HEAT:  95.33641
 CYCLE:    47 TIME:   0.016 TIME LEFT:  2.00D  GRAD.:     0.045 HEAT:  95.33640

     GRADIENT =  0.04479 IS LESS THAN CUTOFF =  0.05000



          VARIABLE        FUNCTION
 :       185.00000       95.336404
 precise html  symmetry step=1 points=200  UHF
      Rotation of phenyl group in azobenzene
 (Horizontal axis is C-C-N=N torsion, in degrees)
  C(HETATM    1  C   HET A   1)   0.00000781 +1   -0.0000072 +1    0.0000192 +1
  C(HETATM    2  C   HET A   1)   1.39442313 +1    0.0000000 +1    0.0000000 +1     1     0     0
  C(HETATM    3  C   HET A   1)   1.39125942 +1  120.1678062 +1   -0.0000000 +1     2     1     0
  C(HETATM    4  C   HET A   1)   1.40109588 +1  119.4867598 +1    0.0565250 +1     3     2     1
  C(HETATM    5  C   HET A   1)   1.40352903 +1  120.4843449 +1    0.0267722 +1     4     3     2
  C(HETATM    6  C   HET A   1)   1.39082711 +1  119.3702814 +1   -0.1159682 +1     5     4     3
  N(HETATM    7  N   HET A   1)   1.42845675 +1  125.2005514 +1  179.0590824 +1     4     3     5
  N(HETATM    8  N   HET A   1)   1.25289100 +1  117.2398265 +1    7.5094906 +1     7     4     3
  C(HETATM    9  C   HET A   1)   1.42846147 +1  117.2523769 +1 -179.7801798 +1     8     7     4
  C(HETATM   10  C   HET A   1)   1.40354357 +1  114.2797275 +1 -175.0000000 -1     9     8     7
  C(HETATM   11  C   HET A   1)   1.39083850 +1  119.3741886 +1 -179.8160397 +1    10     9     8
  C(HETATM   12  C   HET A   1)   1.39496112 +1  120.2339320 +1   -0.0241221 +1    11    10     9
  C(HETATM   13  C   HET A   1)   1.39444511 +1  120.2555734 +1   -0.0677196 +1    12    11    10
  C(HETATM   14  C   HET A   1)   1.40112871 +1  125.2418464 +1    5.0000000 +0     9     8     7
  H(HETATM   15  H   HET A   1)   1.08884378 +1  119.8920672 +1  179.9700683 +1     1     2     3
  H(HETATM   16  H   HET A   1)   1.08878518 +1  119.9853181 +1 -179.9793873 +1     2     1     3
  H(HETATM   17  H   HET A   1)   1.09154164 +1  120.7087701 +1 -179.9766272 +1     3     2     4
  H(HETATM   18  H   HET A   1)   1.09076244 +1  119.7223646 +1 -179.9560038 +1     5     4     6
  H(HETATM   19  H   HET A   1)   1.08875547 +1  119.8316629 +1 -179.9160144 +1     6     5     4
  H(HETATM   20  H   HET A   1)   1.09078918 +1  119.7188608 +1 -179.9992468 +1    10     9    11
  H(HETATM   21  H   HET A   1)   1.08875388 +1  119.8318253 +1 -179.9880134 +1    11    10    12
  H(HETATM   22  H   HET A   1)   1.08885295 +1  119.8532824 +1 -179.9760711 +1    12    11    13
  H(HETATM   23  H   HET A   1)   1.08878469 +1  119.9843399 +1 -179.9463650 +1    13    12    14
  H(HETATM   24  H   HET A   1)   1.09157645 +1  120.7070190 +1 -179.8787215 +1    14    13    12
 
  10  9   14
 

          Geometry optimization using EF

          DIAGONAL MATRIX USED AS START HESSIAN

 CYCLE:     1 TIME:   0.031 TIME LEFT:  2.00D  GRAD.:     0.124 HEAT:  95.33700
 CYCLE:     2 TIME:   0.016 TIME LEFT:  2.00D  GRAD.:     1.269 HEAT:  95.33707
 CYCLE:     3 TIME:   0.016 TIME LEFT:  2.00D  GRAD.:     6.452 HEAT:  95.33805
 CYCLE:     4 TIME:   0.016 TIME LEFT:  2.00D  GRAD.:     1.716 HEAT:  95.33767
 CYCLE:     5 TIME:   0.016 TIME LEFT:  2.00D  GRAD.:    19.318 HEAT:  95.34573
 CYCLE:     6 TIME:   0.031 TIME LEFT:  2.00D  GRAD.:    10.760 HEAT:  95.34308
 CYCLE:     7 TIME:   0.016 TIME LEFT:  2.00D  GRAD.:     8.970 HEAT:  95.33876
 CYCLE:     8 TIME:   0.016 TIME LEFT:  2.00D  GRAD.:     2.681 HEAT:  95.33715
 CYCLE:     9 TIME:   0.000 TIME LEFT:  2.00D  GRAD.:     1.384 HEAT:  95.33702
 CYCLE:    10 TIME:   0.016 TIME LEFT:  2.00D  GRAD.:     0.309 HEAT:  95.33697
 CYCLE:    11 TIME:   0.016 TIME LEFT:  2.00D  GRAD.:     0.420 HEAT:  95.33698
 CYCLE:    12 TIME:   0.016 TIME LEFT:  2.00D  GRAD.:     0.177 HEAT:  95.33697
 CYCLE:    13 TIME:   0.016 TIME LEFT:  2.00D  GRAD.:     0.634 HEAT:  95.33700
 CYCLE:    14 TIME:   0.016 TIME LEFT:  2.00D  GRAD.:     0.080 HEAT:  95.33696
 CYCLE:    15 TIME:   0.016 TIME LEFT:  2.00D  GRAD.:     0.155 HEAT:  95.33696
 CYCLE:    16 TIME:   0.000 TIME LEFT:  2.00D  GRAD.:     0.047 HEAT:  95.33696

     GRADIENT =  0.04679 IS LESS THAN CUTOFF =  0.05000



          VARIABLE        FUNCTION
 :       186.00000       95.336958
 precise html  symmetry step=1 points=200  UHF
      Rotation of phenyl group in azobenzene
 (Horizontal axis is C-C-N=N torsion, in degrees)
  C(HETATM    1  C   HET A   1)   0.00000787 +1   -0.0000072 +1    0.0000193 +1
  C(HETATM    2  C   HET A   1)   1.39442907 +1    0.0000000 +1    0.0000000 +1     1     0     0
  C(HETATM    3  C   HET A   1)   1.39125737 +1  120.1672411 +1   -0.0000000 +1     2     1     0
  C(HETATM    4  C   HET A   1)   1.40109988 +1  119.4862648 +1    0.0592332 +1     3     2     1
  C(HETATM    5  C   HET A   1)   1.40352000 +1  120.4853693 +1    0.0239731 +1     4     3     2
  C(HETATM    6  C   HET A   1)   1.39083067 +1  119.3699955 +1   -0.1118649 +1     5     4     3
  N(HETATM    7  N   HET A   1)   1.42846316 +1  125.2005081 +1  179.0704275 +1     4     3     5
  N(HETATM    8  N   HET A   1)   1.25286776 +1  117.2408177 +1    7.5255525 +1     7     4     3
  C(HETATM    9  C   HET A   1)   1.42847124 +1  117.2461555 +1 -179.7809244 +1     8     7     4
  C(HETATM   10  C   HET A   1)   1.40353527 +1  114.2906189 +1 -174.0000000 -1     9     8     7
  C(HETATM   11  C   HET A   1)   1.39083311 +1  119.3720697 +1 -179.7844095 +1    10     9     8
  C(HETATM   12  C   HET A   1)   1.39496631 +1  120.2342666 +1   -0.0284126 +1    11    10     9
  C(HETATM   13  C   HET A   1)   1.39443515 +1  120.2555127 +1   -0.0797631 +1    12    11    10
  C(HETATM   14  C   HET A   1)   1.40111427 +1  125.2270252 +1    6.0000000 +0     9     8     7
  H(HETATM   15  H   HET A   1)   1.08884494 +1  119.8916583 +1  179.9683931 +1     1     2     3
  H(HETATM   16  H   HET A   1)   1.08878521 +1  119.9849092 +1 -179.9776194 +1     2     1     3
  H(HETATM   17  H   HET A   1)   1.09154455 +1  120.7089689 +1 -179.9802294 +1     3     2     4
  H(HETATM   18  H   HET A   1)   1.09076714 +1  119.7222450 +1 -179.9559805 +1     5     4     6
  H(HETATM   19  H   HET A   1)   1.08875546 +1  119.8313006 +1 -179.9191028 +1     6     5     4
  H(HETATM   20  H   HET A   1)   1.09078270 +1  119.7202509 +1  179.9968554 +1    10     9    11
  H(HETATM   21  H   HET A   1)   1.08875437 +1  119.8318124 +1 -179.9863501 +1    11    10    12
  H(HETATM   22  H   HET A   1)   1.08885043 +1  119.8529020 +1 -179.9717609 +1    12    11    13
  H(HETATM   23  H   HET A   1)   1.08878511 +1  119.9847165 +1 -179.9360224 +1    13    12    14
  H(HETATM   24  H   HET A   1)   1.09156457 +1  120.7079531 +1 -179.8545554 +1    14    13    12
 
  10  9   14
 

          Geometry optimization using EF

          DIAGONAL MATRIX USED AS START HESSIAN

 CYCLE:     1 TIME:   0.031 TIME LEFT:  2.00D  GRAD.:     0.139 HEAT:  95.33793
 CYCLE:     2 TIME:   0.016 TIME LEFT:  2.00D  GRAD.:     0.756 HEAT:  95.33801
 CYCLE:     3 TIME:   0.016 TIME LEFT:  2.00D  GRAD.:     4.145 HEAT:  95.33827
 CYCLE:     4 TIME:   0.016 TIME LEFT:  2.00D  GRAD.:     7.512 HEAT:  95.34554
 CYCLE:     5 TIME:   0.016 TIME LEFT:  2.00D  GRAD.:     4.531 HEAT:  95.33837
 CYCLE:     6 TIME:   0.062 TIME LEFT:  2.00D  GRAD.:    10.681 HEAT:  95.34061
 CYCLE:     7 TIME:   0.016 TIME LEFT:  2.00D  GRAD.:     0.555 HEAT:  95.33796
 CYCLE:     8 TIME:   0.016 TIME LEFT:  2.00D  GRAD.:     2.025 HEAT:  95.33883
 CYCLE:     9 TIME:   0.016 TIME LEFT:  2.00D  GRAD.:     0.226 HEAT:  95.33789
 CYCLE:    10 TIME:   0.016 TIME LEFT:  2.00D  GRAD.:     0.538 HEAT:  95.33793
 CYCLE:    11 TIME:   0.016 TIME LEFT:  2.00D  GRAD.:     0.121 HEAT:  95.33787
 CYCLE:    12 TIME:   0.016 TIME LEFT:  2.00D  GRAD.:     0.244 HEAT:  95.33788
 CYCLE:    13 TIME:   0.016 TIME LEFT:  2.00D  GRAD.:     0.081 HEAT:  95.33787
 CYCLE:    14 TIME:   0.016 TIME LEFT:  2.00D  GRAD.:     0.127 HEAT:  95.33787
 CYCLE:    15 TIME:   0.016 TIME LEFT:  2.00D  GRAD.:     0.088 HEAT:  95.33787
 CYCLE:    16 TIME:   0.016 TIME LEFT:  2.00D  GRAD.:     0.074 HEAT:  95.33786
 CYCLE:    17 TIME:   0.016 TIME LEFT:  2.00D  GRAD.:     0.043 HEAT:  95.33786

     GRADIENT =  0.04345 IS LESS THAN CUTOFF =  0.05000



          VARIABLE        FUNCTION
 :       187.00000       95.337863
 precise html  symmetry step=1 points=200  UHF
      Rotation of phenyl group in azobenzene
 (Horizontal axis is C-C-N=N torsion, in degrees)
  C(HETATM    1  C   HET A   1)   0.00000794 +1   -0.0000073 +1    0.0000195 +1
  C(HETATM    2  C   HET A   1)   1.39442663 +1    0.0000000 +1    0.0000000 +1     1     0     0
  C(HETATM    3  C   HET A   1)   1.39125843 +1  120.1675545 +1   -0.0000000 +1     2     1     0
  C(HETATM    4  C   HET A   1)   1.40109264 +1  119.4858738 +1    0.0622167 +1     3     2     1
  C(HETATM    5  C   HET A   1)   1.40351969 +1  120.4859809 +1    0.0138782 +1     4     3     2
  C(HETATM    6  C   HET A   1)   1.39083004 +1  119.3695397 +1   -0.1030894 +1     5     4     3
  N(HETATM    7  N   HET A   1)   1.42847175 +1  125.1985216 +1  179.0675643 +1     4     3     5
  N(HETATM    8  N   HET A   1)   1.25285880 +1  117.2415619 +1    7.5852009 +1     7     4     3
  C(HETATM    9  C   HET A   1)   1.42848897 +1  117.2401912 +1 -179.7690481 +1     8     7     4
  C(HETATM   10  C   HET A   1)   1.40351476 +1  114.3046730 +1 -173.0000000 -1     9     8     7
  C(HETATM   11  C   HET A   1)   1.39083571 +1  119.3695197 +1 -179.7468543 +1    10     9     8
  C(HETATM   12  C   HET A   1)   1.39497085 +1  120.2348551 +1   -0.0334951 +1    11    10     9
  C(HETATM   13  C   HET A   1)   1.39443327 +1  120.2559507 +1   -0.0941055 +1    12    11    10
  C(HETATM   14  C   HET A   1)   1.40110194 +1  125.2095131 +1    7.0000000 +0     9     8     7
  H(HETATM   15  H   HET A   1)   1.08884538 +1  119.8917031 +1  179.9670981 +1     1     2     3
  H(HETATM   16  H   HET A   1)   1.08878611 +1  119.9850840 +1 -179.9755703 +1     2     1     3
  H(HETATM   17  H   HET A   1)   1.09154740 +1  120.7091062 +1 -179.9847137 +1     3     2     4
  H(HETATM   18  H   HET A   1)   1.09077025 +1  119.7220903 +1 -179.9543265 +1     5     4     6
  H(HETATM   19  H   HET A   1)   1.08875642 +1  119.8313524 +1 -179.9188349 +1     6     5     4
  H(HETATM   20  H   HET A   1)   1.09077520 +1  119.7222322 +1  179.9900737 +1    10     9    11
  H(HETATM   21  H   HET A   1)   1.08875606 +1  119.8314925 +1 -179.9854376 +1    11    10    12
  H(HETATM   22  H   HET A   1)   1.08884750 +1  119.8525063 +1 -179.9659800 +1    12    11    13
  H(HETATM   23  H   HET A   1)   1.08878567 +1  119.9850854 +1 -179.9233962 +1    13    12    14
  H(HETATM   24  H   HET A   1)   1.09154989 +1  120.7089744 +1 -179.8253859 +1    14    13    12
 
  10  9   14
 

          Geometry optimization using EF

          DIAGONAL MATRIX USED AS START HESSIAN

 CYCLE:     1 TIME:   0.031 TIME LEFT:  2.00D  GRAD.:     0.161 HEAT:  95.33921
 CYCLE:     2 TIME:   0.016 TIME LEFT:  2.00D  GRAD.:     1.669 HEAT:  95.33936
 CYCLE:     3 TIME:   0.016 TIME LEFT:  2.00D  GRAD.:     8.591 HEAT:  95.34114
 CYCLE:     4 TIME:   0.016 TIME LEFT:  2.00D  GRAD.:     2.395 HEAT:  95.34030
 CYCLE:     5 TIME:   0.031 TIME LEFT:  2.00D  GRAD.:    11.367 HEAT:  95.34239
 CYCLE:     6 TIME:   0.047 TIME LEFT:  2.00D  GRAD.:    10.186 HEAT:  95.34232
 CYCLE:     7 TIME:   0.000 TIME LEFT:  2.00D  GRAD.:     8.554 HEAT:  95.34096
 CYCLE:     8 TIME:   0.016 TIME LEFT:  2.00D  GRAD.:     4.754 HEAT:  95.33970
 CYCLE:     9 TIME:   0.016 TIME LEFT:  2.00D  GRAD.:     1.408 HEAT:  95.33919
 CYCLE:    10 TIME:   0.016 TIME LEFT:  2.00D  GRAD.:     0.296 HEAT:  95.33915
 CYCLE:    11 TIME:   0.016 TIME LEFT:  2.00D  GRAD.:     0.507 HEAT:  95.33916
 CYCLE:    12 TIME:   0.016 TIME LEFT:  2.00D  GRAD.:     0.218 HEAT:  95.33915
 CYCLE:    13 TIME:   0.016 TIME LEFT:  2.00D  GRAD.:     0.679 HEAT:  95.33919
 CYCLE:    14 TIME:   0.016 TIME LEFT:  2.00D  GRAD.:     0.115 HEAT:  95.33914
 CYCLE:    15 TIME:   0.000 TIME LEFT:  2.00D  GRAD.:     0.293 HEAT:  95.33915
 CYCLE:    16 TIME:   0.016 TIME LEFT:  2.00D  GRAD.:     0.047 HEAT:  95.33914

     GRADIENT =  0.04704 IS LESS THAN CUTOFF =  0.05000



          VARIABLE        FUNCTION
 :       188.00000       95.339136
 precise html  symmetry step=1 points=200  UHF
      Rotation of phenyl group in azobenzene
 (Horizontal axis is C-C-N=N torsion, in degrees)
  C(HETATM    1  C   HET A   1)   0.00000800 +1   -0.0000074 +1    0.0000196 +1
  C(HETATM    2  C   HET A   1)   1.39442881 +1    0.0000000 +1    0.0000000 +1     1     0     0
  C(HETATM    3  C   HET A   1)   1.39126154 +1  120.1669082 +1   -0.0000000 +1     2     1     0
  C(HETATM    4  C   HET A   1)   1.40109285 +1  119.4854484 +1    0.0601805 +1     3     2     1
  C(HETATM    5  C   HET A   1)   1.40351167 +1  120.4869940 +1    0.0071001 +1     4     3     2
  C(HETATM    6  C   HET A   1)   1.39082940 +1  119.3691754 +1   -0.0953880 +1     5     4     3
  N(HETATM    7  N   HET A   1)   1.42848030 +1  125.1974961 +1  179.0613708 +1     4     3     5
  N(HETATM    8  N   HET A   1)   1.25283284 +1  117.2430558 +1    7.6466563 +1     7     4     3
  C(HETATM    9  C   HET A   1)   1.42850617 +1  117.2322165 +1 -179.7594919 +1     8     7     4
  C(HETATM   10  C   HET A   1)   1.40350017 +1  114.3199203 +1 -172.0000000 -1     9     8     7
  C(HETATM   11  C   HET A   1)   1.39083109 +1  119.3665293 +1 -179.7094846 +1    10     9     8
  C(HETATM   12  C   HET A   1)   1.39498080 +1  120.2355000 +1   -0.0380400 +1    11    10     9
  C(HETATM   13  C   HET A   1)   1.39442263 +1  120.2562517 +1   -0.1079010 +1    12    11    10
  C(HETATM   14  C   HET A   1)   1.40107882 +1  125.1897880 +1    8.0000000 +0     9     8     7
  H(HETATM   15  H   HET A   1)   1.08884703 +1  119.8916066 +1  179.9704361 +1     1     2     3
  H(HETATM   16  H   HET A   1)   1.08878656 +1  119.9854360 +1 -179.9773481 +1     2     1     3
  H(HETATM   17  H   HET A   1)   1.09155086 +1  120.7091149 +1 -179.9864784 +1     3     2     4
  H(HETATM   18  H   HET A   1)   1.09077513 +1  119.7217315 +1 -179.9525605 +1     5     4     6
  H(HETATM   19  H   HET A   1)   1.08875642 +1  119.8316247 +1 -179.9188800 +1     6     5     4
  H(HETATM   20  H   HET A   1)   1.09076572 +1  119.7242476 +1  179.9854439 +1    10     9    11
  H(HETATM   21  H   HET A   1)   1.08875774 +1  119.8313779 +1 -179.9843935 +1    11    10    12
  H(HETATM   22  H   HET A   1)   1.08884372 +1  119.8520693 +1 -179.9618439 +1    12    11    13
  H(HETATM   23  H   HET A   1)   1.08878628 +1  119.9856022 +1 -179.9129123 +1    13    12    14
  H(HETATM   24  H   HET A   1)   1.09153228 +1  120.7101151 +1 -179.7998513 +1    14    13    12
 
  10  9   14
 

          Geometry optimization using EF

          DIAGONAL MATRIX USED AS START HESSIAN

 CYCLE:     1 TIME:   0.031 TIME LEFT:  2.00D  GRAD.:     0.158 HEAT:  95.34087
 CYCLE:     2 TIME:   0.016 TIME LEFT:  2.00D  GRAD.:     1.397 HEAT:  95.34098
 CYCLE:     3 TIME:   0.016 TIME LEFT:  2.00D  GRAD.:     8.741 HEAT:  95.34279
 CYCLE:     4 TIME:   0.016 TIME LEFT:  2.00D  GRAD.:     1.943 HEAT:  95.34153
 CYCLE:     5 TIME:   0.031 TIME LEFT:  2.00D  GRAD.:    14.057 HEAT:  95.34557
 CYCLE:     6 TIME:   0.031 TIME LEFT:  2.00D  GRAD.:     9.361 HEAT:  95.34473
 CYCLE:     7 TIME:   0.016 TIME LEFT:  2.00D  GRAD.:     8.788 HEAT:  95.34262
 CYCLE:     8 TIME:   0.016 TIME LEFT:  2.00D  GRAD.:     2.825 HEAT:  95.34098
 CYCLE:     9 TIME:   0.000 TIME LEFT:  2.00D  GRAD.:     0.879 HEAT:  95.34083
 CYCLE:    10 TIME:   0.016 TIME LEFT:  2.00D  GRAD.:     0.981 HEAT:  95.34092
 CYCLE:    11 TIME:   0.016 TIME LEFT:  2.00D  GRAD.:     0.340 HEAT:  95.34079
 CYCLE:    12 TIME:   0.016 TIME LEFT:  2.00D  GRAD.:     0.583 HEAT:  95.34084
 CYCLE:    13 TIME:   0.016 TIME LEFT:  2.00D  GRAD.:     0.153 HEAT:  95.34078
 CYCLE:    14 TIME:   0.016 TIME LEFT:  2.00D  GRAD.:     0.213 HEAT:  95.34079
 CYCLE:    15 TIME:   0.016 TIME LEFT:  2.00D  GRAD.:     0.068 HEAT:  95.34078
 CYCLE:    16 TIME:   0.016 TIME LEFT:  2.00D  GRAD.:     0.069 HEAT:  95.34078
 CYCLE:    17 TIME:   0.000 TIME LEFT:  2.00D  GRAD.:     0.134 HEAT:  95.34077
 CYCLE:    18 TIME:   0.016 TIME LEFT:  2.00D  GRAD.:     0.040 HEAT:  95.34077

     GRADIENT =  0.04038 IS LESS THAN CUTOFF =  0.05000



          VARIABLE        FUNCTION
 :       189.00000       95.340765
 precise html  symmetry step=1 points=200  UHF
      Rotation of phenyl group in azobenzene
 (Horizontal axis is C-C-N=N torsion, in degrees)
  C(HETATM    1  C   HET A   1)   0.00000810 +1   -0.0000074 +1    0.0000198 +1
  C(HETATM    2  C   HET A   1)   1.39442883 +1    0.0000000 +1    0.0000000 +1     1     0     0
  C(HETATM    3  C   HET A   1)   1.39126404 +1  120.1669167 +1   -0.0000000 +1     2     1     0
  C(HETATM    4  C   HET A   1)   1.40108304 +1  119.4848358 +1    0.0561210 +1     3     2     1
  C(HETATM    5  C   HET A   1)   1.40350908 +1  120.4883710 +1    0.0041278 +1     4     3     2
  C(HETATM    6  C   HET A   1)   1.39082972 +1  119.3681320 +1   -0.0866538 +1     5     4     3
  N(HETATM    7  N   HET A   1)   1.42849235 +1  125.1952369 +1  179.0424754 +1     4     3     5
  N(HETATM    8  N   HET A   1)   1.25282472 +1  117.2451068 +1    7.7576493 +1     7     4     3
  C(HETATM    9  C   HET A   1)   1.42853393 +1  117.2237621 +1 -179.7497848 +1     8     7     4
  C(HETATM   10  C   HET A   1)   1.40347292 +1  114.3389331 +1 -171.0000000 -1     9     8     7
  C(HETATM   11  C   HET A   1)   1.39083450 +1  119.3631739 +1 -179.6687235 +1    10     9     8
  C(HETATM   12  C   HET A   1)   1.39498215 +1  120.2364510 +1   -0.0462926 +1    11    10     9
  C(HETATM   13  C   HET A   1)   1.39441880 +1  120.2563191 +1   -0.1206636 +1    12    11    10
  C(HETATM   14  C   HET A   1)   1.40106796 +1  125.1656426 +1    9.0000000 +0     9     8     7
  H(HETATM   15  H   HET A   1)   1.08884922 +1  119.8913320 +1  179.9784829 +1     1     2     3
  H(HETATM   16  H   HET A   1)   1.08878623 +1  119.9855822 +1 -179.9815987 +1     2     1     3
  H(HETATM   17  H   HET A   1)   1.09155180 +1  120.7095738 +1 -179.9878357 +1     3     2     4
  H(HETATM   18  H   HET A   1)   1.09077938 +1  119.7218060 +1 -179.9543173 +1     5     4     6
  H(HETATM   19  H   HET A   1)   1.08875716 +1  119.8317250 +1 -179.9234444 +1     6     5     4
  H(HETATM   20  H   HET A   1)   1.09075474 +1  119.7273209 +1  179.9754488 +1    10     9    11
  H(HETATM   21  H   HET A   1)   1.08875985 +1  119.8306219 +1 -179.9829168 +1    11    10    12
  H(HETATM   22  H   HET A   1)   1.08883989 +1  119.8518326 +1 -179.9552066 +1    12    11    13
  H(HETATM   23  H   HET A   1)   1.08878693 +1  119.9859731 +1 -179.8996246 +1    13    12    14
  H(HETATM   24  H   HET A   1)   1.09151424 +1  120.7115302 +1 -179.7708751 +1    14    13    12
 
  10  9   14
 

          Geometry optimization using EF

          DIAGONAL MATRIX USED AS START HESSIAN

 CYCLE:     1 TIME:   0.031 TIME LEFT:  2.00D  GRAD.:     0.185 HEAT:  95.34290
 CYCLE:     2 TIME:   0.016 TIME LEFT:  2.00D  GRAD.:     1.494 HEAT:  95.34303
 CYCLE:     3 TIME:   0.016 TIME LEFT:  2.00D  GRAD.:     9.605 HEAT:  95.34523
 CYCLE:     4 TIME:   0.016 TIME LEFT:  2.00D  GRAD.:     2.386 HEAT:  95.34364
 CYCLE:     5 TIME:   0.047 TIME LEFT:  2.00D  GRAD.:     9.694 HEAT:  95.34536
 CYCLE:     6 TIME:   0.016 TIME LEFT:  2.00D  GRAD.:    14.616 HEAT:  95.35526
 CYCLE:     7 TIME:   0.016 TIME LEFT:  2.00D  GRAD.:     3.947 HEAT:  95.34322
 CYCLE:     8 TIME:   0.016 TIME LEFT:  2.00D  GRAD.:     1.879 HEAT:  95.34323
 CYCLE:     9 TIME:   0.000 TIME LEFT:  2.00D  GRAD.:     3.189 HEAT:  95.34330
 CYCLE:    10 TIME:   0.016 TIME LEFT:  2.00D  GRAD.:     1.465 HEAT:  95.34285
 CYCLE:    11 TIME:   0.016 TIME LEFT:  2.00D  GRAD.:     0.338 HEAT:  95.34279
 CYCLE:    12 TIME:   0.016 TIME LEFT:  2.00D  GRAD.:     0.821 HEAT:  95.34281
 CYCLE:    13 TIME:   0.031 TIME LEFT:  2.00D  GRAD.:     0.196 HEAT:  95.34276
 CYCLE:    14 TIME:   0.016 TIME LEFT:  2.00D  GRAD.:     0.274 HEAT:  95.34276
 CYCLE:    15 TIME:   0.016 TIME LEFT:  2.00D  GRAD.:     0.106 HEAT:  95.34274
 CYCLE:    16 TIME:   0.016 TIME LEFT:  2.00D  GRAD.:     0.182 HEAT:  95.34274
 CYCLE:    17 TIME:   0.016 TIME LEFT:  2.00D  GRAD.:     0.109 HEAT:  95.34273
 CYCLE:    18 TIME:   0.016 TIME LEFT:  2.00D  GRAD.:     0.127 HEAT:  95.34272
 CYCLE:    19 TIME:   0.016 TIME LEFT:  2.00D  GRAD.:     0.129 HEAT:  95.34271
 CYCLE:    20 TIME:   0.016 TIME LEFT:  2.00D  GRAD.:     0.064 HEAT:  95.34270
 CYCLE:    21 TIME:   0.031 TIME LEFT:  2.00D  GRAD.:     0.091 HEAT:  95.34271
 CYCLE:    22 TIME:   0.016 TIME LEFT:  2.00D  GRAD.:     0.064 HEAT:  95.34270
 CYCLE:    23 TIME:   0.000 TIME LEFT:  2.00D  GRAD.:     0.054 HEAT:  95.34270
 CYCLE:    24 TIME:   0.016 TIME LEFT:  2.00D  GRAD.:     0.152 HEAT:  95.34269
 CYCLE:    25 TIME:   0.016 TIME LEFT:  2.00D  GRAD.:     0.119 HEAT:  95.34269
 CYCLE:    26 TIME:   0.016 TIME LEFT:  2.00D  GRAD.:     0.076 HEAT:  95.34268
 CYCLE:    27 TIME:   0.016 TIME LEFT:  2.00D  GRAD.:     0.070 HEAT:  95.34268
 CYCLE:    28 TIME:   0.016 TIME LEFT:  2.00D  GRAD.:     0.099 HEAT:  95.34268
 CYCLE:    29 TIME:   0.016 TIME LEFT:  2.00D  GRAD.:     0.077 HEAT:  95.34268
 CYCLE:    30 TIME:   0.000 TIME LEFT:  2.00D  GRAD.:     0.065 HEAT:  95.34267
 CYCLE:    31 TIME:   0.016 TIME LEFT:  2.00D  GRAD.:     0.060 HEAT:  95.34267
 CYCLE:    32 TIME:   0.016 TIME LEFT:  2.00D  GRAD.:     0.783 HEAT:  95.34281
 CYCLE:    33 TIME:   0.016 TIME LEFT:  2.00D  GRAD.:     0.099 HEAT:  95.34266
 CYCLE:    34 TIME:   0.016 TIME LEFT:  2.00D  GRAD.:     0.095 HEAT:  95.34266
 CYCLE:    35 TIME:   0.016 TIME LEFT:  2.00D  GRAD.:     0.058 HEAT:  95.34266
 CYCLE:    36 TIME:   0.016 TIME LEFT:  2.00D  GRAD.:     0.074 HEAT:  95.34265
 CYCLE:    37 TIME:   0.016 TIME LEFT:  2.00D  GRAD.:     0.071 HEAT:  95.34265
 CYCLE:    38 TIME:   0.016 TIME LEFT:  2.00D  GRAD.:     0.303 HEAT:  95.34265
 CYCLE:    39 TIME:   0.016 TIME LEFT:  2.00D  GRAD.:     0.129 HEAT:  95.34264
 CYCLE:    40 TIME:   0.000 TIME LEFT:  2.00D  GRAD.:     0.077 HEAT:  95.34263
 CYCLE:    41 TIME:   0.016 TIME LEFT:  2.00D  GRAD.:     0.064 HEAT:  95.34263
 CYCLE:    42 TIME:   0.016 TIME LEFT:  2.00D  GRAD.:     0.116 HEAT:  95.34263
 CYCLE:    43 TIME:   0.016 TIME LEFT:  2.00D  GRAD.:     0.084 HEAT:  95.34263
 CYCLE:    44 TIME:   0.016 TIME LEFT:  2.00D  GRAD.:     0.049 HEAT:  95.34262

     GRADIENT =  0.04887 IS LESS THAN CUTOFF =  0.05000



          VARIABLE        FUNCTION
 :       190.00000       95.342625
 precise html  symmetry step=1 points=200  UHF
      Rotation of phenyl group in azobenzene
 (Horizontal axis is C-C-N=N torsion, in degrees)
  C(HETATM    1  C   HET A   1)   0.00000908 +1   -0.0000083 +1    0.0000224 +1
  C(HETATM    2  C   HET A   1)   1.39442393 +1   -0.0000000 +1    0.0000000 +1     1     0     0
  C(HETATM    3  C   HET A   1)   1.39126969 +1  120.1671742 +1   -0.0000000 +1     2     1     0
  C(HETATM    4  C   HET A   1)   1.40108177 +1  119.4837861 +1    0.0392915 +1     3     2     1
  C(HETATM    5  C   HET A   1)   1.40349692 +1  120.4898959 +1    0.0177291 +1     4     3     2
  C(HETATM    6  C   HET A   1)   1.39082626 +1  119.3671753 +1   -0.0919205 +1     5     4     3
  N(HETATM    7  N   HET A   1)   1.42851007 +1  125.1860751 +1  178.9991384 +1     4     3     5
  N(HETATM    8  N   HET A   1)   1.25279049 +1  117.2428539 +1    8.1055320 +1     7     4     3
  C(HETATM    9  C   HET A   1)   1.42855428 +1  117.2160965 +1 -179.7489114 +1     8     7     4
  C(HETATM   10  C   HET A   1)   1.40345000 +1  114.3563953 +1 -170.0000000 -1     9     8     7
  C(HETATM   11  C   HET A   1)   1.39083271 +1  119.3594781 +1 -179.6345860 +1    10     9     8
  C(HETATM   12  C   HET A   1)   1.39499035 +1  120.2370873 +1   -0.0528813 +1    11    10     9
  C(HETATM   13  C   HET A   1)   1.39441173 +1  120.2567342 +1   -0.1303636 +1    12    11    10
  C(HETATM   14  C   HET A   1)   1.40103678 +1  125.1425767 +1   10.0000000 +0     9     8     7
  H(HETATM   15  H   HET A   1)   1.08884698 +1  119.8913486 +1  179.9881935 +1     1     2     3
  H(HETATM   16  H   HET A   1)   1.08878888 +1  119.9857603 +1 -179.9899969 +1     2     1     3
  H(HETATM   17  H   HET A   1)   1.09155441 +1  120.7098982 +1 -179.9790093 +1     3     2     4
  H(HETATM   18  H   HET A   1)   1.09078001 +1  119.7224413 +1 -179.9543317 +1     5     4     6
  H(HETATM   19  H   HET A   1)   1.08875810 +1  119.8314405 +1 -179.9275457 +1     6     5     4
  H(HETATM   20  H   HET A   1)   1.09074502 +1  119.7297529 +1  179.9710983 +1    10     9    11
  H(HETATM   21  H   HET A   1)   1.08876231 +1  119.8302729 +1 -179.9798797 +1    11    10    12
  H(HETATM   22  H   HET A   1)   1.08883539 +1  119.8514171 +1 -179.9521804 +1    12    11    13
  H(HETATM   23  H   HET A   1)   1.08878780 +1  119.9863468 +1 -179.8893187 +1    13    12    14
  H(HETATM   24  H   HET A   1)   1.09149221 +1  120.7131030 +1 -179.7474563 +1    14    13    12
 
  10  9   14
 

          Geometry optimization using EF

          DIAGONAL MATRIX USED AS START HESSIAN

 CYCLE:     1 TIME:   0.031 TIME LEFT:  2.00D  GRAD.:     0.199 HEAT:  95.34516
 CYCLE:     2 TIME:   0.016 TIME LEFT:  2.00D  GRAD.:     2.175 HEAT:  95.34534
 CYCLE:     3 TIME:   0.016 TIME LEFT:  2.00D  GRAD.:    11.793 HEAT:  95.34963
 CYCLE:     4 TIME:   0.016 TIME LEFT:  2.00D  GRAD.:     1.964 HEAT:  95.34541
 CYCLE:     5 TIME:   0.031 TIME LEFT:  2.00D  GRAD.:    12.995 HEAT:  95.34908
 CYCLE:     6 TIME:   0.016 TIME LEFT:  2.00D  GRAD.:    13.688 HEAT:  95.35326
 CYCLE:     7 TIME:   0.016 TIME LEFT:  2.00D  GRAD.:    12.636 HEAT:  95.35026
 CYCLE:     8 TIME:   0.016 TIME LEFT:  2.00D  GRAD.:     4.919 HEAT:  95.34643
 CYCLE:     9 TIME:   0.016 TIME LEFT:  2.00D  GRAD.:     8.220 HEAT:  95.35001
 CYCLE:    10 TIME:   0.016 TIME LEFT:  2.00D  GRAD.:     2.017 HEAT:  95.34511
 CYCLE:    11 TIME:   0.016 TIME LEFT:  2.00D  GRAD.:     1.041 HEAT:  95.34511
 CYCLE:    12 TIME:   0.016 TIME LEFT:  2.00D  GRAD.:     1.166 HEAT:  95.34504
 CYCLE:    13 TIME:   0.016 TIME LEFT:  2.00D  GRAD.:     0.637 HEAT:  95.34500
 CYCLE:    14 TIME:   0.016 TIME LEFT:  2.00D  GRAD.:     0.553 HEAT:  95.34498
 CYCLE:    15 TIME:   0.000 TIME LEFT:  2.00D  GRAD.:     0.363 HEAT:  95.34495
 CYCLE:    16 TIME:   0.016 TIME LEFT:  2.00D  GRAD.:     0.129 HEAT:  95.34495
 CYCLE:    17 TIME:   0.016 TIME LEFT:  2.00D  GRAD.:     0.448 HEAT:  95.34493
 CYCLE:    18 TIME:   0.016 TIME LEFT:  2.00D  GRAD.:     0.293 HEAT:  95.34492
 CYCLE:    19 TIME:   0.016 TIME LEFT:  2.00D  GRAD.:     0.179 HEAT:  95.34489
 CYCLE:    20 TIME:   0.016 TIME LEFT:  2.00D  GRAD.:     0.082 HEAT:  95.34488
 CYCLE:    21 TIME:   0.016 TIME LEFT:  2.00D  GRAD.:     0.163 HEAT:  95.34486
 CYCLE:    22 TIME:   0.016 TIME LEFT:  2.00D  GRAD.:     0.236 HEAT:  95.34482
 CYCLE:    23 TIME:   0.016 TIME LEFT:  2.00D  GRAD.:     2.717 HEAT:  95.34786
 CYCLE:    24 TIME:   0.031 TIME LEFT:  2.00D  GRAD.:     3.228 HEAT:  95.35235
 CYCLE:    25 TIME:   0.016 TIME LEFT:  2.00D  GRAD.:     0.453 HEAT:  95.34475
 CYCLE:    26 TIME:   0.016 TIME LEFT:  2.00D  GRAD.:     0.674 HEAT:  95.34581
 CYCLE:    27 TIME:   0.031 TIME LEFT:  2.00D  GRAD.:     0.188 HEAT:  95.34507
 CYCLE:    28 TIME:   0.016 TIME LEFT:  2.00D  GRAD.:     0.144 HEAT:  95.34481
 CYCLE:    29 TIME:   0.016 TIME LEFT:  2.00D  GRAD.:     0.228 HEAT:  95.34469
 CYCLE:    30 TIME:   0.031 TIME LEFT:  2.00D  GRAD.:     0.676 HEAT:  95.34452
 CYCLE:    31 TIME:   0.016 TIME LEFT:  2.00D  GRAD.:     0.327 HEAT:  95.34447
 CYCLE:    32 TIME:   0.016 TIME LEFT:  2.00D  GRAD.:     0.782 HEAT:  95.34535
 CYCLE:    33 TIME:   0.016 TIME LEFT:  2.00D  GRAD.:     0.157 HEAT:  95.34446
 CYCLE:    34 TIME:   0.016 TIME LEFT:  2.00D  GRAD.:     0.104 HEAT:  95.34445
 CYCLE:    35 TIME:   0.016 TIME LEFT:  2.00D  GRAD.:     0.072 HEAT:  95.34437
 CYCLE:    36 TIME:   0.016 TIME LEFT:  2.00D  GRAD.:     0.083 HEAT:  95.34436
 CYCLE:    37 TIME:   0.016 TIME LEFT:  2.00D  GRAD.:     0.040 HEAT:  95.34436

     GRADIENT =  0.03972 IS LESS THAN CUTOFF =  0.05000



          VARIABLE        FUNCTION
 :       191.00000       95.344358
 precise html  symmetry step=1 points=200  UHF
      Rotation of phenyl group in azobenzene
 (Horizontal axis is C-C-N=N torsion, in degrees)
  C(HETATM    1  C   HET A   1)   0.00001015 +1   -0.0000092 +1    0.0000251 +1
  C(HETATM    2  C   HET A   1)   1.39441913 +1   -0.0000000 +1    0.0000000 +1     1     0     0
  C(HETATM    3  C   HET A   1)   1.39128065 +1  120.1666293 +1   -0.0000000 +1     2     1     0
  C(HETATM    4  C   HET A   1)   1.40105523 +1  119.4806738 +1    0.0347314 +1     3     2     1
  C(HETATM    5  C   HET A   1)   1.40347510 +1  120.4957280 +1    0.0378240 +1     4     3     2
  C(HETATM    6  C   HET A   1)   1.39082885 +1  119.3639687 +1   -0.1169017 +1     5     4     3
  N(HETATM    7  N   HET A   1)   1.42853781 +1  125.1620900 +1  178.8852890 +1     4     3     5
  N(HETATM    8  N   HET A   1)   1.25274749 +1  117.2375548 +1    9.1813403 +1     7     4     3
  C(HETATM    9  C   HET A   1)   1.42858935 +1  117.2077932 +1 -179.7247799 +1     8     7     4
  C(HETATM   10  C   HET A   1)   1.40342234 +1  114.3778110 +1 -169.0000000 -1     9     8     7
  C(HETATM   11  C   HET A   1)   1.39083285 +1  119.3552941 +1 -179.6043609 +1    10     9     8
  C(HETATM   12  C   HET A   1)   1.39499914 +1  120.2377412 +1   -0.0562610 +1    11    10     9
  C(HETATM   13  C   HET A   1)   1.39440427 +1  120.2573715 +1   -0.1390731 +1    12    11    10
  C(HETATM   14  C   HET A   1)   1.40101407 +1  125.1145506 +1   11.0000000 +0     9     8     7
  H(HETATM   15  H   HET A   1)   1.08884488 +1  119.8911793 +1  179.9889922 +1     1     2     3
  H(HETATM   16  H   HET A   1)   1.08878973 +1  119.9864080 +1 -179.9930274 +1     2     1     3
  H(HETATM   17  H   HET A   1)   1.09153927 +1  120.7112906 +1 -179.9589453 +1     3     2     4
  H(HETATM   18  H   HET A   1)   1.09077661 +1  119.7243121 +1 -179.9429513 +1     5     4     6
  H(HETATM   19  H   HET A   1)   1.08876095 +1  119.8311965 +1 -179.9178628 +1     6     5     4
  H(HETATM   20  H   HET A   1)   1.09073775 +1  119.7324490 +1  179.9712623 +1    10     9    11
  H(HETATM   21  H   HET A   1)   1.08876524 +1  119.8299193 +1 -179.9738946 +1    11    10    12
  H(HETATM   22  H   HET A   1)   1.08883195 +1  119.8506876 +1 -179.9491149 +1    12    11    13
  H(HETATM   23  H   HET A   1)   1.08878908 +1  119.9870248 +1 -179.8767916 +1    13    12    14
  H(HETATM   24  H   HET A   1)   1.09147291 +1  120.7146205 +1 -179.7196006 +1    14    13    12
 
  10  9   14
 

          Geometry optimization using EF

          DIAGONAL MATRIX USED AS START HESSIAN

 CYCLE:     1 TIME:   0.031 TIME LEFT:  2.00D  GRAD.:     0.207 HEAT:  95.34721
 CYCLE:     2 TIME:   0.016 TIME LEFT:  2.00D  GRAD.:     2.596 HEAT:  95.34742
 CYCLE:     3 TIME:   0.016 TIME LEFT:  2.00D  GRAD.:    10.485 HEAT:  95.35137
 CYCLE:     4 TIME:   0.000 TIME LEFT:  2.00D  GRAD.:     2.694 HEAT:  95.34760
 CYCLE:     5 TIME:   0.047 TIME LEFT:  2.00D  GRAD.:    10.411 HEAT:  95.34983
 CYCLE:     6 TIME:   0.016 TIME LEFT:  2.00D  GRAD.:    15.189 HEAT:  95.35480
 CYCLE:     7 TIME:   0.016 TIME LEFT:  2.00D  GRAD.:     8.233 HEAT:  95.34870
 CYCLE:     8 TIME:   0.016 TIME LEFT:  2.00D  GRAD.:     3.439 HEAT:  95.34738
 CYCLE:     9 TIME:   0.016 TIME LEFT:  2.00D  GRAD.:     0.658 HEAT:  95.34719
 CYCLE:    10 TIME:   0.016 TIME LEFT:  2.00D  GRAD.:     2.729 HEAT:  95.34747
 CYCLE:    11 TIME:   0.016 TIME LEFT:  2.00D  GRAD.:     0.171 HEAT:  95.34706
 CYCLE:    12 TIME:   0.016 TIME LEFT:  2.00D  GRAD.:     0.267 HEAT:  95.34706
 CYCLE:    13 TIME:   0.016 TIME LEFT:  2.00D  GRAD.:     0.144 HEAT:  95.34705
 CYCLE:    14 TIME:   0.000 TIME LEFT:  2.00D  GRAD.:     0.258 HEAT:  95.34704
 CYCLE:    15 TIME:   0.016 TIME LEFT:  2.00D  GRAD.:     0.069 HEAT:  95.34703
 CYCLE:    16 TIME:   0.016 TIME LEFT:  2.00D  GRAD.:     0.370 HEAT:  95.34703
 CYCLE:    17 TIME:   0.016 TIME LEFT:  2.00D  GRAD.:     0.153 HEAT:  95.34702
 CYCLE:    18 TIME:   0.016 TIME LEFT:  2.00D  GRAD.:     0.158 HEAT:  95.34700
 CYCLE:    19 TIME:   0.016 TIME LEFT:  2.00D  GRAD.:     0.145 HEAT:  95.34700
 CYCLE:    20 TIME:   0.016 TIME LEFT:  2.00D  GRAD.:     0.053 HEAT:  95.34699
 CYCLE:    21 TIME:   0.000 TIME LEFT:  2.00D  GRAD.:     0.058 HEAT:  95.34699
 CYCLE:    22 TIME:   0.016 TIME LEFT:  2.00D  GRAD.:     0.090 HEAT:  95.34697
 CYCLE:    23 TIME:   0.016 TIME LEFT:  2.00D  GRAD.:     0.047 HEAT:  95.34697

     GRADIENT =  0.04697 IS LESS THAN CUTOFF =  0.05000



          VARIABLE        FUNCTION
 :       192.00000       95.346969
 precise html  symmetry step=1 points=200  UHF
      Rotation of phenyl group in azobenzene
 (Horizontal axis is C-C-N=N torsion, in degrees)
  C(HETATM    1  C   HET A   1)   0.00001035 +1   -0.0000093 +1    0.0000256 +1
  C(HETATM    2  C   HET A   1)   1.39441557 +1   -0.0000000 +1    0.0000000 +1     1     0     0
  C(HETATM    3  C   HET A   1)   1.39128244 +1  120.1665043 +1   -0.0000000 +1     2     1     0
  C(HETATM    4  C   HET A   1)   1.40104370 +1  119.4793072 +1    0.0593412 +1     3     2     1
  C(HETATM    5  C   HET A   1)   1.40347148 +1  120.4981391 +1    0.0121714 +1     4     3     2
  C(HETATM    6  C   HET A   1)   1.39083117 +1  119.3626264 +1   -0.1063952 +1     5     4     3
  N(HETATM    7  N   HET A   1)   1.42855442 +1  125.1555056 +1  178.8416328 +1     4     3     5
  N(HETATM    8  N   HET A   1)   1.25270711 +1  117.2387727 +1    9.4155765 +1     7     4     3
  C(HETATM    9  C   HET A   1)   1.42862199 +1  117.1966181 +1 -179.7134877 +1     8     7     4
  C(HETATM   10  C   HET A   1)   1.40339398 +1  114.4001662 +1 -168.0000000 -1     9     8     7
  C(HETATM   11  C   HET A   1)   1.39082950 +1  119.3506118 +1 -179.5602028 +1    10     9     8
  C(HETATM   12  C   HET A   1)   1.39500661 +1  120.2389429 +1   -0.0638213 +1    11    10     9
  C(HETATM   13  C   HET A   1)   1.39439337 +1  120.2575598 +1   -0.1563379 +1    12    11    10
  C(HETATM   14  C   HET A   1)   1.40098447 +1  125.0850254 +1   12.0000000 +0     9     8     7
  H(HETATM   15  H   HET A   1)   1.08884592 +1  119.8913339 +1  179.9763959 +1     1     2     3
  H(HETATM   16  H   HET A   1)   1.08878988 +1  119.9865750 +1 -179.9798160 +1     2     1     3
  H(HETATM   17  H   HET A   1)   1.09153893 +1  120.7119012 +1 -179.9805164 +1     3     2     4
  H(HETATM   18  H   HET A   1)   1.09078177 +1  119.7246772 +1 -179.9466848 +1     5     4     6
  H(HETATM   19  H   HET A   1)   1.08876208 +1  119.8312325 +1 -179.9112530 +1     6     5     4
  H(HETATM   20  H   HET A   1)   1.09072223 +1  119.7358023 +1  179.9625661 +1    10     9    11
  H(HETATM   21  H   HET A   1)   1.08876785 +1  119.8295103 +1 -179.9752806 +1    11    10    12
  H(HETATM   22  H   HET A   1)   1.08882624 +1  119.8503213 +1 -179.9422550 +1    12    11    13
  H(HETATM   23  H   HET A   1)   1.08879031 +1  119.9875364 +1 -179.8659675 +1    13    12    14
  H(HETATM   24  H   HET A   1)   1.09144697 +1  120.7166681 +1 -179.6937336 +1    14    13    12
 
  10  9   14
 

          Geometry optimization using EF

          DIAGONAL MATRIX USED AS START HESSIAN

 CYCLE:     1 TIME:   0.031 TIME LEFT:  2.00D  GRAD.:     0.209 HEAT:  95.35027
 CYCLE:     2 TIME:   0.016 TIME LEFT:  2.00D  GRAD.:     1.963 HEAT:  95.35043
 CYCLE:     3 TIME:   0.031 TIME LEFT:  2.00D  GRAD.:    12.445 HEAT:  95.35508
 CYCLE:     4 TIME:   0.016 TIME LEFT:  2.00D  GRAD.:     2.427 HEAT:  95.35050
 CYCLE:     5 TIME:   0.047 TIME LEFT:  2.00D  GRAD.:    16.821 HEAT:  95.35693
 CYCLE:     6 TIME:   0.016 TIME LEFT:  2.00D  GRAD.:     4.685 HEAT:  95.35157
 CYCLE:     7 TIME:   0.016 TIME LEFT:  2.00D  GRAD.:     9.468 HEAT:  95.35517
 CYCLE:     8 TIME:   0.016 TIME LEFT:  2.00D  GRAD.:     1.771 HEAT:  95.35063
 CYCLE:     9 TIME:   0.016 TIME LEFT:  2.00D  GRAD.:     6.755 HEAT:  95.35376
 CYCLE:    10 TIME:   0.016 TIME LEFT:  2.00D  GRAD.:     0.267 HEAT:  95.35012
 CYCLE:    11 TIME:   0.016 TIME LEFT:  2.00D  GRAD.:     0.618 HEAT:  95.35016
 CYCLE:    12 TIME:   0.016 TIME LEFT:  2.00D  GRAD.:     0.117 HEAT:  95.35009
 CYCLE:    13 TIME:   0.016 TIME LEFT:  2.00D  GRAD.:     0.303 HEAT:  95.35009
 CYCLE:    14 TIME:   0.016 TIME LEFT:  2.00D  GRAD.:     0.083 HEAT:  95.35008
 CYCLE:    15 TIME:   0.016 TIME LEFT:  2.00D  GRAD.:     0.269 HEAT:  95.35006
 CYCLE:    16 TIME:   0.016 TIME LEFT:  2.00D  GRAD.:     0.149 HEAT:  95.35005
 CYCLE:    17 TIME:   0.016 TIME LEFT:  2.00D  GRAD.:     0.161 HEAT:  95.35002
 CYCLE:    18 TIME:   0.000 TIME LEFT:  2.00D  GRAD.:     0.078 HEAT:  95.35001
 CYCLE:    19 TIME:   0.016 TIME LEFT:  2.00D  GRAD.:     0.092 HEAT:  95.34999
 CYCLE:    20 TIME:   0.016 TIME LEFT:  2.00D  GRAD.:     0.122 HEAT:  95.34997
 CYCLE:    21 TIME:   0.016 TIME LEFT:  2.00D  GRAD.:     0.047 HEAT:  95.34993

     GRADIENT =  0.04652 IS LESS THAN CUTOFF =  0.05000



          VARIABLE        FUNCTION
 :       193.00000       95.349933
 precise html  symmetry step=1 points=200  UHF
      Rotation of phenyl group in azobenzene
 (Horizontal axis is C-C-N=N torsion, in degrees)
  C(HETATM    1  C   HET A   1)   0.00001060 +1   -0.0000095 +1    0.0000262 +1
  C(HETATM    2  C   HET A   1)   1.39441054 +1   -0.0000000 +1    0.0000000 +1     1     0     0
  C(HETATM    3  C   HET A   1)   1.39128546 +1  120.1665950 +1   -0.0000000 +1     2     1     0
  C(HETATM    4  C   HET A   1)   1.40103411 +1  119.4775980 +1    0.0541866 +1     3     2     1
  C(HETATM    5  C   HET A   1)   1.40345993 +1  120.5009252 +1    0.0152468 +1     4     3     2
  C(HETATM    6  C   HET A   1)   1.39083321 +1  119.3613261 +1   -0.1078601 +1     5     4     3
  N(HETATM    7  N   HET A   1)   1.42858138 +1  125.1445416 +1  178.7933799 +1     4     3     5
  N(HETATM    8  N   HET A   1)   1.25267777 +1  117.2373293 +1    9.7817315 +1     7     4     3
  C(HETATM    9  C   HET A   1)   1.42865690 +1  117.1861045 +1 -179.7067596 +1     8     7     4
  C(HETATM   10  C   HET A   1)   1.40336987 +1  114.4243812 +1 -167.0000000 -1     9     8     7
  C(HETATM   11  C   HET A   1)   1.39082933 +1  119.3457321 +1 -179.5187233 +1    10     9     8
  C(HETATM   12  C   HET A   1)   1.39501711 +1  120.2394649 +1   -0.0713595 +1    11    10     9
  C(HETATM   13  C   HET A   1)   1.39438176 +1  120.2577393 +1   -0.1691027 +1    12    11    10
  C(HETATM   14  C   HET A   1)   1.40094628 +1  125.0525266 +1   13.0000000 +0     9     8     7
  H(HETATM   15  H   HET A   1)   1.08884505 +1  119.8911523 +1  179.9844091 +1     1     2     3
  H(HETATM   16  H   HET A   1)   1.08879324 +1  119.9867088 +1 -179.9844906 +1     2     1     3
  H(HETATM   17  H   HET A   1)   1.09154012 +1  120.7126275 +1 -179.9790546 +1     3     2     4
  H(HETATM   18  H   HET A   1)   1.09078276 +1  119.7256553 +1 -179.9483277 +1     5     4     6
  H(HETATM   19  H   HET A   1)   1.08876523 +1  119.8307516 +1 -179.9128264 +1     6     5     4
  H(HETATM   20  H   HET A   1)   1.09070825 +1  119.7394392 +1  179.9556494 +1    10     9    11
  H(HETATM   21  H   HET A   1)   1.08877101 +1  119.8287828 +1 -179.9729660 +1    11    10    12
  H(HETATM   22  H   HET A   1)   1.08882067 +1  119.8499394 +1 -179.9379219 +1    12    11    13
  H(HETATM   23  H   HET A   1)   1.08879067 +1  119.9881590 +1 -179.8534888 +1    13    12    14
  H(HETATM   24  H   HET A   1)   1.09141596 +1  120.7186223 +1 -179.6661694 +1    14    13    12
 
  10  9   14
 

          Geometry optimization using EF

          DIAGONAL MATRIX USED AS START HESSIAN

 CYCLE:     1 TIME:   0.031 TIME LEFT:  2.00D  GRAD.:     0.219 HEAT:  95.35370
 CYCLE:     2 TIME:   0.016 TIME LEFT:  2.00D  GRAD.:     2.149 HEAT:  95.35384
 CYCLE:     3 TIME:   0.016 TIME LEFT:  2.00D  GRAD.:    13.172 HEAT:  95.35963
 CYCLE:     4 TIME:   0.000 TIME LEFT:  2.00D  GRAD.:     1.240 HEAT:  95.35374
 CYCLE:     5 TIME:   0.016 TIME LEFT:  2.00D  GRAD.:     5.507 HEAT:  95.35472
 CYCLE:     6 TIME:   0.047 TIME LEFT:  2.00D  GRAD.:    11.526 HEAT:  95.35769
 CYCLE:     7 TIME:   0.016 TIME LEFT:  2.00D  GRAD.:     1.470 HEAT:  95.35377
 CYCLE:     8 TIME:   0.016 TIME LEFT:  2.00D  GRAD.:     2.874 HEAT:  95.35442
 CYCLE:     9 TIME:   0.016 TIME LEFT:  2.00D  GRAD.:     0.760 HEAT:  95.35356
 CYCLE:    10 TIME:   0.016 TIME LEFT:  2.00D  GRAD.:     0.570 HEAT:  95.35358
 CYCLE:    11 TIME:   0.016 TIME LEFT:  2.00D  GRAD.:     0.444 HEAT:  95.35351
 CYCLE:    12 TIME:   0.016 TIME LEFT:  2.00D  GRAD.:     0.320 HEAT:  95.35351
 CYCLE:    13 TIME:   0.016 TIME LEFT:  2.00D  GRAD.:     0.367 HEAT:  95.35348
 CYCLE:    14 TIME:   0.016 TIME LEFT:  2.00D  GRAD.:     0.317 HEAT:  95.35348
 CYCLE:    15 TIME:   0.016 TIME LEFT:  2.00D  GRAD.:     0.618 HEAT:  95.35346
 CYCLE:    16 TIME:   0.016 TIME LEFT:  2.00D  GRAD.:     0.088 HEAT:  95.35343
 CYCLE:    17 TIME:   0.000 TIME LEFT:  2.00D  GRAD.:     0.241 HEAT:  95.35342
 CYCLE:    18 TIME:   0.016 TIME LEFT:  2.00D  GRAD.:     0.073 HEAT:  95.35341
 CYCLE:    19 TIME:   0.016 TIME LEFT:  2.00D  GRAD.:     0.150 HEAT:  95.35339
 CYCLE:    20 TIME:   0.016 TIME LEFT:  2.00D  GRAD.:     0.084 HEAT:  95.35337
 CYCLE:    21 TIME:   0.016 TIME LEFT:  2.00D  GRAD.:     0.109 HEAT:  95.35332
 CYCLE:    22 TIME:   0.016 TIME LEFT:  2.00D  GRAD.:     0.213 HEAT:  95.35326
 CYCLE:    23 TIME:   0.031 TIME LEFT:  2.00D  GRAD.:     0.444 HEAT:  95.35301
 CYCLE:    24 TIME:   0.016 TIME LEFT:  2.00D  GRAD.:     0.222 HEAT:  95.35300
 CYCLE:    25 TIME:   0.016 TIME LEFT:  2.00D  GRAD.:     2.565 HEAT:  95.35370
 CYCLE:    26 TIME:   0.016 TIME LEFT:  2.00D  GRAD.:     0.311 HEAT:  95.35292
 CYCLE:    27 TIME:   0.016 TIME LEFT:  2.00D  GRAD.:     0.369 HEAT:  95.35297
 CYCLE:    28 TIME:   0.016 TIME LEFT:  2.00D  GRAD.:     0.059 HEAT:  95.35293
 CYCLE:    29 TIME:   0.016 TIME LEFT:  2.00D  GRAD.:     0.046 HEAT:  95.35292

     GRADIENT =  0.04633 IS LESS THAN CUTOFF =  0.05000



          VARIABLE        FUNCTION
 :       194.00000       95.352920
 precise html  symmetry step=1 points=200  UHF
      Rotation of phenyl group in azobenzene
 (Horizontal axis is C-C-N=N torsion, in degrees)
  C(HETATM    1  C   HET A   1)   0.00001146 +1   -0.0000102 +1    0.0000284 +1
  C(HETATM    2  C   HET A   1)   1.39440529 +1   -0.0000000 +1    0.0000000 +1     1     0     0
  C(HETATM    3  C   HET A   1)   1.39129942 +1  120.1669655 +1   -0.0000000 +1     2     1     0
  C(HETATM    4  C   HET A   1)   1.40100825 +1  119.4746151 +1    0.0490199 +1     3     2     1
  C(HETATM    5  C   HET A   1)   1.40342787 +1  120.5064107 +1    0.0214064 +1     4     3     2
  C(HETATM    6  C   HET A   1)   1.39082946 +1  119.3576317 +1   -0.1179110 +1     5     4     3
  N(HETATM    7  N   HET A   1)   1.42860948 +1  125.1167820 +1  178.6582482 +1     4     3     5
  N(HETATM    8  N   HET A   1)   1.25262835 +1  117.2325750 +1   10.7521648 +1     7     4     3
  C(HETATM    9  C   HET A   1)   1.42869312 +1  117.1781503 +1 -179.6453199 +1     8     7     4
  C(HETATM   10  C   HET A   1)   1.40332603 +1  114.4539269 +1 -166.0000000 -1     9     8     7
  C(HETATM   11  C   HET A   1)   1.39083697 +1  119.3409145 +1 -179.4685170 +1    10     9     8
  C(HETATM   12  C   HET A   1)   1.39502446 +1  120.2404587 +1   -0.0837831 +1    11    10     9
  C(HETATM   13  C   HET A   1)   1.39437779 +1  120.2586570 +1   -0.1845921 +1    12    11    10
  C(HETATM   14  C   HET A   1)   1.40092632 +1  125.0160554 +1   14.0000000 +0     9     8     7
  H(HETATM   15  H   HET A   1)   1.08884115 +1  119.8915793 +1  179.9928225 +1     1     2     3
  H(HETATM   16  H   HET A   1)   1.08879476 +1  119.9869214 +1 -179.9934681 +1     2     1     3
  H(HETATM   17  H   HET A   1)   1.09152537 +1  120.7138777 +1 -179.9651812 +1     3     2     4
  H(HETATM   18  H   HET A   1)   1.09077935 +1  119.7274101 +1 -179.9433927 +1     5     4     6
  H(HETATM   19  H   HET A   1)   1.08876626 +1  119.8304592 +1 -179.9069671 +1     6     5     4
  H(HETATM   20  H   HET A   1)   1.09069951 +1  119.7436556 +1  179.9445674 +1    10     9    11
  H(HETATM   21  H   HET A   1)   1.08877469 +1  119.8280926 +1 -179.9691666 +1    11    10    12
  H(HETATM   22  H   HET A   1)   1.08881705 +1  119.8489431 +1 -179.9302904 +1    12    11    13
  H(HETATM   23  H   HET A   1)   1.08879222 +1  119.9890711 +1 -179.8438334 +1    13    12    14
  H(HETATM   24  H   HET A   1)   1.09139391 +1  120.7204183 +1 -179.6382730 +1    14    13    12
 
  10  9   14
 

          Geometry optimization using EF

          DIAGONAL MATRIX USED AS START HESSIAN

 CYCLE:     1 TIME:   0.031 TIME LEFT:  2.00D  GRAD.:     0.239 HEAT:  95.35709
 CYCLE:     2 TIME:   0.016 TIME LEFT:  2.00D  GRAD.:     2.418 HEAT:  95.35728
 CYCLE:     3 TIME:   0.016 TIME LEFT:  2.00D  GRAD.:    13.326 HEAT:  95.36316
 CYCLE:     4 TIME:   0.016 TIME LEFT:  2.00D  GRAD.:     2.279 HEAT:  95.35733
 CYCLE:     5 TIME:   0.047 TIME LEFT:  2.00D  GRAD.:    14.902 HEAT:  95.36234
 CYCLE:     6 TIME:   0.016 TIME LEFT:  2.00D  GRAD.:     5.985 HEAT:  95.35938
 CYCLE:     7 TIME:   0.016 TIME LEFT:  2.00D  GRAD.:    11.279 HEAT:  95.36385
 CYCLE:     8 TIME:   0.016 TIME LEFT:  2.00D  GRAD.:     2.960 HEAT:  95.35788
 CYCLE:     9 TIME:   0.016 TIME LEFT:  2.00D  GRAD.:     8.983 HEAT:  95.36175
 CYCLE:    10 TIME:   0.016 TIME LEFT:  2.00D  GRAD.:     0.296 HEAT:  95.35694
 CYCLE:    11 TIME:   0.016 TIME LEFT:  2.00D  GRAD.:     0.500 HEAT:  95.35696
 CYCLE:    12 TIME:   0.016 TIME LEFT:  2.00D  GRAD.:     0.180 HEAT:  95.35691
 CYCLE:    13 TIME:   0.016 TIME LEFT:  2.00D  GRAD.:     0.123 HEAT:  95.35691
 CYCLE:    14 TIME:   0.016 TIME LEFT:  2.00D  GRAD.:     0.194 HEAT:  95.35689
 CYCLE:    15 TIME:   0.000 TIME LEFT:  2.00D  GRAD.:     0.115 HEAT:  95.35689
 CYCLE:    16 TIME:   0.016 TIME LEFT:  2.00D  GRAD.:     0.119 HEAT:  95.35688
 CYCLE:    17 TIME:   0.016 TIME LEFT:  2.00D  GRAD.:     0.109 HEAT:  95.35687
 CYCLE:    18 TIME:   0.016 TIME LEFT:  2.00D  GRAD.:     0.054 HEAT:  95.35687
 CYCLE:    19 TIME:   0.016 TIME LEFT:  2.00D  GRAD.:     0.421 HEAT:  95.35686
 CYCLE:    20 TIME:   0.016 TIME LEFT:  2.00D  GRAD.:     0.183 HEAT:  95.35685
 CYCLE:    21 TIME:   0.016 TIME LEFT:  2.00D  GRAD.:     0.345 HEAT:  95.35683
 CYCLE:    22 TIME:   0.016 TIME LEFT:  2.00D  GRAD.:     0.146 HEAT:  95.35682
 CYCLE:    23 TIME:   0.000 TIME LEFT:  2.00D  GRAD.:     0.168 HEAT:  95.35680
 CYCLE:    24 TIME:   0.016 TIME LEFT:  2.00D  GRAD.:     0.079 HEAT:  95.35680
 CYCLE:    25 TIME:   0.016 TIME LEFT:  2.00D  GRAD.:     0.062 HEAT:  95.35678
 CYCLE:    26 TIME:   0.016 TIME LEFT:  2.00D  GRAD.:     0.041 HEAT:  95.35678

     GRADIENT =  0.04054 IS LESS THAN CUTOFF =  0.05000



          VARIABLE        FUNCTION
 :       195.00000       95.356779
 precise html  symmetry step=1 points=200  UHF
      Rotation of phenyl group in azobenzene
 (Horizontal axis is C-C-N=N torsion, in degrees)
  C(HETATM    1  C   HET A   1)   0.00001183 +1   -0.0000105 +1    0.0000294 +1
  C(HETATM    2  C   HET A   1)   1.39440153 +1   -0.0000000 +1    0.0000000 +1     1     0     0
  C(HETATM    3  C   HET A   1)   1.39130040 +1  120.1670086 +1   -0.0000000 +1     2     1     0
  C(HETATM    4  C   HET A   1)   1.40099230 +1  119.4732093 +1    0.0684384 +1     3     2     1
  C(HETATM    5  C   HET A   1)   1.40342338 +1  120.5093276 +1    0.0143005 +1     4     3     2
  C(HETATM    6  C   HET A   1)   1.39083450 +1  119.3557817 +1   -0.1246258 +1     5     4     3
  N(HETATM    7  N   HET A   1)   1.42863122 +1  125.1075492 +1  178.6340481 +1     4     3     5
  N(HETATM    8  N   HET A   1)   1.25257979 +1  117.2327017 +1   11.0728073 +1     7     4     3
  C(HETATM    9  C   HET A   1)   1.42873755 +1  117.1650333 +1 -179.6464871 +1     8     7     4
  C(HETATM   10  C   HET A   1)   1.40329085 +1  114.4808486 +1 -165.0000000 -1     9     8     7
  C(HETATM   11  C   HET A   1)   1.39083019 +1  119.3354079 +1 -179.4384429 +1    10     9     8
[...]
  H(HETATM   16  H   HET A   1)   1.08879841 +1  119.9880751 +1 -179.9676184 +1     2     1     3
  H(HETATM   17  H   HET A   1)   1.09152803 +1  120.7153448 +1 -179.9763563 +1     3     2     4
  H(HETATM   18  H   HET A   1)   1.09079296 +1  119.7288940 +1 -179.9327422 +1     5     4     6
  H(HETATM   19  H   HET A   1)   1.08877098 +1  119.8304815 +1 -179.8876208 +1     6     5     4
  H(HETATM   20  H   HET A   1)   1.09128821 +1  119.8297397 +1 -179.9151652 +1    10     9    11
  H(HETATM   21  H   HET A   1)   1.08879801 +1  119.8412274 +1  179.8054982 +1    11    10    12
  H(HETATM   22  H   HET A   1)   1.08879439 +1  119.8934261 +1  179.9142188 +1    12    11    13
  H(HETATM   23  H   HET A   1)   1.08878561 +1  119.9290978 +1  179.9634899 +1    13    12    14
  H(HETATM   24  H   HET A   1)   1.09064263 +1  120.9196981 +1  179.9715018 +1    14    13    12
 
  10  9   14
 

          Geometry optimization using EF

          DIAGONAL MATRIX USED AS START HESSIAN

 CYCLE:     1 TIME:   0.035 TIME LEFT:  2.00D  GRAD.:     0.236 HEAT:  95.37204
 CYCLE:     2 TIME:   0.020 TIME LEFT:  2.00D  GRAD.:     1.786 HEAT:  95.37206
 CYCLE:     3 TIME:   0.027 TIME LEFT:  2.00D  GRAD.:     8.232 HEAT:  95.37527
 CYCLE:     4 TIME:   0.020 TIME LEFT:  2.00D  GRAD.:     2.765 HEAT:  95.37218
 CYCLE:     5 TIME:   0.062 TIME LEFT:  2.00D  GRAD.:    15.536 HEAT:  95.37773
 CYCLE:     6 TIME:   0.020 TIME LEFT:  2.00D  GRAD.:     2.069 HEAT:  95.37287
 CYCLE:     7 TIME:   0.020 TIME LEFT:  2.00D  GRAD.:     8.727 HEAT:  95.38003
 CYCLE:     8 TIME:   0.020 TIME LEFT:  2.00D  GRAD.:     1.817 HEAT:  95.37254
 CYCLE:     9 TIME:   0.012 TIME LEFT:  2.00D  GRAD.:     6.476 HEAT:  95.37700
 CYCLE:    10 TIME:   0.020 TIME LEFT:  2.00D  GRAD.:     0.808 HEAT:  95.37202
 CYCLE:    11 TIME:   0.020 TIME LEFT:  2.00D  GRAD.:     2.711 HEAT:  95.37320
 CYCLE:    12 TIME:   0.020 TIME LEFT:  2.00D  GRAD.:     0.229 HEAT:  95.37184
 CYCLE:    13 TIME:   0.012 TIME LEFT:  2.00D  GRAD.:     0.123 HEAT:  95.37183
 CYCLE:    14 TIME:   0.020 TIME LEFT:  2.00D  GRAD.:     0.215 HEAT:  95.37182
 CYCLE:    15 TIME:   0.020 TIME LEFT:  2.00D  GRAD.:     0.138 HEAT:  95.37180
 CYCLE:    16 TIME:   0.012 TIME LEFT:  2.00D  GRAD.:     0.211 HEAT:  95.37180
 CYCLE:    17 TIME:   0.020 TIME LEFT:  2.00D  GRAD.:     0.077 HEAT:  95.37177
 CYCLE:    18 TIME:   0.012 TIME LEFT:  2.00D  GRAD.:     0.072 HEAT:  95.37177
 CYCLE:    19 TIME:   0.016 TIME LEFT:  2.00D  GRAD.:     0.063 HEAT:  95.37175
 CYCLE:    20 TIME:   0.020 TIME LEFT:  2.00D  GRAD.:     0.543 HEAT:  95.37181
 CYCLE:    21 TIME:   0.023 TIME LEFT:  2.00D  GRAD.:     0.086 HEAT:  95.37170
 CYCLE:    22 TIME:   0.012 TIME LEFT:  2.00D  GRAD.:     0.078 HEAT:  95.37168
 CYCLE:    23 TIME:   0.016 TIME LEFT:  2.00D  GRAD.:     0.068 HEAT:  95.37168
 CYCLE:    24 TIME:   0.016 TIME LEFT:  2.00D  GRAD.:     0.080 HEAT:  95.37165
 CYCLE:    25 TIME:   0.020 TIME LEFT:  2.00D  GRAD.:     0.066 HEAT:  95.37164
 CYCLE:    26 TIME:   0.020 TIME LEFT:  2.00D  GRAD.:     0.601 HEAT:  95.37179
 CYCLE:    27 TIME:   0.020 TIME LEFT:  2.00D  GRAD.:     0.150 HEAT:  95.37161
 CYCLE:    28 TIME:   0.020 TIME LEFT:  2.00D  GRAD.:     0.140 HEAT:  95.37161
 CYCLE:    29 TIME:   0.020 TIME LEFT:  2.00D  GRAD.:     0.064 HEAT:  95.37159
 CYCLE:    30 TIME:   0.020 TIME LEFT:  2.00D  GRAD.:     0.042 HEAT:  95.37158

     GRADIENT =  0.04163 IS LESS THAN CUTOFF =  0.05000



          VARIABLE        FUNCTION
 :       378.00000       95.371584
 precise html  symmetry step=1 points=200  UHF
      Rotation of phenyl group in azobenzene
 (Horizontal axis is C-C-N=N torsion, in degrees)
  C(HETATM    1  C   HET A   1)   0.00008637 +1   -0.0000340 +1    0.0002853 +1
  C(HETATM    2  C   HET A   1)   1.39439960 +1   -0.0000000 +1    0.0000000 +1     1     0     0
  C(HETATM    3  C   HET A   1)   1.39133269 +1  120.1647064 +1   -0.0000000 +1     2     1     0
  C(HETATM    4  C   HET A   1)   1.40095777 +1  119.4684494 +1    0.0597884 +1     3     2     1
  C(HETATM    5  C   HET A   1)   1.40338260 +1  120.5186749 +1    0.0285668 +1     4     3     2
  C(HETATM    6  C   HET A   1)   1.39083121 +1  119.3508819 +1   -0.1381779 +1     5     4     3
  N(HETATM    7  N   HET A   1)   1.42870643 +1  125.0806292 +1  178.5359914 +1     4     3     5
  N(HETATM    8  N   HET A   1)   1.25242904 +1  117.2357908 +1   12.0135817 +1     7     4     3
  C(HETATM    9  C   HET A   1)   1.42888774 +1  117.1213867 +1 -179.6468985 +1     8     7     4
  C(HETATM   10  C   HET A   1)   1.40077964 +1  124.8577090 +1   18.0000000 -1     9     8     7
  C(HETATM   11  C   HET A   1)   1.39145726 +1  119.4388000 +1  179.1097651 +1    10     9     8
  C(HETATM   12  C   HET A   1)   1.39432276 +1  120.1667491 +1    0.5552852 +1    11    10     9
  C(HETATM   13  C   HET A   1)   1.39507194 +1  120.2600949 +1    0.0003158 +1    12    11    10
  C(HETATM   14  C   HET A   1)   1.40317766 +1  114.5766097 +1 -162.0000000 +0     9     8     7
  H(HETATM   15  H   HET A   1)   1.08884724 +1  119.8896910 +1  179.9774103 +1     1     2     3
  H(HETATM   16  H   HET A   1)   1.08879758 +1  119.9894080 +1 -179.9817681 +1     2     1     3
  H(HETATM   17  H   HET A   1)   1.09152186 +1  120.7163390 +1 -179.9526783 +1     3     2     4
  H(HETATM   18  H   HET A   1)   1.09079659 +1  119.7296978 +1 -179.9288977 +1     5     4     6
  H(HETATM   19  H   HET A   1)   1.08877289 +1  119.8310241 +1 -179.8906687 +1     6     5     4
  H(HETATM   20  H   HET A   1)   1.09125408 +1  119.8325243 +1 -179.9191682 +1    10     9    11
  H(HETATM   21  H   HET A   1)   1.08879853 +1  119.8406701 +1  179.7950769 +1    11    10    12
  H(HETATM   22  H   HET A   1)   1.08878826 +1  119.8936192 +1  179.9101918 +1    12    11    13
  H(HETATM   23  H   HET A   1)   1.08878881 +1  119.9282392 +1  179.9593557 +1    13    12    14
  H(HETATM   24  H   HET A   1)   1.09062398 +1  120.9210686 +1  179.9704255 +1    14    13    12
 
  10  9   14
 

          Geometry optimization using EF

          DIAGONAL MATRIX USED AS START HESSIAN

 CYCLE:     1 TIME:   0.043 TIME LEFT:  2.00D  GRAD.:     0.244 HEAT:  95.37800
 CYCLE:     2 TIME:   0.020 TIME LEFT:  2.00D  GRAD.:     0.600 HEAT:  95.37795
 CYCLE:     3 TIME:   0.020 TIME LEFT:  2.00D  GRAD.:    16.528 HEAT:  95.38414
 CYCLE:     4 TIME:   0.020 TIME LEFT:  2.00D  GRAD.:     1.581 HEAT:  95.37817
 CYCLE:     5 TIME:   0.062 TIME LEFT:  2.00D  GRAD.:    18.324 HEAT:  95.38575
 CYCLE:     6 TIME:   0.027 TIME LEFT:  2.00D  GRAD.:     6.561 HEAT:  95.38619
 CYCLE:     7 TIME:   0.039 TIME LEFT:  2.00D  GRAD.:    10.375 HEAT:  95.38193
 CYCLE:     8 TIME:   0.020 TIME LEFT:  2.00D  GRAD.:     3.709 HEAT:  95.37929
 CYCLE:     9 TIME:   0.012 TIME LEFT:  2.00D  GRAD.:     6.728 HEAT:  95.38273
 CYCLE:    10 TIME:   0.020 TIME LEFT:  2.00D  GRAD.:     1.613 HEAT:  95.37787
 CYCLE:    11 TIME:   0.020 TIME LEFT:  2.00D  GRAD.:     0.629 HEAT:  95.37784
 CYCLE:    12 TIME:   0.012 TIME LEFT:  2.00D  GRAD.:     0.759 HEAT:  95.37778
 CYCLE:    13 TIME:   0.023 TIME LEFT:  2.00D  GRAD.:     0.368 HEAT:  95.37775
 CYCLE:    14 TIME:   0.008 TIME LEFT:  2.00D  GRAD.:     0.439 HEAT:  95.37775
 CYCLE:    15 TIME:   0.020 TIME LEFT:  2.00D  GRAD.:     0.193 HEAT:  95.37772
 CYCLE:    16 TIME:   0.020 TIME LEFT:  2.00D  GRAD.:     0.192 HEAT:  95.37770
 CYCLE:    17 TIME:   0.012 TIME LEFT:  2.00D  GRAD.:     0.117 HEAT:  95.37769
 CYCLE:    18 TIME:   0.020 TIME LEFT:  2.00D  GRAD.:     0.230 HEAT:  95.37767
 CYCLE:    19 TIME:   0.020 TIME LEFT:  2.00D  GRAD.:     0.097 HEAT:  95.37766
 CYCLE:    20 TIME:   0.023 TIME LEFT:  2.00D  GRAD.:     0.203 HEAT:  95.37765
 CYCLE:    21 TIME:   0.016 TIME LEFT:  2.00D  GRAD.:     0.061 HEAT:  95.37764
 CYCLE:    22 TIME:   0.023 TIME LEFT:  2.00D  GRAD.:     0.319 HEAT:  95.37762
 CYCLE:    23 TIME:   0.020 TIME LEFT:  2.00D  GRAD.:     0.385 HEAT:  95.37759
 CYCLE:    24 TIME:   0.027 TIME LEFT:  2.00D  GRAD.:     0.161 HEAT:  95.37748
 CYCLE:    25 TIME:   0.023 TIME LEFT:  2.00D  GRAD.:     0.113 HEAT:  95.37749
 CYCLE:    26 TIME:   0.012 TIME LEFT:  2.00D  GRAD.:     0.161 HEAT:  95.37749
 CYCLE:    27 TIME:   0.020 TIME LEFT:  2.00D  GRAD.:     0.092 HEAT:  95.37749
 CYCLE:    28 TIME:   0.008 TIME LEFT:  2.00D  GRAD.:     0.098 HEAT:  95.37749
 CYCLE:    29 TIME:   0.020 TIME LEFT:  2.00D  GRAD.:     0.104 HEAT:  95.37748
 CYCLE:    30 TIME:   0.012 TIME LEFT:  2.00D  GRAD.:     0.097 HEAT:  95.37748
 CYCLE:    31 TIME:   0.016 TIME LEFT:  2.00D  GRAD.:     0.217 HEAT:  95.37748
 CYCLE:    32 TIME:   0.016 TIME LEFT:  2.00D  GRAD.:     0.112 HEAT:  95.37748
 CYCLE:    33 TIME:   0.008 TIME LEFT:  2.00D  GRAD.:     0.086 HEAT:  95.37748
 CYCLE:    34 TIME:   0.020 TIME LEFT:  2.00D  GRAD.:     0.100 HEAT:  95.37747
 CYCLE:    35 TIME:   0.020 TIME LEFT:  2.00D  GRAD.:     0.092 HEAT:  95.37747
 CYCLE:    36 TIME:   0.012 TIME LEFT:  2.00D  GRAD.:     0.057 HEAT:  95.37745
 CYCLE:    37 TIME:   0.012 TIME LEFT:  2.00D  GRAD.:     0.069 HEAT:  95.37745
 CYCLE:    38 TIME:   0.020 TIME LEFT:  2.00D  GRAD.:     0.217 HEAT:  95.37749
 CYCLE:    39 TIME:   0.016 TIME LEFT:  2.00D  GRAD.:     0.167 HEAT:  95.37744
 CYCLE:    40 TIME:   0.016 TIME LEFT:  2.00D  GRAD.:     0.063 HEAT:  95.37744
 CYCLE:    41 TIME:   0.020 TIME LEFT:  2.00D  GRAD.:     0.061 HEAT:  95.37744
 CYCLE:    42 TIME:   0.008 TIME LEFT:  2.00D  GRAD.:     0.054 HEAT:  95.37744
 CYCLE:    43 TIME:   0.020 TIME LEFT:  2.00D  GRAD.:     0.063 HEAT:  95.37744
 CYCLE:    44 TIME:   0.012 TIME LEFT:  2.00D  GRAD.:     0.054 HEAT:  95.37744
 CYCLE:    45 TIME:   0.020 TIME LEFT:  2.00D  GRAD.:     0.058 HEAT:  95.37744
 CYCLE:    46 TIME:   0.020 TIME LEFT:  2.00D  GRAD.:     0.054 HEAT:  95.37744
 CYCLE:    47 TIME:   0.012 TIME LEFT:  2.00D  GRAD.:     0.053 HEAT:  95.37743
 CYCLE:    48 TIME:   0.020 TIME LEFT:  2.00D  GRAD.:     0.046 HEAT:  95.37743

     GRADIENT =  0.04564 IS LESS THAN CUTOFF =  0.05000



          VARIABLE        FUNCTION
 :       379.00000       95.377433
 precise html  symmetry step=1 points=200  UHF
      Rotation of phenyl group in azobenzene
 (Horizontal axis is C-C-N=N torsion, in degrees)
  C(HETATM    1  C   HET A   1)   0.00008837 +1   -0.0000352 +1    0.0002877 +1
  C(HETATM    2  C   HET A   1)   1.39439246 +1   -0.0000000 +1    0.0000000 +1     1     0     0
  C(HETATM    3  C   HET A   1)   1.39133788 +1  120.1653756 +1   -0.0000000 +1     2     1     0
  C(HETATM    4  C   HET A   1)   1.40093519 +1  119.4656721 +1    0.0857854 +1     3     2     1
  C(HETATM    5  C   HET A   1)   1.40334743 +1  120.5235173 +1    0.0169344 +1     4     3     2
  C(HETATM    6  C   HET A   1)   1.39082880 +1  119.3477466 +1   -0.1487841 +1     5     4     3
  N(HETATM    7  N   HET A   1)   1.42874815 +1  125.0574381 +1  178.4672387 +1     4     3     5
  N(HETATM    8  N   HET A   1)   1.25238247 +1  117.2311191 +1   12.6455992 +1     7     4     3
  C(HETATM    9  C   HET A   1)   1.42893505 +1  117.1104548 +1 -179.6274204 +1     8     7     4
  C(HETATM   10  C   HET A   1)   1.40072837 +1  124.8136451 +1   19.0000000 -1     9     8     7
  C(HETATM   11  C   HET A   1)   1.39147570 +1  119.4326115 +1  179.0533849 +1    10     9     8
  C(HETATM   12  C   HET A   1)   1.39430726 +1  120.1668364 +1    0.5859248 +1    11    10     9
  C(HETATM   13  C   HET A   1)   1.39508008 +1  120.2608093 +1    0.0059456 +1    12    11    10
  C(HETATM   14  C   HET A   1)   1.40313243 +1  114.6100266 +1 -161.0000000 +0     9     8     7
  H(HETATM   15  H   HET A   1)   1.08884452 +1  119.8902431 +1  179.9554880 +1     1     2     3
  H(HETATM   16  H   HET A   1)   1.08880154 +1  119.9894271 +1 -179.9639542 +1     2     1     3
  H(HETATM   17  H   HET A   1)   1.09151481 +1  120.7177436 +1 -179.9596108 +1     3     2     4
  H(HETATM   18  H   HET A   1)   1.09079454 +1  119.7316677 +1 -179.9182958 +1     5     4     6
  H(HETATM   19  H   HET A   1)   1.08877546 +1  119.8305439 +1 -179.8704989 +1     6     5     4
  H(HETATM   20  H   HET A   1)   1.09121443 +1  119.8357932 +1 -179.9155765 +1    10     9    11
  H(HETATM   21  H   HET A   1)   1.08879960 +1  119.8397107 +1  179.7852482 +1    11    10    12
  H(HETATM   22  H   HET A   1)   1.08877859 +1  119.8937363 +1  179.9022708 +1    12    11    13
  H(HETATM   23  H   HET A   1)   1.08879419 +1  119.9281091 +1  179.9540392 +1    13    12    14
  H(HETATM   24  H   HET A   1)   1.09060457 +1  120.9220984 +1  179.9655119 +1    14    13    12
 
  10  9   14
 

                POINTS ON REACTION PATH 
                AND CORRESPONDING HEATS


     180.00000000     181.00000000     182.00000000     183.00000000     184.00000000     185.00000000     186.00000000     187.00000000
      95.33597893      95.33610658      95.33653979      95.33725707      95.33814353      95.33640375      95.33695848      95.33786276
     188.00000000     189.00000000     190.00000000     191.00000000     192.00000000     193.00000000     194.00000000     195.00000000
      95.33913591      95.34076521      95.34262460      95.34435794      95.34696927      95.34993296      95.35292019      95.35677920
     196.00000000     197.00000000     198.00000000     199.00000000     200.00000000     201.00000000     202.00000000     203.00000000
      95.36107649      95.36604722      95.37092514      95.37708119      95.38387155      95.39129999      95.39941601      95.40820774
     204.00000000     205.00000000     206.00000000     207.00000000     208.00000000     209.00000000     210.00000000     211.00000000
      95.41768448      95.42792621      95.43890189      95.45064430      95.46319184      95.47650291      95.49060027      95.50553324
     212.00000000     213.00000000     214.00000000     215.00000000     216.00000000     217.00000000     218.00000000     219.00000000
      95.52124736      95.53776646      95.55507786      95.57318560      95.59207127      95.61172805      95.63212953      95.65326754
     220.00000000     221.00000000     222.00000000     223.00000000     224.00000000     225.00000000     226.00000000     227.00000000
      95.67510485      95.69762452      95.72079321      95.74458088      95.76895499      95.79387711      95.81930562      95.84519412
     228.00000000     229.00000000     230.00000000     231.00000000     232.00000000     233.00000000     234.00000000     235.00000000
      95.87150435      95.89818716      95.92519494      95.95247891      95.97998529      96.00766207      96.03545705      96.06331220
     236.00000000     237.00000000     238.00000000     239.00000000     240.00000000     241.00000000     242.00000000     243.00000000
      96.09117601      96.11899146      96.14670458      96.17425834      96.20160551      96.22868036      96.25543410      96.28180341
     244.00000000     245.00000000     246.00000000     247.00000000     248.00000000     249.00000000     250.00000000     251.00000000
      96.30773644      96.33320993      96.35814579      96.38249744      96.40624117      96.42932203      96.45164294      96.47317795
     252.00000000     253.00000000     254.00000000     255.00000000     256.00000000     257.00000000     258.00000000     259.00000000
      96.49392009      96.51382583      96.53283848      96.55095345      96.56805928      96.58425831      96.59905869      96.61311264
     260.00000000     261.00000000     262.00000000     263.00000000     264.00000000     265.00000000     266.00000000     267.00000000
      96.62608760      96.63798241      96.64870007      96.65828219      96.66623691      96.67352005      96.67784426      96.68235344
     268.00000000     269.00000000     270.00000000     271.00000000     272.00000000     273.00000000     274.00000000     275.00000000
      96.68569101      96.68784505      96.68879973      96.68854102      96.68704498      96.68425814      96.68025355      96.67484200
     276.00000000     277.00000000     278.00000000     279.00000000     280.00000000     281.00000000     282.00000000     283.00000000
      96.66641288      96.65855061      96.64948703      96.63918635      96.62588496      96.61327230      96.59950676      96.58416727
     284.00000000     285.00000000     286.00000000     287.00000000     288.00000000     289.00000000     290.00000000     291.00000000
      96.56826616      96.55133701      96.53343782      96.51347529      96.49371328      96.47309872      96.45170069      96.42950202
     292.00000000     293.00000000     294.00000000     295.00000000     296.00000000     297.00000000     298.00000000     299.00000000
      96.40656851      96.38297712      96.35869582      96.33376495      96.30834024      96.28234488      96.25598860      96.22922876
     300.00000000     301.00000000     302.00000000     303.00000000     304.00000000     305.00000000     306.00000000     307.00000000
      96.20208397      96.17471017      96.14713627      96.11939119      96.09157608      96.06370293      96.03581576      96.00800695
     308.00000000     309.00000000     310.00000000     311.00000000     312.00000000     313.00000000     314.00000000     315.00000000
      95.98029179      95.95274549      95.92543783      95.89841112      95.87169885      95.84536555      95.81944572      95.79399439
     316.00000000     317.00000000     318.00000000     319.00000000     320.00000000     321.00000000     322.00000000     323.00000000
      95.76905091      95.74465472      95.72083359      95.69763256      95.67508208      95.65321422      95.63205262      95.61161937
     324.00000000     325.00000000     326.00000000     327.00000000     328.00000000     329.00000000     330.00000000     331.00000000
      95.59193731      95.57301934      95.55488276      95.53753951      95.52099373      95.50525158      95.49031460      95.47618063
     332.00000000     333.00000000     334.00000000     335.00000000     336.00000000     337.00000000     338.00000000     339.00000000
      95.46284776      95.45030785      95.43855488      95.42757523      95.41735422      95.40787834      95.39912938      95.39109541
     340.00000000     341.00000000     342.00000000     343.00000000     344.00000000     345.00000000     346.00000000     347.00000000
      95.38374026      95.37703996      95.37097393      95.36556056      95.36070709      95.35640477      95.35268497      95.34948529
     348.00000000     349.00000000     350.00000000     351.00000000     352.00000000     353.00000000     354.00000000     355.00000000
      95.34662581      95.34425994      95.34233484      95.34020628      95.33909726      95.33836784      95.33792331      95.33678069
     356.00000000     357.00000000     358.00000000     359.00000000     360.00000000     361.00000000     362.00000000     363.00000000
      95.33688504      95.33723043      95.33787014      95.33652273      95.33719556      95.33811556      95.33600093      95.33633009
     364.00000000     365.00000000     366.00000000     367.00000000     368.00000000     369.00000000     370.00000000     371.00000000
      95.33693771      95.33780664      95.33892706      95.33798918      95.33925657      95.34084894      95.34279538      95.34400562
     372.00000000     373.00000000     374.00000000     375.00000000     376.00000000     377.00000000     378.00000000     379.00000000
      95.34657800      95.34964709      95.35298460      95.35693216      95.36130981      95.36621317      95.37158403      95.37743283

 **********************
 *                    *
 * JOB ENDED NORMALLY *
 *                    *
 **********************



 TOTAL JOB TIME:            97.47 SECONDS

 == MOPAC DONE ==
