 *******************************************************************************
 ** Site#: 37037        For non-commercial use only           Version 21.158W **
 *******************************************************************************
 ** Cite this program as: MOPAC2016, Version: 21.158W, James J. P. Stewart,   **
 ** Stewart Computational Chemistry, web: HTTP://OpenMOPAC.net. Days left: 363**
 *******************************************************************************
 **                                                                           **
 **                                MOPAC2016                                  **
 **                                                                           **
 *******************************************************************************

                              PM7 CALCULATION RESULTS

 *******************************************************************************
 *  CALCULATION DONE:                                Wed Jun  9 12:05:08 2021  *
 *  SYMMETRY   - SYMMETRY CONDITIONS TO BE IMPOSED
 *
 *
 *
 *                 CHARGE ON SYSTEM = -1
 *
 *
 *
 *  EPS=78.4   - USE ANDREAS KLAMT'S COSMO IMPLICIT SOLVATION MODEL
 *  PRECISE    - TIGHTER CRITERIA TO BE USED
 *  T=         - A TIME OF 172800.0 SECONDS REQUESTED
 *  DUMP=N     - RESTART FILE WRITTEN EVERY 7200.0 SECONDS REQUESTED
 *******************************************************************************



                    PARAMETER DEPENDENCE DATA

        REFERENCE ATOM      FUNCTION NO.    DEPENDENT ATOM(S)
            2                  1               6

             DESCRIPTIONS OF THE FUNCTIONS USED
   1      BOND LENGTH    IS SET EQUAL TO THE REFERENCE BOND LENGTH   
 
  charge=-1 eps=78.4 symmetry precise
     [F - CH3 - Br](-)

  ATOM               CHEMICAL                 BOND LENGTH      BOND ANGLE     TWIST ANGLE 
 NUMBER               SYMBOL                  (ANGSTROMS)      (DEGREES)       (DEGREES) 
   (I)                                           NA:I           NB:NA:I       NC:NB:NA:I       NA    NB    NC 
     1      Br(HETATM    1  Br  HET A   1)    0.00000000       0.0000000       0.0000000   
     2       C(HETATM    2  C   HET A   1)    1.82380532  *    0.0000000       0.0000000        1     0     0
     3       H(HETATM    3  H   HET A   1)    1.09052435  *  107.0678886  *    0.0000000        2     1     0
     4       H(HETATM    4  H   HET A   1)    1.09034719  *  107.0799202  *  119.7443349  *     2     1     3
     5       H(HETATM    5  H   HET A   1)    1.08976747  *  107.3487476  *  120.2044802  *     2     1     4
     6       F(HETATM    6  F   HET A   1)    1.82380532      73.0199118  * -179.9746857  *     2     5     1
 

 General Reference for PM7:
 "Optimization of Parameters for Semiempirical Methods VI: More Modifications to the 
 NDDO Approximations and Re-optimization of Parameters", J. J. P. Stewart, J. Mol. Mod., 1:32, 19 (2013)
 https://link.springer.com/article/10.1007/s00894-012-1667-x

           Empirical Formula: C H3 Br F  =     6 atoms



      MOLECULAR POINT GROUP   :   C3v 


      RHF CALCULATION, NO. OF DOUBLY OCCUPIED LEVELS = 11


          Geometry optimization using EF

          DIAGONAL MATRIX USED AS START HESSIAN

 CYCLE:     1 TIME:   0.016 TIME LEFT:  2.00D  GRAD.:   251.254 HEAT: -105.2542
 CYCLE:     2 TIME:   0.000 TIME LEFT:  2.00D  GRAD.:    80.163 HEAT: -137.3979
 CYCLE:     3 TIME:   0.016 TIME LEFT:  2.00D  GRAD.:    29.187 HEAT: -143.3818
 CYCLE:     4 TIME:   0.000 TIME LEFT:  2.00D  GRAD.:     8.990 HEAT: -145.0469
 CYCLE:     5 TIME:   0.016 TIME LEFT:  2.00D  GRAD.:     5.736 HEAT: -145.3566
 CYCLE:     6 TIME:   0.047 TIME LEFT:  2.00D  GRAD.:     5.623 HEAT: -145.3603

     TRUST RADIUS NOW LESS THAN  0.00010 OPTIMIZATION TERMINATING
      THE GEOMETRY MAY NOT BE COMPLETELY OPTIMIZED
      (TO CONTINUE, ADD 'LET DDMIN=0.0' TO THE KEYWORD LINE)

 -------------------------------------------------------------------------------
 charge=-1 eps=78.4 symmetry precise
     [F - CH3 - Br](-)



     GEOMETRY OPTIMISED USING EIGENVECTOR FOLLOWING (EF).     
     SCF FIELD WAS ACHIEVED                                   


                              PM7 CALCULATION
                                                       MOPAC2016 (Version: 21.158W)
                                                       Wed Jun  9 12:05:08 2021
                                                       No. of days remaining = 363




          FINAL HEAT OF FORMATION =       -145.36027 KCAL/MOL =    -608.18739 KJ/MOL
          VAN DER WAALS AREA      =        103.67 SQUARE ANGSTROMS


          TOTAL ENERGY            =       -855.36267 EV
          ELECTRONIC ENERGY       =       -560.11388 EV  POINT GROUP:     Cs  
          CORE-CORE REPULSION     =       -295.24878 EV

          DIELECTRIC ENERGY       =         -3.25558 EV
          COSMO AREA              =        103.67 SQUARE ANGSTROMS
          COSMO VOLUME            =         84.63 CUBIC ANGSTROMS

          GRADIENT NORM           =          5.62316 = 2.29564 PER ATOM
          IONIZATION POTENTIAL    =         10.616327 EV
          HOMO LUMO ENERGIES (EV) =        -10.616 -0.234
          NO. OF FILLED LEVELS    =         11
          MOLECULAR WEIGHT        =        113.9371

          MOLECULAR DIMENSIONS (Angstroms)

            Atom       Atom       Distance
            F     6   Br     1     4.34921
            H     5    H     4     1.84746
            H     4    H     3     1.59737


          SCF CALCULATIONS        =         17
 
          WALL-CLOCK TIME         =          0.156 SECONDS
          COMPUTATION TIME        =          0.141 SECONDS



       FINAL  POINT  AND  DERIVATIVES

   PARAMETER     ATOM    TYPE            VALUE        GRADIENT
      1          2  C    BOND            2.176288      2.398305  KCAL/ANGSTROM
      2          3  H    BOND            1.084156     -0.379686  KCAL/ANGSTROM
      3          3  H    ANGLE         100.421407      1.474628  KCAL/RADIAN  
      4          4  H    BOND            1.084029     -0.433943  KCAL/ANGSTROM
      5          4  H    ANGLE         100.397222      1.574312  KCAL/RADIAN  
      6          4  H    DIHEDRAL      119.630837     -0.056169  KCAL/RADIAN  
      7          5  H    BOND            1.084511     -0.373848  KCAL/ANGSTROM
      8          5  H    ANGLE         100.550642      1.524395  KCAL/RADIAN  
      9          5  H    DIHEDRAL      120.201888     -0.043171  KCAL/RADIAN  
     10          6  F    ANGLE          74.943822     -4.291096  KCAL/RADIAN  
     11          6  F    DIHEDRAL     -180.144616      0.022565  KCAL/RADIAN  




  ATOM               CHEMICAL                 BOND LENGTH      BOND ANGLE     TWIST ANGLE 
 NUMBER               SYMBOL                  (ANGSTROMS)      (DEGREES)       (DEGREES) 
   (I)                                           NA:I           NB:NA:I       NC:NB:NA:I       NA    NB    NC 
     1      Br(HETATM    1  Br  HET A   1)    0.00000000       0.0000000       0.0000000   
     2       C(HETATM    2  C   HET A   1)    2.17628822  *    0.0000000       0.0000000        1     0     0
     3       H(HETATM    3  H   HET A   1)    1.08415589  *  100.4214070  *    0.0000000        2     1     0
     4       H(HETATM    4  H   HET A   1)    1.08402852  *  100.3972222  *  119.6308370  *     2     1     3
     5       H(HETATM    5  H   HET A   1)    1.08451061  *  100.5506418  *  120.2018876  *     2     1     4
     6       F(HETATM    6  F   HET A   1)    2.17628822      74.9438215  *  179.8553843  *     2     5     1

                             CARTESIAN COORDINATES

   1   Br        0.000000000     0.000000000     0.000000000
   2    C        2.176288215     0.000000000     0.000000000
   3    H        2.372397506     1.066271606     0.000000000
   4    H        2.371924424    -0.527154033     0.926797133
   5    H        2.374867010    -0.535781044    -0.921774588
   6    F        4.345844569    -0.090498132    -0.145140317


           Empirical Formula: C H3 Br F  =     6 atoms



      MOLECULAR POINT GROUP   :   Cs  


                  EIGENVALUES  
 -32.84441 -26.31172 -23.98069 -14.85335 -14.83966 -12.50045 -11.61741 -11.61229
 -10.81770 -10.61835 -10.61633  -0.23420   5.52134   5.55920   5.78768 266.72820
 266.77872 266.77931 267.43097 267.43111


              NET ATOMIC CHARGES AND DIPOLE CONTRIBUTIONS

  ATOM NO.                 TYPE                        CHARGE      No. of ELECS.   s-Pop       p-Pop       d-Pop       
    1         Br(HETATM    1  Br  HET A   1)          -0.454190        7.4542     1.98294     5.46895     0.00230
    2          C(HETATM    2  C   HET A   1)          -0.069750        4.0698     1.15898     2.91077
    3          H(HETATM    3  H   HET A   1)           0.162589        0.8374     0.83741
    4          H(HETATM    4  H   HET A   1)           0.162394        0.8376     0.83761
    5          H(HETATM    5  H   HET A   1)           0.167154        0.8328     0.83285
    6          F(HETATM    6  F   HET A   1)          -0.968197        7.9682     1.99939     5.96880

          NET CHARGE ON RESIDUES

      Residue         Charge  Anion or
                              Cation?
      HET A   1       -1.000  ANION
 


 DIPOLE           X         Y         Z       TOTAL
 POINT-CHG.   -10.445     0.340     0.542    10.464
 HYBRID        -0.189     0.006     0.010     0.189
 SUM          -10.633     0.346     0.552    10.653


          ATOMIC ORBITAL ELECTRON POPULATIONS

                   Atom                  s        px        py        pz      x^2-y^2     xz        z^2       yz        xy
  Br(HETATM    1  Br  HET A   1)   1.98294   1.46940   1.99977   1.99977   0.00107   0.00043   0.00036   0.00000   0.00043
   C(HETATM    2  C   HET A   1)   1.15898   0.58401   1.16280   1.16396
   H(HETATM    3  H   HET A   1)   0.83741
   H(HETATM    4  H   HET A   1)   0.83761
   H(HETATM    5  H   HET A   1)   0.83285
   F(HETATM    6  F   HET A   1)   1.99939   1.96929   1.99985   1.99967
 *******************************************************************************
 ** Site#: 37037        For non-commercial use only           Version 21.158W **
 *******************************************************************************
 ** Cite this program as: MOPAC2016, Version: 21.158W, James J. P. Stewart,   **
 ** Stewart Computational Chemistry, web: HTTP://OpenMOPAC.net. Days left: 363**
 *******************************************************************************
 **                                                                           **
 **                                MOPAC2016                                  **
 **                                                                           **
 *******************************************************************************

                              PM7 CALCULATION RESULTS

 *******************************************************************************
 *  CALCULATION DONE:                                Wed Jun  9 12:05:08 2021  *
 *  OPT        - OPTIMIZE COORDINATES OF ALL ATOMS
 *
 *
 *
 *                 CHARGE ON SYSTEM = -1
 *
 *
 *
 *  EPS=78.4   - USE ANDREAS KLAMT'S COSMO IMPLICIT SOLVATION MODEL
 *  OLDGEO     - PREVIOUS GEOMETRY TO BE USED
 *  PRECISE    - TIGHTER CRITERIA TO BE USED
 *  TS         - USE EF ROUTINE FOR TS SEARCH
 *  T=         - A TIME OF 172800.0 SECONDS REQUESTED
 *  DUMP=N     - RESTART FILE WRITTEN EVERY 7200.0 SECONDS REQUESTED
 *******************************************************************************
oldgeo opt ts eps=78.4 charge=-1 precise
 Refine the transition state geometry

  ATOM               CHEMICAL                 BOND LENGTH      BOND ANGLE     TWIST ANGLE 
 NUMBER               SYMBOL                  (ANGSTROMS)      (DEGREES)       (DEGREES) 
   (I)                                           NA:I           NB:NA:I       NC:NB:NA:I       NA    NB    NC 
     1      Br(HETATM    1  Br  HET A   1)    0.00000000       0.0000000       0.0000000   
     2       C(HETATM    2  C   HET A   1)    2.17628822  *    0.0000000       0.0000000        1     0     0
     3       H(HETATM    3  H   HET A   1)    1.08415589  *  100.4214070  *    0.0000000        2     1     0
     4       H(HETATM    4  H   HET A   1)    1.08402852  *  100.3972222  *  119.6308370  *     2     1     3
     5       H(HETATM    5  H   HET A   1)    1.08451061  *  100.5506418  *  120.2018876  *     2     1     4
     6       F(HETATM    6  F   HET A   1)    2.17628822  *   74.9438215  *  179.8553843  *     2     5     1
 

 General Reference for PM7:
 "Optimization of Parameters for Semiempirical Methods VI: More Modifications to the 
 NDDO Approximations and Re-optimization of Parameters", J. J. P. Stewart, J. Mol. Mod., 1:32, 19 (2013)
 https://link.springer.com/article/10.1007/s00894-012-1667-x

           Empirical Formula: C H3 Br F  =     6 atoms



      MOLECULAR POINT GROUP   :   Cs  


      RHF CALCULATION, NO. OF DOUBLY OCCUPIED LEVELS = 11


          Transition state refinement using EF

          HESSIAN CALCULATED NUMERICALLY

 CYCLE:     1 TIME:   0.094 TIME LEFT:  2.00D  GRAD.:    42.169 HEAT: -145.3603
 CYCLE:     2 TIME:   0.016 TIME LEFT:  2.00D  GRAD.:    34.234 HEAT: -145.8022
 CYCLE:     3 TIME:   0.000 TIME LEFT:  2.00D  GRAD.:    31.386 HEAT: -143.9695
 CYCLE:     4 TIME:   0.016 TIME LEFT:  2.00D  GRAD.:    23.034 HEAT: -139.7272
 CYCLE:     5 TIME:   0.000 TIME LEFT:  2.00D  GRAD.:    18.589 HEAT: -137.0695
 CYCLE:     6 TIME:   0.016 TIME LEFT:  2.00D  GRAD.:     2.818 HEAT: -137.2665
 CYCLE:     7 TIME:   0.000 TIME LEFT:  2.00D  GRAD.:     1.782 HEAT: -137.3098
 CYCLE:     8 TIME:   0.016 TIME LEFT:  2.00D  GRAD.:     0.448 HEAT: -137.3154
 CYCLE:     9 TIME:   0.000 TIME LEFT:  2.00D  GRAD.:     0.106 HEAT: -137.3163
 CYCLE:    10 TIME:   0.016 TIME LEFT:  2.00D  GRAD.:     0.044 HEAT: -137.3163

     GRADIENT =  0.04406 IS LESS THAN CUTOFF =  0.05000



 -------------------------------------------------------------------------------
 opt ts eps=78.4 charge=-1 precise
 Refine the transition state geometry



     GEOMETRY OPTIMISED USING EIGENVECTOR FOLLOWING (TS).     
     SCF FIELD WAS ACHIEVED                                   


                              PM7 CALCULATION
                                                       MOPAC2016 (Version: 21.158W)
                                                       Wed Jun  9 12:05:08 2021
                                                       No. of days remaining = 363




          FINAL HEAT OF FORMATION =       -137.31628 KCAL/MOL =    -574.53131 KJ/MOL
          VAN DER WAALS AREA      =        103.37 SQUARE ANGSTROMS


          TOTAL ENERGY            =       -855.01382 EV
          ELECTRONIC ENERGY       =       -566.85398 EV  POINT GROUP:     C3v 
          CORE-CORE REPULSION     =       -288.15984 EV

          DIELECTRIC ENERGY       =         -2.91162 EV
          COSMO AREA              =        103.37 SQUARE ANGSTROMS
          COSMO VOLUME            =         84.40 CUBIC ANGSTROMS

          GRADIENT NORM           =          0.04406 = 0.01799 PER ATOM
          IONIZATION POTENTIAL    =         10.238309 EV
          HOMO LUMO ENERGIES (EV) =        -10.238 -0.290
          NO. OF FILLED LEVELS    =         11
          MOLECULAR WEIGHT        =        113.9371

          MOLECULAR DIMENSIONS (Angstroms)

            Atom       Atom       Distance
            F     6   Br     1     4.28967
            H     3    H     4     1.88090
            H     5    H     3     1.62869


          SCF CALCULATIONS        =         24
 
          WALL-CLOCK TIME         =          0.344 SECONDS
          COMPUTATION TIME        =          0.328 SECONDS




  ATOM               CHEMICAL                 BOND LENGTH      BOND ANGLE     TWIST ANGLE 
 NUMBER               SYMBOL                  (ANGSTROMS)      (DEGREES)       (DEGREES) 
   (I)                                           NA:I           NB:NA:I       NC:NB:NA:I       NA    NB    NC 
     1      Br(HETATM    1  Br  HET A   1)    0.00000000       0.0000000       0.0000000   
     2       C(HETATM    2  C   HET A   1)    2.36170620  *    0.0000000       0.0000000        1     0     0
     3       H(HETATM    3  H   HET A   1)    1.08595412  *   90.8271731  *    0.0000000        2     1     0
     4       H(HETATM    4  H   HET A   1)    1.08602536  *   90.9477665  *  120.0142696  *     2     1     3
     5       H(HETATM    5  H   HET A   1)    1.08601948  *   90.9352041  *  119.9796902  *     2     1     4
     6       F(HETATM    6  F   HET A   1)    1.92796537  *   89.1226976  * -179.8374635  *     2     5     1

                             CARTESIAN COORDINATES

   1   Br        0.000000000     0.000000000     0.000000000
   2    C        2.361706199     0.000000000     0.000000000
   3    H        2.377383459     1.085840957     0.000000000
   4    H        2.379670027    -0.543172580     0.940261625
   5    H        2.379431846    -0.543036541    -0.940337932
   6    F        4.289662824     0.005709949    -0.001047686


           Empirical Formula: C H3 Br F  =     6 atoms



      MOLECULAR POINT GROUP   :   C3v 


                  EIGENVALUES  
 -34.45974 -26.61188 -24.63674 -15.11912 -15.11377 -12.91253 -12.59171 -12.59030
 -10.42581 -10.42020 -10.23831  -0.29041   5.13003   5.37883   5.38237 275.80664
 275.84547 275.84692 276.33916 276.33921


              NET ATOMIC CHARGES AND DIPOLE CONTRIBUTIONS

  ATOM NO.                 TYPE                        CHARGE      No. of ELECS.   s-Pop       p-Pop       d-Pop       
    1         Br(HETATM    1  Br  HET A   1)          -0.764785        7.7648     1.99371     5.76944     0.00163
    2          C(HETATM    2  C   HET A   1)           0.115454        3.8845     1.20372     2.68083
    3          H(HETATM    3  H   HET A   1)           0.157129        0.8429     0.84287
    4          H(HETATM    4  H   HET A   1)           0.157900        0.8421     0.84210
    5          H(HETATM    5  H   HET A   1)           0.157406        0.8426     0.84259
    6          F(HETATM    6  F   HET A   1)          -0.823105        7.8231     1.99713     5.82597

          NET CHARGE ON RESIDUES

      Residue         Charge  Anion or
                              Cation?
      HET A   1       -1.000  ANION
 


 DIPOLE           X         Y         Z       TOTAL
 POINT-CHG.    -5.317    -0.021     0.005     5.317
 HYBRID        -0.039     0.001    -0.001     0.039
 SUM           -5.356    -0.021     0.005     5.356


          ATOMIC ORBITAL ELECTRON POPULATIONS

                   Atom                  s        px        py        pz      x^2-y^2     xz        z^2       yz        xy
  Br(HETATM    1  Br  HET A   1)   1.99371   1.76947   1.99998   1.99998   0.00078   0.00029   0.00026   0.00000   0.00029
   C(HETATM    2  C   HET A   1)   1.20372   0.41213   1.13405   1.13465
   H(HETATM    3  H   HET A   1)   0.84287
   H(HETATM    4  H   HET A   1)   0.84210
   H(HETATM    5  H   HET A   1)   0.84259
   F(HETATM    6  F   HET A   1)   1.99713   1.82600   1.99999   1.99999
 *******************************************************************************
 ** Site#: 37037        For non-commercial use only           Version 21.158W **
 *******************************************************************************
 ** Cite this program as: MOPAC2016, Version: 21.158W, James J. P. Stewart,   **
 ** Stewart Computational Chemistry, web: HTTP://OpenMOPAC.net. Days left: 363**
 *******************************************************************************
 **                                                                           **
 **                                MOPAC2016                                  **
 **                                                                           **
 *******************************************************************************

                              PM7 CALCULATION RESULTS

 *******************************************************************************
 *  CALCULATION DONE:                                Wed Jun  9 12:05:08 2021  *
 *
 *
 *
 *                 CHARGE ON SYSTEM = -1
 *
 *
 *
 *  EPS=78.4   - USE ANDREAS KLAMT'S COSMO IMPLICIT SOLVATION MODEL
 *  OLDGEO     - PREVIOUS GEOMETRY TO BE USED
 *  FORCE      - FORCE CALCULATION SPECIFIED
 *  T=         - A TIME OF 172800.0 SECONDS REQUESTED
 *  DUMP=N     - RESTART FILE WRITTEN EVERY 7200.0 SECONDS REQUESTED
 *  ISOTOPE    - SAVE THE FORCE MATRIX FOR USE LATER
 *******************************************************************************
oldgeo force eps=78.4 charge=-1 isotope
 Verify that the system is a transition state

  ATOM               CHEMICAL                 BOND LENGTH      BOND ANGLE     TWIST ANGLE 
 NUMBER               SYMBOL                  (ANGSTROMS)      (DEGREES)       (DEGREES) 
   (I)                                           NA:I           NB:NA:I       NC:NB:NA:I       NA    NB    NC 
     1      Br(HETATM    1  Br  HET A   1)    0.00000000       0.0000000       0.0000000   
     2       C(HETATM    2  C   HET A   1)    2.36170620  *    0.0000000       0.0000000        1     0     0
     3       H(HETATM    3  H   HET A   1)    1.08595412  *   90.8271731  *    0.0000000        2     1     0
     4       H(HETATM    4  H   HET A   1)    1.08602536  *   90.9477665  *  120.0142696  *     2     1     3
     5       H(HETATM    5  H   HET A   1)    1.08601948  *   90.9352041  *  119.9796902  *     2     1     4
     6       F(HETATM    6  F   HET A   1)    1.92796537  *   89.1226976  * -179.8374635  *     2     5     1
 

 General Reference for PM7:
 "Optimization of Parameters for Semiempirical Methods VI: More Modifications to the 
 NDDO Approximations and Re-optimization of Parameters", J. J. P. Stewart, J. Mol. Mod., 1:32, 19 (2013)
 https://link.springer.com/article/10.1007/s00894-012-1667-x

           Empirical Formula: C H3 Br F  =     6 atoms



      MOLECULAR POINT GROUP   :   C3v 


      RHF CALCULATION, NO. OF DOUBLY OCCUPIED LEVELS = 11



          HEAT OF FORMATION =    -137.316280 KCALS/MOLE


          CARTESIAN COORDINATE DERIVATIVES

   NUMBER  ATOM         X            Y            Z

     1      Br     -0.009907    -0.004956    -0.040717
     2       C     -0.016688    -0.013742     0.079521
     3       H      0.009736    -0.001629    -0.021466
     4       H     -0.002924     0.008204     0.006221
     5       H      0.014798     0.000137    -0.022145
     6       F      0.004988     0.011986    -0.001414
 


          GRADIENT NORM =   0.10062

          MOLECULAR WEIGHT =  113.94



          ROTATIONAL CONSTANTS IN CM(-1)

          A =    4.72815351   B =    0.05347900   C =    0.05347887



           PRINCIPAL MOMENTS OF INERTIA IN UNITS OF 10**(-40)*GRAM-CM**2

          A =        5.9204   B =      523.4349   C =      523.4362


          ORIENTATION OF MOLECULE IN FORCE CALCULATION

    NO.       ATOM         X         Y         Z

     1         Br      -1.0274   -0.0009    0.0002
     2          C       1.3343   -0.0009    0.0002
     3          H       1.3500    1.0849    0.0002
     4          H       1.3523   -0.5441    0.9404
     5          H       1.3521   -0.5440   -0.9402
     6          F       3.2623    0.0048   -0.0009


    FIRST DERIVATIVES WILL BE USED IN THE CALCULATION OF SECOND DERIVATIVES

          ESTIMATED TIME TO COMPLETE CALCULATION =        0.56 SECONDS

    FOR POINT-GROUP C3v  THERE ARE   6 UNIQUE SYMMETRY FUNCTIONS.

 STEP:   1 TIME =     0.02 SECS, INTEGRAL =      0.02 TIME LEFT: 172799.98
 STEP:   2 TIME =     0.02 SECS, INTEGRAL =      0.03 TIME LEFT: 172799.97
 STEP:   3 TIME =     0.00 SECS, INTEGRAL =      0.03 TIME LEFT: 172799.97
 STEP:   4 TIME =     0.00 SECS, INTEGRAL =      0.03 TIME LEFT: 172799.97
 STEP:   5 TIME =     0.02 SECS, INTEGRAL =      0.05 TIME LEFT: 172799.95
 STEP:   6 TIME =     0.02 SECS, INTEGRAL =      0.06 TIME LEFT: 172799.94
 STEP:   7 TIME =     0.02 SECS, INTEGRAL =      0.08 TIME LEFT: 172799.92
 STEP:   8 TIME =     0.02 SECS, INTEGRAL =      0.09 TIME LEFT: 172799.91
 STEP:   9 TIME =     0.02 SECS, INTEGRAL =      0.11 TIME LEFT: 172799.89
 STEP:  10                       INTEGRAL =      0.11 TIME LEFT: 172799.89
 STEP:  11                       INTEGRAL =      0.11 TIME LEFT: 172799.89
 STEP:  12                       INTEGRAL =      0.11 TIME LEFT: 172799.89
 STEP:  13                       INTEGRAL =      0.11 TIME LEFT: 172799.89
 STEP:  14                       INTEGRAL =      0.11 TIME LEFT: 172799.89
 STEP:  15                       INTEGRAL =      0.11 TIME LEFT: 172799.89
 STEP:  16 TIME =     0.02 SECS, INTEGRAL =      0.12 TIME LEFT: 172799.88
 STEP:  17 TIME =     0.02 SECS, INTEGRAL =      0.14 TIME LEFT: 172799.86
 STEP:  18 TIME =     0.02 SECS, INTEGRAL =      0.16 TIME LEFT: 172799.84

(To convert to Hartree/Bohr^2, multiply by (10^(-21) x N x a0^2)/(4.184 x 627.51) =  0.0642)


           FORCE MATRIX IN MILLIDYNES/ANGSTROM


                 Br  1       C  2       H  3       H  4       H  5       F  6
 ------------------------------------------------------------------------------
    Br    1   0.576547
     C    2   1.354032   9.581065
     H    3   0.416404   3.492760   4.032875
     H    4   0.421205   3.499722   0.408139   4.032875
     H    5   0.420860   3.485400   0.404596   0.408139   4.032875
     F    6   0.735739   2.244014   0.445816   0.444000   0.444493   0.404354


          HEAT OF FORMATION =    -137.316280 KCALS/MOLE

          ZERO POINT ENERGY      20.816 KCAL/MOL

         NOTE: SYSTEM IS NOT A GROUND STATE, THEREFORE ZERO POINT
         ENERGY IS NOT MEANINGFULL. ZERO POINT ENERGY PRINTED
         DOES NOT INCLUDE THE  1 IMAGINARY FREQUENCIES


           NORMAL COORDINATE ANALYSIS (Total motion = 1 Angstrom)


   Root No.       1         2         3         4         5         6         7         8

                 1 A1      1 E       1 E       2 A1      2 E       2 E       3 E       3 E   

                -747.7     206.9     206.9     217.4    1066.5    1066.5    1258.0    1258.0
  
           1   -0.0392   -0.0000    0.0000   -0.1101    0.0000    0.0000   -0.0000   -0.0000
           2    0.0000   -0.0032   -0.0179   -0.0001    0.0001   -0.0022    0.0001    0.0003
           3   -0.0000   -0.0179    0.0032    0.0000    0.0024    0.0001    0.0003   -0.0001
           4    0.6557    0.0000   -0.0002    0.1618   -0.0000   -0.0000   -0.0000    0.0001
           5    0.0006    0.0376    0.2083    0.0002   -0.0001    0.0022   -0.0111   -0.0626
           6   -0.0001    0.2083   -0.0376   -0.0000   -0.0024   -0.0001   -0.0604    0.0115
           7    0.0059    0.0054    0.0303    0.1292   -0.0283    0.4908    0.0058    0.0327
           8    0.0171    0.0375    0.2072   -0.0054    0.0003   -0.0036   -0.0040   -0.0330
           9    0.0000    0.2378   -0.0422   -0.0000    0.0354    0.0016    0.4639   -0.0865
          10    0.0058    0.0237   -0.0202    0.1292   -0.4545   -0.2676    0.0242   -0.0217
          11   -0.0087    0.0502    0.2256    0.0029    0.0142   -0.0247    0.2763    0.3134
          12    0.0149    0.2145   -0.0268   -0.0048    0.0129   -0.0113    0.1300    0.2042
          13    0.0058   -0.0291   -0.0109    0.1292    0.4828   -0.2231   -0.0299   -0.0117
          14   -0.0087    0.0319    0.2298    0.0029   -0.0112   -0.0259   -0.1533    0.3920
          15   -0.0149    0.2104   -0.0505    0.0047    0.0114    0.0128    0.0543   -0.2412
          16   -0.2507   -0.0000    0.0001    0.3402   -0.0000   -0.0000    0.0000   -0.0000
          17   -0.0005   -0.0165   -0.0914    0.0004   -0.0006    0.0107    0.0005    0.0027
          18    0.0001   -0.0914    0.0165   -0.0001   -0.0118   -0.0006    0.0026   -0.0005


   Root No.       9        10        11        12

                 3 A1      4 E       4 E       4 A1  

                1300.7    2646.0    2646.0    2688.3
  
           1   -0.0047   -0.0000    0.0000   -0.0001
           2    0.0000    0.0000   -0.0000   -0.0000
           3   -0.0000   -0.0000   -0.0000    0.0000
           4   -0.0154   -0.0000    0.0001   -0.0017
           5   -0.0000    0.0110   -0.0555   -0.0000
           6    0.0000   -0.0574   -0.0107   -0.0000
           7    0.3196   -0.0008    0.0038    0.0031
           8   -0.0029   -0.0951    0.4703    0.3324
           9   -0.0001   -0.0262   -0.0067    0.0000
          10    0.3195    0.0046   -0.0015    0.0037
          11    0.0020   -0.2405    0.0558   -0.1662
          12   -0.0029    0.4022   -0.1473    0.2878
          13    0.3195   -0.0036   -0.0030    0.0036
          14    0.0020    0.2033    0.1413   -0.1662
          15    0.0028    0.3138    0.2820   -0.2879
          16   -0.0212   -0.0000    0.0000    0.0010
          17   -0.0001    0.0000   -0.0002    0.0000
          18    0.0000   -0.0002   -0.0000    0.0000


           MASS-WEIGHTED COORDINATE ANALYSIS (NORMAL COORDINATES)


   Root No.       1         2         3         4         5         6         7         8

                 1 A1      1 E       1 E       2 A1      2 E       2 E       3 E       3 E   

                -747.7     206.9     206.9     217.4    1066.5    1066.5    1258.0    1258.0
  
           1   -0.1375   -0.0000    0.0002   -0.5236    0.0000    0.0000   -0.0000   -0.0000
           2    0.0001   -0.0308   -0.1707   -0.0006    0.0017   -0.0323    0.0008    0.0041
           3   -0.0000   -0.1707    0.0308    0.0001    0.0323    0.0017    0.0041   -0.0008
           4    0.8926    0.0000   -0.0009    0.2983   -0.0000   -0.0000   -0.0000    0.0004
           5    0.0008    0.1387    0.7683    0.0003   -0.0006    0.0125   -0.0619   -0.3376
           6   -0.0002    0.7683   -0.1387   -0.0001   -0.0125   -0.0006   -0.3376    0.0619
           7    0.0023    0.0058    0.0324    0.0690   -0.0425    0.8107    0.0093    0.0510
           8    0.0067    0.0401    0.2214   -0.0029    0.0005   -0.0059   -0.0065   -0.0515
           9    0.0000    0.2540   -0.0451   -0.0000    0.0530    0.0026    0.7511   -0.1349
          10    0.0023    0.0254   -0.0216    0.0690   -0.6809   -0.4421    0.0391   -0.0339
          11   -0.0034    0.0536    0.2411    0.0015    0.0213   -0.0409    0.4473    0.4892
          12    0.0059    0.2292   -0.0286   -0.0026    0.0194   -0.0187    0.2104    0.3188
          13    0.0023   -0.0311   -0.0116    0.0690    0.7234   -0.3685   -0.0485   -0.0183
          14   -0.0034    0.0341    0.2455    0.0015   -0.0168   -0.0428   -0.2482    0.6117
          15   -0.0059    0.2248   -0.0540    0.0025    0.0171    0.0212    0.0880   -0.3764
          16   -0.4292   -0.0000    0.0005    0.7890   -0.0000   -0.0001    0.0000   -0.0000
          17   -0.0009   -0.0765   -0.4239    0.0009   -0.0041    0.0769    0.0033    0.0182
          18    0.0002   -0.4239    0.0765   -0.0002   -0.0769   -0.0041    0.0182   -0.0033


   Root No.       9        10        11        12

                 3 A1      4 E       4 E       4 A1  

                1300.7    2646.0    2646.0    2688.3
  
           1   -0.0748   -0.0000    0.0000   -0.0018
           2    0.0000    0.0001   -0.0003   -0.0000
           3   -0.0000   -0.0003   -0.0001    0.0000
           4   -0.0939   -0.0001    0.0003   -0.0099
           5   -0.0002    0.0593   -0.3095   -0.0000
           6    0.0000   -0.3095   -0.0594   -0.0000
           7    0.5654   -0.0012    0.0061    0.0054
           8   -0.0052   -0.1486    0.7593    0.5773
           9   -0.0001   -0.0409   -0.0108    0.0000
          10    0.5654    0.0072   -0.0024    0.0064
          11    0.0035   -0.3757    0.0901   -0.2886
          12   -0.0051    0.6282   -0.2378    0.4999
          13    0.5654   -0.0056   -0.0048    0.0062
          14    0.0035    0.3176    0.2281   -0.2886
          15    0.0049    0.4902    0.4553   -0.5000
          16   -0.1626   -0.0000    0.0000    0.0074
          17   -0.0004    0.0003   -0.0015    0.0000
          18    0.0001   -0.0015   -0.0003    0.0000


          DESCRIPTION OF VIBRATIONS


 VIBRATION          1    1A1         ATOM PAIR     ENERGY CONTRIBUTION    RADIAL
 FREQUENCY          -747.70         C 2 -- F 6         -28.0% (-97.9%)    100.0%
 TRANSITION DIPOLE  16.3991         Br1 -- C 2         -18.7% (-79.9%)    100.0%
 TRAVEL (Ang.)       0.1043         C 2 -- H 3         -17.8% (-77.9%)      0.0%
 REDUCED MASS        8.2971         C 2 -- H 5         -17.8% (-77.9%)      0.0%
 EFFECTIVE MASS     13.8892         C 2 -- H 4         -17.8% (-77.9%)      0.0%
 FORCE CONSTANT     -2.7330

 VIBRATION          3    1E          ATOM PAIR     ENERGY CONTRIBUTION    RADIAL
 FREQUENCY           206.92         C 2 -- F 6         +24.6% (364.7%)      0.0%
 TRANSITION DIPOLE   1.1636         Br1 -- C 2         +24.0% (360.3%)      0.0%
 TRAVEL (Ang.)       0.2504         C 2 -- H 5         +20.2% (330.6%)     12.6%
 REDUCED MASS        5.1987         C 2 -- H 4         +17.8% (310.1%)     44.3%
 EFFECTIVE MASS     88.5334         C 2 -- H 3         +13.3% (267.7%)     96.6%
 FORCE CONSTANT      0.1311

 VIBRATION          4    2A1         ATOM PAIR     ENERGY CONTRIBUTION    RADIAL
 FREQUENCY           217.36         C 2 -- F 6         -61.7% (114.9%)    100.0%
 TRANSITION DIPOLE   0.2447         Br1 -- C 2         -56.9% (110.3%)    100.0%
 TRAVEL (Ang.)       0.1518         C 2 -- H 4         -34.9% ( 86.4%)      0.1%
 REDUCED MASS       13.4649         C 2 -- H 5         -34.9% ( 86.4%)      0.1%
 EFFECTIVE MASS     31.3428         C 2 -- H 3         -34.9% ( 86.4%)      0.1%
 FORCE CONSTANT      0.3748

 VIBRATION          6    2E          ATOM PAIR     ENERGY CONTRIBUTION    RADIAL
 FREQUENCY          1066.51         C 2 -- H 3         +66.2% ( 86.5%)      0.0%
 TRANSITION DIPOLE   0.0216         C 2 -- H 4         +19.9% ( 47.4%)      0.0%
 TRAVEL (Ang.)       0.3575         C 2 -- H 5         +13.9% ( 39.6%)      0.0%
 REDUCED MASS        0.4948
 EFFECTIVE MASS      1.0661
 FORCE CONSTANT      0.3316

 VIBRATION          8    3E          ATOM PAIR     ENERGY CONTRIBUTION    RADIAL
 FREQUENCY          1257.99         C 2 -- H 5         +47.4% ( 68.1%)      0.8%
 TRANSITION DIPOLE   0.4275         C 2 -- H 4         +32.8% ( 56.6%)      4.9%
 TRAVEL (Ang.)       0.3111         C 2 -- F 6          +6.9% ( 26.0%)      0.0%
 REDUCED MASS        0.5538         Br1 -- C 2          +6.9% ( 26.0%)      0.0%
 EFFECTIVE MASS      2.0039
 FORCE CONSTANT      0.5164

 VIBRATION          9    3A1         ATOM PAIR     ENERGY CONTRIBUTION    RADIAL
 FREQUENCY          1300.67         C 2 -- H 3         +33.3% ( 49.8%)      0.0%
 TRANSITION DIPOLE   0.9293         C 2 -- H 5         +33.3% ( 49.8%)      0.0%
 TRAVEL (Ang.)       0.3989         C 2 -- H 4         +33.3% ( 49.8%)      0.0%
 REDUCED MASS        0.3258         C 2 -- F 6          +0.2% (  4.3%)    100.0%
 EFFECTIVE MASS      1.3397
 FORCE CONSTANT      0.3247

 VIBRATION         11    4E          ATOM PAIR     ENERGY CONTRIBUTION    RADIAL
 FREQUENCY          2645.96         C 2 -- H 3         +61.7% ( 81.8%)     99.8%
 TRANSITION DIPOLE   0.8834         C 2 -- H 5         +28.2% ( 55.3%)     92.2%
 TRAVEL (Ang.)       0.2202         C 2 -- H 4          +7.7% ( 29.0%)     65.6%
 REDUCED MASS        0.5256         Br1 -- C 2          +1.2% ( 11.3%)      0.0%
 EFFECTIVE MASS      1.5768
 FORCE CONSTANT      2.1682

 VIBRATION         12    4A1         ATOM PAIR     ENERGY CONTRIBUTION    RADIAL
 FREQUENCY          2688.28         C 2 -- H 5         +33.3% ( 55.2%)    100.0%
 TRANSITION DIPOLE   0.3150         C 2 -- H 3         +33.3% ( 55.2%)    100.0%
 TRAVEL (Ang.)       0.2733         C 2 -- H 4         +33.3% ( 55.2%)    100.0%
 REDUCED MASS        0.3359
 EFFECTIVE MASS      1.0087
 FORCE CONSTANT      1.4301

           FORCE CONSTANT IN INTERNAL COORDINATES (Millidynes/A)

    ATOM   CHEMICAL  BOND LENGTH      BOND ANGLE     TWIST ANGLE
   NUMBER   SYMBOL  FORCE CONSTANT  FORCE CONSTANT  FORCE CONSTANT

      1      Br        0.000000        0.000000        0.000000
      2       C        0.558858        0.000000        0.000000
      3       H        3.922883        0.907264        0.000000
      4       H        3.922866        0.907396        0.658567
      5       H        3.922869        0.765844        0.658511
      6       F       -0.318748        0.627387        0.627235
 *******************************************************************************
 ** Site#: 37037        For non-commercial use only           Version 21.158W **
 *******************************************************************************
 ** Cite this program as: MOPAC2016, Version: 21.158W, James J. P. Stewart,   **
 ** Stewart Computational Chemistry, web: HTTP://OpenMOPAC.net. Days left: 363**
 *******************************************************************************
 **                                                                           **
 **                                MOPAC2016                                  **
 **                                                                           **
 *******************************************************************************

                              PM7 CALCULATION RESULTS

 *******************************************************************************
 *  CALCULATION DONE:                                Wed Jun  9 12:05:09 2021  *
 *
 *
 *
 *                 CHARGE ON SYSTEM = -1
 *
 *
 *
 *  EPS=78.4   - USE ANDREAS KLAMT'S COSMO IMPLICIT SOLVATION MODEL
 *  IRC=N      - INTRINSIC REACTION COORDINATE -1 DEFINED
 *  DRC        - DYNAMIC REACTION COORDINATE CALCULATION
 *  OLDGEO     - PREVIOUS GEOMETRY TO BE USED
 *  RESTART    - CALCULATION RESTARTED
 *  T=         - A TIME OF 172800.0 SECONDS REQUESTED
 *  DUMP=N     - RESTART FILE WRITTEN EVERY 7200.0 SECONDS REQUESTED
 *  CYCLES=    - DO A MAXIMUM OF 200 STEPS
 *  HTML       - WRITE HTML SCRIPT TO GENERATE ANIMATION USING JSMOL
 *             - TO DISPLAY IN PDB FORMAT, ADD "PDBOUT"
 *  T-PRIOR    - TIME TAKES PRIORITY IN DRC
 *******************************************************************************
oldgeo irc=-1* T-priority=0.5 restart html eps=78.4 charge=-1 DRC cycles=200
 Generate the Dynamic Reaction Coordinate for F(-) + CH3Br => CH3F + Br(-)
 (Total time = 200 femtoseconds)
  ATOM               CHEMICAL                 BOND LENGTH      BOND ANGLE     TWIST ANGLE 
 NUMBER               SYMBOL                  (ANGSTROMS)      (DEGREES)       (DEGREES) 
   (I)                                           NA:I           NB:NA:I       NC:NB:NA:I       NA    NB    NC 
     1      Br(HETATM    1  Br  HET A   1)    0.00000000       0.0000000       0.0000000   
     2       C(HETATM    2  C   HET A   1)    2.36170620  *    0.0000000       0.0000000        1     0     0
     3       H(HETATM    3  H   HET A   1)    1.08595412  *   90.8271731  *    0.0000000        2     1     0
     4       H(HETATM    4  H   HET A   1)    1.08602536  *   90.9477665  *  120.0142696  *     2     1     3
     5       H(HETATM    5  H   HET A   1)    1.08601948  *   90.9352041  *  119.9796902  *     2     1     4
     6       F(HETATM    6  F   HET A   1)    1.92796537  *   89.1226976  * -179.8374635  *     2     5     1
 

 General Reference for PM7:
 "Optimization of Parameters for Semiempirical Methods VI: More Modifications to the 
 NDDO Approximations and Re-optimization of Parameters", J. J. P. Stewart, J. Mol. Mod., 1:32, 19 (2013)
 https://link.springer.com/article/10.1007/s00894-012-1667-x

           Empirical Formula: C H3 Br F  =     6 atoms



      MOLECULAR POINT GROUP   :   C3v 


      RHF CALCULATION, NO. OF DOUBLY OCCUPIED LEVELS = 11


          MOLECULAR WEIGHT =  113.94


          ESTIMATED TIME TO COMPLETE CALCULATION =        0.00 SECONDS

          TIME USED UP TO RESTART =                  0.16

    FOR POINT-GROUP C3v  THERE ARE   6 UNIQUE SYMMETRY FUNCTIONS.

           INITIAL VELOCITY IN DRC (Angstroms/Femtosecond)
        -0.03917         0.00004        -0.00001
         0.65570         0.00062        -0.00012
         0.00589         0.01708         0.00002
         0.00578        -0.00869         0.01490
         0.00580        -0.00869        -0.01486
        -0.25071        -0.00054         0.00010
 THE VIBRATIONAL FREQUENCY (  -747.70CM(-1)) IS TOO SMALL
 FOR ONE QUANTUM TO BE USED
 INSTEAD 0.3KCAL/MOLE WILL BE USED TO START THE IRC

 TIME PRIORITY, INTERVAL = 0.50 FEMTOSECONDS



 FEMTOSECONDS  POINT  POTENTIAL + KINETIC  =   TOTAL     ERROR    REF%   MOVEMENT
     0.000       1  -137.31628    0.30000  -137.01628   0.00000     1   %  0.0000
     0.500       1  -137.31919    0.29982  -137.01937  -0.00309     2   %  0.0031
     1.000       1  -137.32727    0.30414  -137.02313  -0.00685     3   %  0.0062
     1.500       3  -137.33544    0.31804  -137.01739  -0.00111     4   %  0.0094
     2.000       4  -137.34804    0.32985  -137.01819  -0.00191     5   %  0.0126
     2.500       5  -137.36499    0.34533  -137.01966  -0.00338     6   %  0.0160
     3.000       6  -137.38521    0.36579  -137.01942  -0.00314     7   %  0.0194
     3.500       6  -137.40852    0.39037  -137.01816  -0.00188     8   %  0.0229
     4.000       7  -137.43718    0.41789  -137.01929  -0.00301     9   %  0.0266
     4.500       8  -137.47152    0.45098  -137.02053  -0.00425    10   %  0.0304
     5.000       8  -137.51230    0.49053  -137.02177  -0.00549    11   %  0.0344
     5.500       9  -137.56086    0.53653  -137.02433  -0.00805    12   %  0.0385
     6.000      10  -137.61544    0.59138  -137.02406  -0.00778    13   %  0.0429
     6.500      10  -137.67634    0.65482  -137.02153  -0.00525    14   %  0.0476
     7.000      11  -137.73923    0.72476  -137.01447   0.00181    15   %  0.0525
     7.500      11  -137.81935    0.80337  -137.01598   0.00030    16   %  0.0577
     8.000      12  -137.92245    0.88391  -137.03854  -0.02226    17   %  0.0632
     8.500      13  -138.05181    0.99062  -137.06119  -0.04491    18   %  0.0691
     9.000      13  -138.21308    1.12533  -137.08775  -0.07147    19   %  0.0753
     9.500      14  -138.37216    1.29236  -137.07980  -0.06352    20   %  0.0819
    10.000      14  -138.52858    1.49236  -137.03622  -0.01994    21   %  0.0890
    10.500      15  -138.70550    1.68760  -137.01790  -0.00161    22   %  0.0966
    11.000      15  -138.90234    1.87597  -137.02637  -0.01009    23   %  0.1049
    11.500      16  -139.12967    2.09449  -137.03518  -0.01889    24   %  0.1137
    12.000      16  -139.38986    2.34147  -137.04839  -0.03210    25   %  0.1229
    12.500      16  -139.67451    2.62292  -137.05159  -0.03530    26   %  0.1329
    13.000      17  -139.97885    2.94295  -137.03590  -0.01961    27   %  0.1433
    13.500      17  -140.31386    3.29209  -137.02177  -0.00548    28   %  0.1546
    14.000      18  -140.67434    3.66485  -137.00949   0.00680    29   %  0.1666
    14.500      18  -141.07104    4.06812  -137.00292   0.01337    30   %  0.1793
    15.000      19  -141.51352    4.50647  -137.00704   0.00925    31   %  0.1930
    15.500      19  -142.00380    4.97491  -137.02890  -0.01260    32   %  0.2074
    16.000      19  -142.53490    5.49044  -137.04446  -0.02816    33   %  0.2229
    16.500      20  -143.11060    6.06020  -137.05040  -0.03410    34   %  0.2393
    17.000      20  -143.72537    6.67378  -137.05159  -0.03529    35   %  0.2567
    17.500      20  -144.37437    7.32206  -137.05231  -0.03600    36   %  0.2752
    18.000      21  -145.04623    8.01506  -137.03117  -0.01486    37   %  0.2948
    18.500      21  -145.76282    8.73351  -137.02932  -0.01300    38   %  0.3157
    19.000      22  -146.53103    9.47452  -137.05651  -0.04019    39   %  0.3378
    19.500      22  -147.43810   10.23486  -137.20324  -0.18692    40   %  0.3611
    20.000      22  -148.29371   11.02161  -137.27210  -0.25577    41   %  0.3857
    20.500      23  -149.09269   11.84593  -137.24677  -0.23044    42   %  0.4116
    21.000      23  -149.79317   12.79871  -136.99446   0.02188    43   %  0.4388
    21.500      23  -150.49484   13.66363  -136.83120   0.18514    44   %  0.4674
    22.000      23  -151.19771   14.44071  -136.75700   0.25934    45   %  0.4975
    22.500      24  -152.04152   15.00725  -137.03427  -0.01792    46   %  0.5294
    23.000      24  -152.76942   15.58876  -137.18065  -0.16430    47   %  0.5624
    23.500      24  -153.37179   16.19367  -137.17811  -0.16175    48   %  0.5968
    24.000      25  -153.82605   16.86725  -136.95880   0.05756    49   %  0.6322
    24.500      26  -154.28890   17.29129  -136.99762   0.01876    50   %  0.6692
    25.000      27  -154.69006   17.63924  -137.05082  -0.03444    51   %  0.7073
    25.500      28  -154.99181   17.94830  -137.04350  -0.02712    52   %  0.7466
    26.000      28  -155.20187   18.14380  -137.05807  -0.04168    53   %  0.7871
    26.500      29  -155.29718   18.24500  -137.05217  -0.03578    54   %  0.8287
    27.000      30  -155.26341   18.22148  -137.04193  -0.02553    55   %  0.8714
    27.500      31  -155.10902   18.07024  -137.03878  -0.02237    56   %  0.9149
    28.000      32  -154.85868   17.79178  -137.06690  -0.05048    57   %  0.9591
    28.500      33  -154.33714   17.41681  -136.92033   0.09609    58   %  1.0039
    29.000      35  -153.85136   16.78921  -137.06215  -0.04572    59   %  1.0492
    29.500      36  -153.24392   16.19566  -137.04826  -0.03182    60   %  1.0945
    30.000      37  -152.53538   15.48702  -137.04836  -0.03192    61   %  1.1399
    30.500      38  -151.75677   14.69426  -137.06251  -0.04606    62   %  1.1851
    31.000      39  -150.95329   13.85083  -137.10246  -0.08601    63   %  1.2299
    31.500      40  -150.06400   12.99210  -137.07190  -0.05545    64   %  1.2740
    32.000      42  -149.10840   12.06349  -137.04491  -0.02845    65   %  1.3172
    32.500      43  -148.16753   11.10347  -137.06407  -0.04760    66   %  1.3593
    33.000      44  -147.23586   10.17729  -137.05857  -0.04211    67   %  1.4000
    33.500      45  -146.24490    9.28739  -136.95751   0.05896    68   %  1.4389
    34.000      46  -145.28375    8.38563  -136.89812   0.11835    69   %  1.4758
    34.500      47  -144.53739    7.52386  -137.01354   0.00294    70   %  1.5103
    35.000      47  -143.94249    6.88575  -137.05674  -0.04026    71   %  1.5420
    35.500      48  -143.48073    6.42726  -137.05347  -0.03699    72   %  1.5709
    36.000      49  -143.17954    6.12416  -137.05538  -0.03890    73   %  1.5969
    36.500      50  -143.05265    5.99349  -137.05916  -0.04268    74   %  1.6197
    37.000      51  -143.10132    6.04328  -137.05804  -0.04156    75   %  1.6392
    37.500      51  -143.32433    6.27348  -137.05085  -0.03436    76   %  1.6551
    38.000      52  -143.72399    6.67708  -137.04691  -0.03042    77   %  1.6675
    38.500      53  -144.28617    7.24412  -137.04205  -0.02556    78   %  1.6762
    39.000      53  -144.99589    7.95949  -137.03640  -0.01991    79   %  1.6811
    39.500      54  -145.84007    8.81047  -137.02961  -0.01311    80   %  1.6821
    40.000      55  -146.79575    9.76688  -137.02887  -0.01237    81   %  1.6793
    40.500      56  -147.84644   10.81703  -137.02942  -0.01291    82   %  1.6726
    41.000      57  -148.95476   11.93017  -137.02459  -0.00808    83   %  1.6622
    41.500      58  -150.10073   13.07681  -137.02392  -0.00741    84   %  1.6482
    42.000      59  -151.25993   14.23470  -137.02523  -0.00871    85   %  1.6306
    42.500      60  -152.38459   15.38014  -137.00445   0.01207    86   %  1.6094
    43.000      61  -153.47604   16.46233  -137.01370   0.00283    87   %  1.5861
    43.500      62  -154.51668   17.49831  -137.01836  -0.00183    88   %  1.5653
    44.000      64  -155.47754   18.46172  -137.01582   0.00072    89   %  1.5430
    44.500      65  -156.34149   19.32788  -137.01361   0.00294    90   %  1.5184
    45.000      66  -157.09847   20.08489  -137.01358   0.00297    91   %  1.4918
    45.500      67  -157.73666   20.72469  -137.01197   0.00459    92   %  1.4636
    46.000      68  -158.25099   21.23881  -137.01218   0.00439    93   %  1.4340
    46.500      69  -158.63694   21.62548  -137.01147   0.00511    94   %  1.4033
    47.000      70  -158.89283   21.88256  -137.01027   0.00631    95   %  1.3720
    47.500      71  -159.02105   22.01127  -137.00978   0.00682    96   %  1.3404
    48.000      72  -159.02523   22.01638  -137.00885   0.00775    97   %  1.3088
    48.500      73  -158.91305   21.90357  -137.00948   0.00713    98   %  1.2777
    49.000      74  -158.68206   21.68254  -136.99952   0.01710    99   %  1.2475
    49.500      75  -158.36169   21.35513  -137.00655   0.01007   100   %  1.2186
    50.000      76  -157.95639   20.94379  -137.01260   0.00403   101   %  1.1916
    50.500      76  -157.47908   20.46540  -137.01367   0.00296   102   %  1.1669
    51.000      77  -156.97279   19.91437  -137.05842  -0.04178   103   %  1.1448
    51.500      78  -156.41598   19.34353  -137.07245  -0.05580   104   %  1.1260
    52.000      79  -155.81909   18.74618  -137.07291  -0.05625   105   %  1.1108
    52.500      79  -155.18854   18.11744  -137.07110  -0.05443   106   %  1.0993
    53.000      80  -154.51655   17.47109  -137.04547  -0.02880   107   %  1.0916
    53.500      81  -153.83423   16.80955  -137.02468  -0.00801   108   %  1.0869
    54.000      81  -153.15303   16.12618  -137.02686  -0.01018   109   %  1.0855
    54.500      82  -152.48126   15.45624  -137.02502  -0.00834   110   %  1.0858
    55.000      82  -151.82403   14.80283  -137.02120  -0.00451   111   %  1.0874
    55.500      83  -151.18463   14.16837  -137.01626   0.00043   112   %  1.0897
    56.000      83  -150.57507   13.55905  -137.01602   0.00068   113   %  1.0919
    56.500      84  -150.00319   12.97424  -137.02896  -0.01225   114   %  1.0938
    57.000      84  -149.46211   12.42317  -137.03894  -0.02223   115   %  1.0950
    57.500      85  -148.96108   11.91075  -137.05033  -0.03361   116   %  1.0953
    58.000      85  -148.47145   11.42827  -137.04319  -0.02647   117   %  1.0949
    58.500      86  -147.96728   10.98597  -136.98131   0.03541   118   %  1.0934
    59.000      86  -147.50701   10.55548  -136.95153   0.06520   119   %  1.0917
    59.500      87  -147.11706   10.11350  -137.00356   0.01317   120   %  1.0891
    60.000      87  -146.75456    9.70413  -137.05042  -0.03369   121   %  1.0871
    60.500      88  -146.40160    9.35262  -137.04898  -0.03225   122   %  1.0853
    61.000      88  -146.06862    9.03689  -137.03173  -0.01499   123   %  1.0853
    61.500      89  -145.76534    8.73443  -137.03091  -0.01417   124   %  1.0881
    62.000      89  -145.49211    8.44313  -137.04898  -0.03224   125   %  1.0937
    62.500      89  -145.24582    8.18242  -137.06341  -0.04666   126   %  1.1029
    63.000      90  -145.02418    7.95086  -137.07332  -0.05657   127   %  1.1166
    63.500      90  -144.83157    7.75121  -137.08036  -0.06361   128   %  1.1330
    64.000      91  -144.66953    7.58344  -137.08609  -0.06934   129   %  1.1517
    64.500      91  -144.53837    7.44617  -137.09221  -0.07545   130   %  1.1732
    65.000      91  -144.43661    7.34612  -137.09049  -0.07373   131   %  1.1954
    65.500      92  -144.35199    7.28343  -137.06856  -0.05180   132   %  1.2187
    66.000      92  -144.29830    7.25796  -137.04034  -0.02358   133   %  1.2426
    66.500      92  -144.29683    7.26946  -137.02737  -0.01061   134   %  1.2664
    67.000      93  -144.34951    7.30321  -137.04630  -0.02953   135   %  1.2904
    67.500      93  -144.45348    7.38098  -137.07250  -0.05573   136   %  1.3141
    68.000      93  -144.60699    7.51604  -137.09094  -0.07417   137   %  1.3373
    68.500      94  -144.81088    7.71398  -137.09690  -0.08013   138   %  1.3600
    69.000      94  -145.06393    7.96668  -137.09725  -0.08047   139   %  1.3821
    69.500      94  -145.36542    8.26960  -137.09582  -0.07904   140   %  1.4037
    70.000      95  -145.73739    8.63181  -137.10557  -0.08879   141   %  1.4244
    70.500      95  -146.15584    9.04344  -137.11240  -0.09561   142   %  1.4446
    71.000      95  -146.59132    9.49233  -137.09900  -0.08221   143   %  1.4645
    71.500      96  -147.03470    9.99167  -137.04303  -0.02623   144   %  1.4839
    72.000      96  -147.47828   10.55254  -136.92574   0.09106   145   %  1.5025
    72.500      96  -147.96472   11.11343  -136.85130   0.16551   146   %  1.5216
    73.000      96  -148.49404   11.67435  -136.81969   0.19712   147   %  1.5414
    73.500      97  -149.08631   12.19494  -136.89138   0.12544   148   %  1.5605
    74.000      97  -149.71126   12.73604  -136.97521   0.04160   149   %  1.5808
    74.500      97  -150.36076   13.31392  -137.04684  -0.03002   150   %  1.6028
    75.000      98  -151.04558   13.93418  -137.11140  -0.09457   151   %  1.6261
    75.500      98  -151.79194   14.61048  -137.18145  -0.16462   152   %  1.6503
    76.000      98  -152.52000   15.30124  -137.21876  -0.20192   153   %  1.6770
    76.500      98  -153.22979   16.00645  -137.22334  -0.20649   154   %  1.7064
    77.000      99  -153.93905   16.78191  -137.15714  -0.14029   155   %  1.7383
    77.500      99  -154.62220   17.54722  -137.07498  -0.05812   156   %  1.7728
    78.000      99  -155.26423   18.25527  -137.00896   0.00790   157   %  1.8099
    78.500     100  -155.85643   18.90779  -136.94864   0.06823   158   %  1.8500
    79.000     100  -156.41412   19.50174  -136.91237   0.10450   159   %  1.8925
    79.500     101  -156.95265   20.02374  -136.92891   0.08798   160   %  1.9369
    80.000     101  -157.46977   20.48649  -136.98328   0.03361   161   %  1.9832
    80.500     102  -157.96138   20.93714  -137.02424  -0.00734   162   %  2.0307
    81.000     102  -158.42007   21.36852  -137.05154  -0.03464   163   %  2.0796
    81.500     103  -158.84961   21.77466  -137.07495  -0.05803   164   %  2.1295
    82.000     104  -159.17901   22.14166  -137.03734  -0.02042   165   %  2.1807
    82.500     105  -159.42051   22.43346  -136.98704   0.02989   166   %  2.2331
    83.000     105  -159.63757   22.58474  -137.05282  -0.03589   167   %  2.2869
    83.500     106  -159.75888   22.71102  -137.04786  -0.03091   168   %  2.3421
    84.000     107  -159.81278   22.73066  -137.08212  -0.06516   169   %  2.3990
    84.500     108  -159.75564   22.67757  -137.07807  -0.06111   170   %  2.4575
    85.000     110  -159.46498   22.49330  -136.97168   0.04529   171   %  2.5179
    85.500     111  -159.00789   22.05074  -136.95716   0.05982   172   %  2.5799
    86.000     112  -158.54070   21.49769  -137.04301  -0.02603   173   %  2.6432
    86.500     113  -157.94982   20.90324  -137.04658  -0.02959   174   %  2.7077
    87.000     114  -157.24532   20.19387  -137.05145  -0.03445   175   %  2.7731
    87.500     116  -156.43145   19.37552  -137.05593  -0.03892   176   %  2.8390
    88.000     117  -155.50136   18.45663  -137.04473  -0.02772   177   %  2.9050
    88.500     118  -154.53507   17.43596  -137.09911  -0.08209   178   %  2.9705
    89.000     119  -153.49059   16.40605  -137.08453  -0.06751   179   %  3.0350
    89.500     120  -152.30666   15.29403  -137.01263   0.00440   180   %  3.0981
    90.000     121  -151.16335   14.08052  -137.08284  -0.06580   181   %  3.1589
    90.500     122  -149.99878   12.93536  -137.06342  -0.04638   182   %  3.2170
    91.000     123  -148.86625   11.80042  -137.06583  -0.04879   183   %  3.2717
    91.500     124  -147.76843   10.73304  -137.03540  -0.01835   184   %  3.3225
    92.000     125  -146.82460    9.73957  -137.08503  -0.06798   185   %  3.3690
    92.500     126  -146.11381    8.92308  -137.19073  -0.17368   186   %  3.4105
    93.000     127  -145.35279    8.36796  -136.98483   0.03223   187   %  3.4469
    93.500     128  -144.82167    7.85508  -136.96659   0.05047   188   %  3.4780
    94.000     129  -144.55310    7.51703  -137.03607  -0.01901   189   %  3.5035
    94.500     129  -144.50739    7.46720  -137.04019  -0.02313   190   %  3.5230
    95.000     130  -144.68463    7.65006  -137.03457  -0.01750   191   %  3.5368
    95.500     131  -145.07966    8.04825  -137.03141  -0.01434   192   %  3.5449
    96.000     131  -145.66945    8.64218  -137.02727  -0.01020   193   %  3.5476
    96.500     132  -146.44461    9.42996  -137.01465   0.00243   194   %  3.5449
    97.000     133  -147.38100   10.36445  -137.01655   0.00053   195   %  3.5373
    97.500     133  -148.44510   11.42483  -137.02027  -0.00319   196   %  3.5252
    98.000     134  -149.60926   12.59540  -137.01386   0.00322   197   %  3.5089
    98.500     135  -150.83272   13.82812  -137.00460   0.01249   198   %  3.4888
    99.000     136  -152.10211   15.08593  -137.01618   0.00092   199   %  3.4654
    99.500     138  -153.30480   16.34999  -136.95481   0.06229   200   %  3.4392


           INITIAL VELOCITY IN DRC (Angstroms/Femtosecond)
         0.03917        -0.00004         0.00001
        -0.65570        -0.00062         0.00012
        -0.00589        -0.01708        -0.00002
        -0.00578         0.00869        -0.01490
        -0.00580         0.00869         0.01486
         0.25071         0.00054        -0.00010
 THE VIBRATIONAL FREQUENCY (  -747.70CM(-1)) IS TOO SMALL
 FOR ONE QUANTUM TO BE USED
 INSTEAD 0.3KCAL/MOLE WILL BE USED TO START THE IRC

 TIME PRIORITY, INTERVAL = 0.50 FEMTOSECONDS



 FEMTOSECONDS  POINT  POTENTIAL + KINETIC  =   TOTAL     ERROR    REF%   MOVEMENT
     0.000       1  -137.31628    0.30000  -137.01628   0.00000     1   %  0.0000
     0.500       1  -137.31313    0.29990  -137.01323   0.00305     2   %  0.0031
     1.000       1  -137.31611    0.30430  -137.01180   0.00448     3   %  0.0062
     1.500       3  -137.32310    0.30830  -137.01480   0.00148     4   %  0.0094
     2.000       4  -137.34094    0.31753  -137.02341  -0.00713     5   %  0.0125
     2.500       5  -137.35741    0.33734  -137.02007  -0.00379     6   %  0.0157
     3.000       6  -137.37355    0.36028  -137.01327   0.00301     7   %  0.0190
     3.500       6  -137.39385    0.38071  -137.01314   0.00314     8   %  0.0225
     4.000       7  -137.42630    0.40527  -137.02103  -0.00475     9   %  0.0260
     4.500       8  -137.44435    0.44104  -137.00331   0.01297    10   %  0.0296
     5.000       8  -137.46039    0.47943  -136.98096   0.03532    11   %  0.0333
     5.500       9  -137.50242    0.49676  -137.00566   0.01062    12   %  0.0373
     6.000      10  -137.54948    0.53674  -137.01274   0.00354    13   %  0.0412
     6.500      10  -137.60196    0.59767  -137.00429   0.01199    14   %  0.0453
     7.000      11  -137.66521    0.65987  -137.00534   0.01095    15   %  0.0496
     7.500      11  -137.74250    0.73366  -137.00884   0.00744    16   %  0.0541
     8.000      12  -137.83390    0.82185  -137.01205   0.00423    17   %  0.0588
     8.500      13  -137.94317    0.92851  -137.01466   0.00162    18   %  0.0638
     9.000      13  -138.06966    1.05279  -137.01687  -0.00059    19   %  0.0691
     9.500      14  -138.21630    1.20042  -137.01588   0.00040    20   %  0.0748
    10.000      14  -138.38275    1.37128  -137.01148   0.00481    21   %  0.0808
    10.500      15  -138.58820    1.56879  -137.01941  -0.00312    22   %  0.0873
    11.000      15  -138.83330    1.79152  -137.04178  -0.02550    23   %  0.0943
    11.500      16  -139.10391    2.06584  -137.03807  -0.02179    24   %  0.1019
    12.000      16  -139.38283    2.39678  -136.98605   0.03023    25   %  0.1100
    12.500      16  -139.73101    2.76652  -136.96449   0.05180    26   %  0.1189
    13.000      17  -140.15857    3.13826  -137.02031  -0.00402    27   %  0.1286
    13.500      17  -140.64135    3.59986  -137.04149  -0.02520    28   %  0.1391
    14.000      18  -141.15242    4.17727  -136.97515   0.04115    29   %  0.1504
    14.500      18  -141.76018    4.82827  -136.93191   0.08439    30   %  0.1627
    15.000      19  -142.48650    5.49084  -136.99567   0.02063    31   %  0.1761
    15.500      20  -143.36649    6.31958  -137.04691  -0.03061    32   %  0.1906
    16.000      20  -144.38858    7.31788  -137.07070  -0.05440    33   %  0.2064
    16.500      21  -145.46952    8.49152  -136.97800   0.03830    34   %  0.2235
    17.000      22  -146.75585    9.76505  -136.99079   0.02551    35   %  0.2422
    17.500      22  -148.25391   11.18122  -137.07269  -0.05638    36   %  0.2626
    18.000      23  -149.90338   12.88952  -137.01386   0.00245    37   %  0.2847
    18.500      24  -151.76539   14.77144  -136.99395   0.02238    38   %  0.3088
    19.000      24  -153.84865   16.84114  -137.00752   0.00881    39   %  0.3349
    19.500      25  -156.15553   19.15654  -136.99899   0.01734    40   %  0.3631
    20.000      26  -158.69720   21.67930  -137.01790  -0.00156    41   %  0.3937
    20.500      26  -161.44444   24.39147  -137.05297  -0.03662    42   %  0.4266
    21.000      27  -164.29999   27.33373  -136.96626   0.05010    43   %  0.4621
    21.500      27  -167.15513   30.26482  -136.89031   0.12606    44   %  0.5001
    22.000      28  -169.99082   33.07465  -136.91618   0.10020    45   %  0.5408
    22.500      30  -172.51962   35.51518  -137.00444   0.01196    46   %  0.5840
    23.000      33  -174.64318   37.62192  -137.02126  -0.00485    47   %  0.6294
    23.500      36  -176.05394   39.02765  -137.02628  -0.00986    48   %  0.6771
    24.000      41  -176.46254   39.45012  -137.01242   0.00402    49   %  0.7265
    24.500      46  -175.60828   38.58944  -137.01884  -0.00240    50   %  0.7772
    25.000      51  -173.30100   36.28157  -137.01943  -0.00296    51   %  0.8286
    25.500      56  -169.44018   32.42000  -137.02018  -0.00371    52   %  0.8797
    26.000      61  -164.18698   27.16780  -137.01919  -0.00270    53   %  0.9296
    26.500      66  -157.99424   20.97673  -137.01750  -0.00101    54   %  0.9771
    27.000      71  -151.59782   14.58066  -137.01716  -0.00066    55   %  1.0210
    27.500      76  -145.90414    8.88418  -137.01995  -0.00345    56   %  1.0601
    28.000      81  -141.83275    4.81374  -137.01901  -0.00250    57   %  1.0932
    28.500      85  -140.18069    3.16093  -137.01976  -0.00325    58   %  1.1195
    29.000      89  -141.25858    4.23387  -137.02471  -0.00821    59   %  1.1384
    29.500      92  -144.86494    7.84606  -137.01887  -0.00236    60   %  1.1497
    30.000      97  -150.37698   13.36038  -137.01659  -0.00008    61   %  1.1534
    30.500     102  -156.89011   19.87334  -137.01677  -0.00025    62   %  1.1500
    31.000     107  -163.45469   26.43786  -137.01683  -0.00031    63   %  1.1403
    31.500     112  -169.27473   32.25909  -137.01564   0.00090    64   %  1.1254
    32.000     117  -173.81452   36.79933  -137.01518   0.00136    65   %  1.1063
    32.500     122  -176.85435   39.83927  -137.01509   0.00147    66   %  1.0841
    33.000     127  -178.37498   41.35638  -137.01860  -0.00202    67   %  1.0599
    33.500     132  -178.50413   41.49088  -137.01324   0.00335    68   %  1.0345
    34.000     137  -177.55898   40.53819  -137.02079  -0.00419    69   %  1.0086
    34.500     140  -175.80049   38.78280  -137.01768  -0.00107    70   %  0.9826
    35.000     143  -173.51542   36.50045  -137.01497   0.00166    71   %  0.9566
    35.500     146  -170.88837   33.93057  -136.95780   0.05884    72   %  0.9308
    36.000     148  -168.18422   31.16112  -137.02310  -0.00644    73   %  0.9049
    36.500     150  -165.57372   28.55103  -137.02270  -0.00603    74   %  0.8784
    37.000     152  -163.09695   26.07772  -137.01923  -0.00256    75   %  0.8741
    37.500     154  -160.84458   23.82355  -137.02103  -0.00435    76   %  0.8765
    38.000     156  -158.80940   21.79059  -137.01881  -0.00212    77   %  0.8782
    38.500     157  -156.97818   19.95956  -137.01862  -0.00193    78   %  0.8793
    39.000     158  -155.33204   18.31651  -137.01554   0.00117    79   %  0.8803
    39.500     160  -153.85870   16.81415  -137.04455  -0.02785    80   %  0.8815
    40.000     161  -152.52304   15.46890  -137.05413  -0.03742    81   %  0.8833
    40.500     162  -151.19604   14.21126  -136.98478   0.03194    82   %  0.8858
    41.000     163  -149.98504   12.97338  -137.01165   0.00507    83   %  0.8890
    41.500     164  -148.88561   11.85820  -137.02741  -0.01068    84   %  0.8929
    42.000     165  -147.89569   10.86890  -137.02679  -0.01006    85   %  0.8969
    42.500     166  -147.00893   10.00958  -136.99936   0.01738    86   %  0.9010
    43.000     167  -146.28013    9.27041  -137.00972   0.00702    87   %  0.9048
    43.500     168  -145.70994    8.68671  -137.02323  -0.00649    88   %  0.9083
    44.000     169  -145.30692    8.24679  -137.06013  -0.04338    89   %  0.9117
    44.500     170  -144.96472    7.93301  -137.03171  -0.01496    90   %  0.9157
    45.000     170  -144.61878    7.70456  -136.91423   0.10252    91   %  0.9209
    45.500     171  -144.38742    7.41535  -136.97207   0.04468    92   %  0.9280
    46.000     172  -144.19754    7.19343  -137.00410   0.01265    93   %  0.9381
    46.500     173  -144.05160    7.03632  -137.01528   0.00147    94   %  0.9517
    47.000     173  -143.95020    6.92708  -137.02312  -0.00636    95   %  0.9691
    47.500     174  -143.93329    6.90094  -137.03235  -0.01559    96   %  0.9908
    48.000     174  -144.04615    7.00126  -137.04489  -0.02813    97   %  1.0164
    48.500     175  -144.31665    7.24237  -137.07429  -0.05752    98   %  1.0461
    49.000     176  -144.74554    7.68021  -137.06533  -0.04856    99   %  1.0797
    49.500     176  -145.32928    8.30031  -137.02897  -0.01220   100   %  1.1170
    50.000     177  -146.06739    9.07296  -136.99443   0.02235   101   %  1.1584
    50.500     177  -146.93833    9.96233  -136.97600   0.04078   102   %  1.2034
    51.000     178  -147.95085   10.94970  -137.00115   0.01563   103   %  1.2522
    51.500     178  -149.04114   12.02094  -137.02021  -0.00342   104   %  1.3041
    52.000     179  -150.18958   13.17227  -137.01731  -0.00052   105   %  1.3588
    52.500     180  -151.42945   14.37966  -137.04979  -0.03299   106   %  1.4157
    53.000     181  -152.77780   15.70639  -137.07142  -0.05461   107   %  1.4741
    53.500     182  -154.19878   17.18285  -137.01593   0.00088   108   %  1.5332
    54.000     183  -155.82734   18.77130  -137.05604  -0.03922   109   %  1.5925
    54.500     184  -157.64314   20.61564  -137.02750  -0.01068   110   %  1.6513
    55.000     185  -159.73227   22.69069  -137.04158  -0.02475   111   %  1.7093
    55.500     186  -162.04801   25.03414  -137.01387   0.00297   112   %  1.7663
    56.000     186  -164.55512   27.60274  -136.95238   0.06447   113   %  1.8221
    56.500     187  -167.25862   30.32174  -136.93688   0.07998   114   %  1.8770
    57.000     188  -170.11510   33.14943  -136.96567   0.05121   115   %  1.9309
    57.500     189  -172.97729   35.99663  -136.98066   0.03623   116   %  1.9841
    58.000     190  -175.77079   38.76735  -137.00344   0.01345   117   %  2.0368
    58.500     192  -178.34907   41.33865  -137.01042   0.00649   118   %  2.0890
    59.000     194  -180.54074   43.53484  -137.00590   0.01102   119   %  2.1411
    59.500     197  -182.18559   45.17354  -137.01205   0.00490   120   %  2.1929
    60.000     201  -183.03459   46.01566  -137.01893  -0.00197   121   %  2.2445
    60.500     206  -182.84123   45.82561  -137.01563   0.00135   122   %  2.2959
    61.000     211  -181.37584   44.35435  -137.02148  -0.00449   123   %  2.3471
    61.500     216  -178.45951   41.44300  -137.01651   0.00049   124   %  2.3981
    62.000     221  -174.12629   37.10587  -137.02042  -0.00341   125   %  2.4486
    62.500     226  -168.60277   31.58479  -137.01799  -0.00096   126   %  2.4984
    63.000     231  -162.23820   25.22240  -137.01579   0.00125   127   %  2.5473
    63.500     236  -156.01803   18.99550  -137.02253  -0.00548   128   %  2.5947
    64.000     241  -150.74953   13.73034  -137.01918  -0.00213   129   %  2.6401
    64.500     246  -147.28097   10.26021  -137.02076  -0.00370   130   %  2.6827
    65.000     250  -146.23539    9.21560  -137.01979  -0.00273   131   %  2.7220
    65.500     253  -147.82216   10.79990  -137.02226  -0.00520   132   %  2.7570
    66.000     257  -151.75233   14.73246  -137.01987  -0.00280   133   %  2.7873
    66.500     262  -157.34840   20.32948  -137.01892  -0.00185   134   %  2.8123
    67.000     267  -163.74840   26.73093  -137.01746  -0.00038   135   %  2.8320
    67.500     272  -170.07039   33.05213  -137.01826  -0.00117   136   %  2.8464
    68.000     277  -175.61256   38.59601  -137.01655   0.00055   137   %  2.8560
    68.500     282  -179.91490   42.89595  -137.01895  -0.00183   138   %  2.8612
    69.000     287  -182.75910   45.74218  -137.01692   0.00022   139   %  2.8631
    69.500     292  -184.13227   47.11486  -137.01741  -0.00026   140   %  2.8625
    70.000     297  -184.18682   47.16663  -137.02020  -0.00303   141   %  2.8604
    70.500     301  -183.11643   46.09780  -137.01863  -0.00145   142   %  2.8578
    71.000     305  -181.17211   44.16549  -137.00662   0.01058   143   %  2.8554
    71.500     307  -178.63611   41.62393  -137.01219   0.00503   144   %  2.8539
    72.000     310  -175.78799   38.76841  -137.01958  -0.00235   145   %  2.8539
    72.500     312  -172.83237   35.80803  -137.02434  -0.00710   146   %  2.8556
    73.000     314  -169.92268   32.90201  -137.02068  -0.00343   147   %  2.8592
    73.500     316  -167.16928   30.14938  -137.01990  -0.00264   148   %  2.8649
    74.000     318  -164.67893   27.64896  -137.02997  -0.01269   149   %  2.8728
    74.500     319  -162.46091   25.43552  -137.02539  -0.00811   150   %  2.8830
    75.000     321  -160.47007   23.45477  -137.01530   0.00199   151   %  2.8957
    75.500     322  -158.68302   21.65425  -137.02878  -0.01148   152   %  2.9107
    76.000     324  -157.02868   20.00595  -137.02273  -0.00542   153   %  2.9282
    76.500     325  -155.42309   18.42349  -136.99960   0.01771   154   %  2.9480
    77.000     326  -153.89458   16.86994  -137.02464  -0.00732   155   %  2.9699
    77.500     327  -152.35303   15.39194  -136.96110   0.05623   156   %  2.9935
    78.000     328  -150.94487   13.93646  -137.00841   0.00892   157   %  3.0183
    78.500     329  -149.68854   12.66550  -137.02304  -0.00571   158   %  3.0438
    79.000     330  -148.64346   11.60953  -137.03393  -0.01660   159   %  3.0698
    79.500     331  -147.79748   10.81089  -136.98659   0.03075   160   %  3.0958
    80.000     332  -147.19509   10.24828  -136.94681   0.07053   161   %  3.1220
    80.500     332  -146.86951    9.87957  -136.98994   0.02740   162   %  3.1484
    81.000     333  -146.75023    9.75466  -136.99557   0.02178   163   %  3.1751
    81.500     334  -146.74771    9.74818  -136.99953   0.01783   164   %  3.2028
    82.000     335  -146.78258    9.77621  -137.00636   0.01099   165   %  3.2319
    82.500     336  -146.82901    9.79731  -137.03171  -0.01435   166   %  3.2629
    83.000     337  -146.88910    9.81393  -137.07517  -0.05781   167   %  3.2961
    83.500     338  -146.95822    9.86417  -137.09405  -0.07669   168   %  3.3318
    84.000     339  -146.99202    9.97549  -137.01653   0.00084   169   %  3.3702
    84.500     339  -146.98568   10.14942  -136.83626   0.18112   170   %  3.4113
    85.000     340  -147.32098   10.30952  -137.01146   0.00592   171   %  3.4550
    85.500     341  -147.87620   10.85146  -137.02474  -0.00736   172   %  3.5007
    86.000     342  -148.71252   11.66996  -137.04256  -0.02517   173   %  3.5486
    86.500     342  -149.78421   12.72536  -137.05884  -0.04146   174   %  3.5988
    87.000     343  -151.02434   14.05448  -136.96987   0.04753   175   %  3.6510
    87.500     344  -152.38597   15.47737  -136.90860   0.10880   176   %  3.7053
    88.000     345  -153.87585   16.92087  -136.95498   0.06242   177   %  3.7611
    88.500     346  -155.45221   18.42867  -137.02354  -0.00613   178   %  3.8182
    89.000     347  -157.07495   20.03305  -137.04190  -0.02448   179   %  3.8761
    89.500     348  -158.76171   21.71036  -137.05135  -0.03392   180   %  3.9344
    90.000     349  -160.54412   23.50496  -137.03916  -0.02172   181   %  3.9925
    90.500     350  -162.49409   25.46533  -137.02875  -0.01131   182   %  4.0498
    91.000     351  -164.69777   27.67522  -137.02255  -0.00510   183   %  4.1057
    91.500     352  -167.21052   30.19152  -137.01900  -0.00153   184   %  4.1598
    92.000     353  -170.01818   33.01767  -137.00051   0.01696   185   %  4.2119
    92.500     354  -173.07321   36.05880  -137.01440   0.00309   186   %  4.2619
    93.000     355  -176.19981   39.17333  -137.02648  -0.00898   187   %  4.3100
    93.500     356  -178.96925   42.15275  -136.81650   0.20101   188   %  4.3566
    94.000     359  -181.51145   44.50449  -137.00696   0.01057   189   %  4.4020
    94.500     362  -183.40340   46.38602  -137.01738   0.00017   190   %  4.4469
    95.000     367  -184.35615   47.34005  -137.01610   0.00146   191   %  4.4919
    95.500     372  -184.09334   47.08079  -137.01255   0.00503   192   %  4.5373
    96.000     377  -182.43734   45.42118  -137.01616   0.00144   193   %  4.5835
    96.500     382  -179.30480   42.28717  -137.01763  -0.00002   194   %  4.6309
    97.000     387  -174.73858   37.72298  -137.01560   0.00202   195   %  4.6795
    97.500     392  -169.03483   32.01471  -137.02012  -0.00249   196   %  4.7294
    98.000     397  -162.72334   25.70207  -137.02126  -0.00362   197   %  4.7804
    98.500     402  -156.55438   19.53829  -137.01609   0.00156   198   %  4.8323
    99.000     407  -151.41073   14.38879  -137.02194  -0.00428   199   %  4.8845
    99.500     411  -148.10101   11.07679  -137.02422  -0.00656   200   %  4.9367



 **********************
 *                    *
 * JOB ENDED NORMALLY *
 *                    *
 **********************



 TOTAL JOB TIME:             8.20 SECONDS

 == MOPAC DONE ==
