 *******************************************************************************
 ** Site#: 37037        For non-commercial use only           Version 21.158W **
 *******************************************************************************
 ** Cite this program as: MOPAC2016, Version: 21.158W, James J. P. Stewart,   **
 ** Stewart Computational Chemistry, web: HTTP://OpenMOPAC.net. Days left: 358**
 *******************************************************************************
 **                                                                           **
 **                                MOPAC2016                                  **
 **                                                                           **
 *******************************************************************************

                              PM7 CALCULATION RESULTS

 *******************************************************************************
 *  CALCULATION DONE:                                Mon Jun 14 12:44:48 2021  *
 *  GEO_DAT    - DATA SET GEOMETRY IS IN FILE "Keto-Enol Aq SADDLE.arc"
 *
 *
 *
 *                 CHARGE ON SYSTEM = +1
 *
 *
 *
 *  EPS=78.4   - USE ANDREAS KLAMT'S COSMO IMPLICIT SOLVATION MODEL
 *  LET        - OVERRIDE SOME SAFETY CHECKS
 *  TS         - USE EF ROUTINE FOR TS SEARCH
 *  T=         - A TIME OF 172800.0 SECONDS REQUESTED
 *  DUMP=N     - RESTART FILE WRITTEN EVERY 7200.0 SECONDS REQUESTED
 *  DDMIN=     - MINIMUM TRUST RADIUS  0.000 ANG/RAD
 *  HTML       - WRITE HTML SCRIPT TO READ PDB FILE USING JSMOL
 *******************************************************************************
  TS  html  geo_dat="Keto-Enol Aq SADDLE.arc" eps=78.4 charge=1 ddmin=0 let
 Refine transition state from SADDLE

   ATOM                 CHEMICAL                   X               Y               Z
  NUMBER                 SYMBOL               (ANGSTROMS)     (ANGSTROMS)     (ANGSTROMS)
 
     1       C(HETATM    1  C1  HET A   1)    0.09920338  *  -0.23924535  *   0.08641027  *
     2       C(HETATM    2  C2  HET A   1)    1.44031575  *   0.20278772  *  -0.32865606  *
     3       C(HETATM    3  C3  HET A   1)    2.03677094  *   1.39909740  *  -0.08862181  *
     4       O(HETATM    4  O   HET A   1)    2.18776733  *  -0.67015951  *  -1.02601775  *
     5       H(HETATM    5 1H1  HET A   1)   -0.66550959  *   0.06659474  *  -0.65798807  *
     6       H(HETATM    6 2H1  HET A   1)    0.00833085  *  -1.33516857  *   0.19401717  *
     7       H(HETATM    7 3H1  HET A   1)   -0.21884617  *   0.19910642  *   1.04979479  *
     8       H(HETATM    8 1H   HET A   1)    3.50146127  *   0.99375237  *   0.38658602  *
     9       H(HETATM    9 1H3  HET A   1)    1.56871836  *   2.17460496  *   0.49822636  *
    10       H(HETATM   10 2H3  HET A   1)    2.92494504  *   1.76466554  *  -0.62745550  *
    11       O(HETATM   11  O   HOH B   2)    4.20791681  *   0.09384251  *   0.66134955  *
    12       H(HETATM   12 2H   HOH B   2)    4.57940714  *  -0.21297983  *  -0.22531944  *
    13       H(HETATM   13  H   HOH B   2)    1.77677726  *  -1.57742066  *  -1.14897671  *
    14       H(HETATM   14 2H   HOH B   2)    5.01251700  *   0.52541650  *   1.09092560  *
 

 General Reference for PM7:
 "Optimization of Parameters for Semiempirical Methods VI: More Modifications to the 
 NDDO Approximations and Re-optimization of Parameters", J. J. P. Stewart, J. Mol. Mod., 1:32, 19 (2013)
 https://link.springer.com/article/10.1007/s00894-012-1667-x

           Empirical Formula: C3 H9 O2  =    14 atoms



      MOLECULAR POINT GROUP   :   C1  


      RHF CALCULATION, NO. OF DOUBLY OCCUPIED LEVELS = 16


          Transition state refinement using EF

          HESSIAN CALCULATED NUMERICALLY

 CYCLE:     1 TIME:   0.500 TIME LEFT:  2.00D  GRAD.:     5.824 HEAT:  7.640339
 CYCLE:     2 TIME:   0.020 TIME LEFT:  2.00D  GRAD.:     3.198 HEAT:  7.682256
 CYCLE:     3 TIME:   0.012 TIME LEFT:  2.00D  GRAD.:     2.324 HEAT:  7.704890
 CYCLE:     4 TIME:   0.016 TIME LEFT:  2.00D  GRAD.:     2.014 HEAT:  7.681127
 CYCLE:     5 TIME:   0.020 TIME LEFT:  2.00D  GRAD.:     1.917 HEAT:  7.654228
 CYCLE:     6 TIME:   0.012 TIME LEFT:  2.00D  GRAD.:     1.839 HEAT:  7.737511
 CYCLE:     7 TIME:   0.020 TIME LEFT:  2.00D  GRAD.:     1.840 HEAT:  7.721742
 CYCLE:     8 TIME:   0.012 TIME LEFT:  2.00D  GRAD.:     1.721 HEAT:  7.705382
 CYCLE:     9 TIME:   0.016 TIME LEFT:  2.00D  GRAD.:     1.895 HEAT:  7.708239
 CYCLE:    10 TIME:   0.020 TIME LEFT:  2.00D  GRAD.:     1.737 HEAT:  7.644256
 CYCLE:    11 TIME:   0.027 TIME LEFT:  2.00D  GRAD.:     1.646 HEAT:  7.637760
 CYCLE:    12 TIME:   0.020 TIME LEFT:  2.00D  GRAD.:     1.702 HEAT:  7.618561
 CYCLE:    13 TIME:   0.012 TIME LEFT:  2.00D  GRAD.:     1.642 HEAT:  7.623017
 CYCLE:    14 TIME:   0.000 TIME LEFT:  2.00D  GRAD.:     2.524 HEAT:  7.580602
 CYCLE:    15 TIME:   0.020 TIME LEFT:  2.00D  GRAD.:     2.320 HEAT:  7.559465
 CYCLE:    16 TIME:   0.012 TIME LEFT:  2.00D  GRAD.:     2.161 HEAT:  7.534466
 CYCLE:    17 TIME:   0.016 TIME LEFT:  2.00D  GRAD.:     1.857 HEAT:  7.542818
 CYCLE:    18 TIME:   0.020 TIME LEFT:  2.00D  GRAD.:     1.892 HEAT:  7.473862
 CYCLE:    19 TIME:   0.012 TIME LEFT:  2.00D  GRAD.:     1.514 HEAT:  7.505234
 CYCLE:    20 TIME:   0.000 TIME LEFT:  2.00D  GRAD.:     1.429 HEAT:  7.502340
 CYCLE:    21 TIME:   0.016 TIME LEFT:  2.00D  GRAD.:     1.533 HEAT:  7.493776
 CYCLE:    22 TIME:   0.020 TIME LEFT:  2.00D  GRAD.:     1.551 HEAT:  7.483461
 CYCLE:    22 TIME:   0.012 TIME LEFT:  2.00D  GRAD.:     1.536 HEAT:  7.486689
 CYCLE:    22 TIME:   0.020 TIME LEFT:  2.00D  GRAD.:     1.528 HEAT:  7.489595
 CYCLE:    22 TIME:   0.000 TIME LEFT:  2.00D  GRAD.:     1.513 HEAT:  7.494062
 CYCLE:    22 TIME:   0.012 TIME LEFT:  2.00D  GRAD.:     1.514 HEAT:  7.494034
 CYCLE:    22 TIME:   0.016 TIME LEFT:  2.00D  GRAD.:     1.514 HEAT:  7.493985
 CYCLE:    23 TIME:   0.020 TIME LEFT:  2.00D  GRAD.:     1.523 HEAT:  7.492075
 CYCLE:    24 TIME:   0.012 TIME LEFT:  2.00D  GRAD.:     1.530 HEAT:  7.485147
 NUMERICAL PROBLEMS IN BRACKETING LAMDA  -531030782210.348     
  -531030782210348.       -531030782210.879        450781042356482.     
   531030782210.817     
  GOING FOR FIXED STEP SIZE....
 CYCLE:    25 TIME:   0.016 TIME LEFT:  2.00D  GRAD.:     1.450 HEAT:  7.487953
 CALCULATION IS TERMINATED TO AVOID ZERO DIVIDE

          in FORMD
 *******************************************************************************
 ** Site#: 37037        For non-commercial use only           Version 21.158W **
 *******************************************************************************
 ** Cite this program as: MOPAC2016, Version: 21.158W, James J. P. Stewart,   **
 ** Stewart Computational Chemistry, web: HTTP://OpenMOPAC.net. Days left: 358**
 *******************************************************************************
 **                                                                           **
 **                                MOPAC2016                                  **
 **                                                                           **
 *******************************************************************************

                              PM7 CALCULATION RESULTS

 *******************************************************************************
 *  CALCULATION DONE:                                Mon Jun 14 12:44:48 2021  *
 *
 *
 *
 *                 CHARGE ON SYSTEM = +1
 *
 *
 *
 *  EPS=78.4   - USE ANDREAS KLAMT'S COSMO IMPLICIT SOLVATION MODEL
 *  OLDGEO     - PREVIOUS GEOMETRY TO BE USED
 *  FORCE      - FORCE CALCULATION SPECIFIED
 *  T=         - A TIME OF 172800.0 SECONDS REQUESTED
 *  DUMP=N     - RESTART FILE WRITTEN EVERY 7200.0 SECONDS REQUESTED
 *  ISOTOPE    - SAVE THE FORCE MATRIX FOR USE LATER
 *******************************************************************************
 force oldgeo isotope eps=78.4 charge=1
 Refine transition state from SADDLE

   ATOM                 CHEMICAL                   X               Y               Z
  NUMBER                 SYMBOL               (ANGSTROMS)     (ANGSTROMS)     (ANGSTROMS)
 
     1       C(HETATM    1  C1  HET A   1)    0.09826614  *  -0.23866440  *   0.10535430  *
     2       C(HETATM    2  C2  HET A   1)    1.43118092  *   0.18298004  *  -0.35453316  *
     3       C(HETATM    3  C3  HET A   1)    2.06306499  *   1.35645695  *  -0.08283477  *
     4       O(HETATM    4  O   HET A   1)    2.12885972  *  -0.67460660  *  -1.11280087  *
     5       H(HETATM    5 1H1  HET A   1)   -0.68811632  *   0.05899148  *  -0.61816827  *
     6       H(HETATM    6 2H1  HET A   1)    0.00198586  *  -1.33239088  *   0.23372084  *
     7       H(HETATM    7 3H1  HET A   1)   -0.18566066  *   0.21696979  *   1.07145209  *
     8       H(HETATM    8 1H   HET A   1)    3.51373497  *   1.01768198  *   0.30369343  *
     9       H(HETATM    9 1H3  HET A   1)    1.61233711  *   2.12402212  *   0.52892069  *
    10       H(HETATM   10 2H3  HET A   1)    2.95747935  *   1.72303549  *  -0.63371111  *
    11       O(HETATM   11  O   HOH B   2)    4.24150968  *   0.15317019  *   0.74009972  *
    12       H(HETATM   12 2H   HOH B   2)    4.59885641  *  -0.30802683  *  -0.07700002  *
    13       H(HETATM   13  H   HOH B   2)    1.67221128  *  -1.55224277  *  -1.28939292  *
    14       H(HETATM   14 2H   HOH B   2)    5.04983304  *   0.64544531  *   1.07625673  *
 

 General Reference for PM7:
 "Optimization of Parameters for Semiempirical Methods VI: More Modifications to the 
 NDDO Approximations and Re-optimization of Parameters", J. J. P. Stewart, J. Mol. Mod., 1:32, 19 (2013)
 https://link.springer.com/article/10.1007/s00894-012-1667-x

           Empirical Formula: C3 H9 O2  =    14 atoms



      MOLECULAR POINT GROUP   :   C1  


      RHF CALCULATION, NO. OF DOUBLY OCCUPIED LEVELS = 16



          HEAT OF FORMATION =       7.487953 KCALS/MOLE


          CARTESIAN COORDINATE DERIVATIVES

   NUMBER  ATOM         X            Y            Z

     1       C      0.095758     0.122915     0.098773
     2       C     -0.008230     0.070648     0.050371
     3       C      0.172500     0.144307     0.121930
     4       O     -0.065181     0.190846     0.502598
     5       H      0.121211     0.081554     0.056047
     6       H     -0.005475    -0.015760    -0.072456
     7       H     -0.017588    -0.012038     0.035779
     8       H     -0.328196     0.299740     0.135443
     9       H     -0.019562     0.117924    -0.228254
    10       H      0.102931     0.046383    -0.235934
    11       O      0.029989    -0.629804    -0.149630
    12       H      0.072585    -0.003593    -0.755581
    13       H      0.153302    -0.109732     0.466999
    14       H     -0.304045    -0.303393    -0.026088
 


          GRADIENT NORM =   1.48920


          TIME FOR SCF CALCULATION =    0.02

          TIME FOR DERIVATIVES     =    0.01

          MOLECULAR WEIGHT =   77.10



          ROTATIONAL CONSTANTS IN CM(-1)

          A =    0.24278741   B =    0.08797822   C =    0.07700884



           PRINCIPAL MOMENTS OF INERTIA IN UNITS OF 10**(-40)*GRAM-CM**2

          A =      115.2975   B =      318.1784   C =      363.5008


          ORIENTATION OF MOLECULE IN FORCE CALCULATION

    NO.       ATOM         X         Y         Z

     1          C      -2.0105    0.0063   -0.4968
     2          C      -0.5387    0.0063   -0.4968
     3          C       0.2848    1.0888   -0.4968
     4          O       0.0844   -1.1805   -0.4766
     5          H      -2.4113   -0.0067   -1.5310
     6          H      -2.4511   -0.8681    0.0163
     7          H      -2.4390    0.9030   -0.0132
     8          H       1.3809    0.8315    0.5525
     9          H      -0.0946    2.1000   -0.4981
    10          H       1.3721    1.0428   -0.7284
    11          O       1.6559    0.2194    1.5611
    12          H       2.1028   -0.6170    1.2312
    13          H      -0.5255   -1.9788   -0.4484
    14          H       2.4240    0.7249    1.9652


    FIRST DERIVATIVES WILL BE USED IN THE CALCULATION OF SECOND DERIVATIVES

          ESTIMATED TIME TO COMPLETE CALCULATION =        2.62 SECONDS

    FOR POINT-GROUP C1   THERE ARE   1 UNIQUE SYMMETRY FUNCTIONS.

 STEP:   1 TIME =     0.03 SECS, INTEGRAL =      0.03 TIME LEFT: 172799.94
 STEP:   2 TIME =     0.04 SECS, INTEGRAL =      0.07 TIME LEFT: 172799.90
 STEP:   3 TIME =     0.01 SECS, INTEGRAL =      0.08 TIME LEFT: 172799.89
 STEP:   4 TIME =     0.04 SECS, INTEGRAL =      0.11 TIME LEFT: 172799.86
 STEP:   5 TIME =     0.01 SECS, INTEGRAL =      0.12 TIME LEFT: 172799.84
 STEP:   6 TIME =     0.03 SECS, INTEGRAL =      0.16 TIME LEFT: 172799.81
 STEP:   7 TIME =     0.02 SECS, INTEGRAL =      0.17 TIME LEFT: 172799.80
 STEP:   8 TIME =     0.03 SECS, INTEGRAL =      0.20 TIME LEFT: 172799.77
 STEP:   9 TIME =     0.02 SECS, INTEGRAL =      0.22 TIME LEFT: 172799.75
 STEP:  10 TIME =     0.03 SECS, INTEGRAL =      0.25 TIME LEFT: 172799.72
 STEP:  11 TIME =     0.02 SECS, INTEGRAL =      0.27 TIME LEFT: 172799.70
 STEP:  12 TIME =     0.03 SECS, INTEGRAL =      0.30 TIME LEFT: 172799.67
 STEP:  13 TIME =     0.02 SECS, INTEGRAL =      0.32 TIME LEFT: 172799.65
 STEP:  14 TIME =     0.03 SECS, INTEGRAL =      0.34 TIME LEFT: 172799.62
 STEP:  15 TIME =     0.02 SECS, INTEGRAL =      0.36 TIME LEFT: 172799.61
 STEP:  16 TIME =     0.03 SECS, INTEGRAL =      0.39 TIME LEFT: 172799.57
 STEP:  17 TIME =     0.01 SECS, INTEGRAL =      0.41 TIME LEFT: 172799.56
 STEP:  18 TIME =     0.04 SECS, INTEGRAL =      0.44 TIME LEFT: 172799.53
 STEP:  19 TIME =     0.01 SECS, INTEGRAL =      0.45 TIME LEFT: 172799.52
 STEP:  20 TIME =     0.04 SECS, INTEGRAL =      0.49 TIME LEFT: 172799.48
 STEP:  21 TIME =     0.01 SECS, INTEGRAL =      0.50 TIME LEFT: 172799.47
 STEP:  22 TIME =     0.03 SECS, INTEGRAL =      0.53 TIME LEFT: 172799.44
 STEP:  23 TIME =     0.04 SECS, INTEGRAL =      0.57 TIME LEFT: 172799.40
 STEP:  24 TIME =     0.03 SECS, INTEGRAL =      0.59 TIME LEFT: 172799.38
 STEP:  25 TIME =     0.03 SECS, INTEGRAL =      0.62 TIME LEFT: 172799.34
 STEP:  26 TIME =     0.02 SECS, INTEGRAL =      0.64 TIME LEFT: 172799.32
 STEP:  27 TIME =     0.03 SECS, INTEGRAL =      0.67 TIME LEFT: 172799.30
 STEP:  28 TIME =     0.03 SECS, INTEGRAL =      0.70 TIME LEFT: 172799.27
 STEP:  29 TIME =     0.04 SECS, INTEGRAL =      0.74 TIME LEFT: 172799.23
 STEP:  30 TIME =     0.01 SECS, INTEGRAL =      0.75 TIME LEFT: 172799.22
 STEP:  31 TIME =     0.01 SECS, INTEGRAL =      0.76 TIME LEFT: 172799.21
 STEP:  32 TIME =     0.04 SECS, INTEGRAL =      0.80 TIME LEFT: 172799.17
 STEP:  33 TIME =     0.01 SECS, INTEGRAL =      0.81 TIME LEFT: 172799.16
 STEP:  34 TIME =     0.04 SECS, INTEGRAL =      0.84 TIME LEFT: 172799.12
 STEP:  35 TIME =     0.03 SECS, INTEGRAL =      0.88 TIME LEFT: 172799.09
 STEP:  36 TIME =     0.03 SECS, INTEGRAL =      0.90 TIME LEFT: 172799.07
 STEP:  37 TIME =     0.02 SECS, INTEGRAL =      0.92 TIME LEFT: 172799.05
 STEP:  38 TIME =     0.02 SECS, INTEGRAL =      0.94 TIME LEFT: 172799.03
 STEP:  39 TIME =     0.03 SECS, INTEGRAL =      0.97 TIME LEFT: 172799.00
 STEP:  40 TIME =     0.01 SECS, INTEGRAL =      0.98 TIME LEFT: 172798.99
 STEP:  41 TIME =     0.03 SECS, INTEGRAL =      1.01 TIME LEFT: 172798.96
 STEP:  42 TIME =     0.04 SECS, INTEGRAL =      1.05 TIME LEFT: 172798.92

(To convert to Hartree/Bohr^2, multiply by (10^(-21) x N x a0^2)/(4.184 x 627.51) =  0.0642)


           FORCE MATRIX IN MILLIDYNES/ANGSTROM


                  C  1       C  2       C  3       O  4       H  5       H  6
 ------------------------------------------------------------------------------
     C    1  11.335833
     C    2   3.985302  17.290668
     C    3   0.923227   7.832335  13.549785
     O    4   1.022801   5.271159   1.974639   9.109641
     H    5   3.203482   0.814624   0.064900   0.046139   4.054405
     H    6   3.271025   0.794813   0.071637   0.044375   0.440661   4.103375
     H    7   3.268906   0.771162   0.051370   0.057563   0.438668   0.433738
     H    8   0.167114   1.061427   0.902717   0.434670   0.038763   0.038663
     H    9   0.046158   0.888771   3.431315   0.122257   0.010938   0.009472
     H   10   0.104493   0.780882   3.176327   0.121370   0.014349   0.016175
     O   11   0.090761   0.427997   1.141131   0.239860   0.019616   0.020251
     H   12   0.016004   0.079114   0.142544   0.072959   0.003120   0.003400
     H   13   0.086585   1.237126   0.225089   3.489159   0.016069   0.038763
     H   14   0.018345   0.077941   0.145672   0.045446   0.002465   0.003303


                  H  7       H  8       H  9       H 10       O 11       H 12
 ------------------------------------------------------------------------------
     H    7   4.101933
     H    8   0.031415   0.916355
     H    9   0.017613   0.175254   4.251176
     H   10   0.007647   0.657406   0.403565   3.897481
     O   11   0.016286   1.089562   0.044015   0.219971   6.560708
     H   12   0.002146   0.484558   0.007766   0.039788   3.613859   4.041176
     H   13   0.010788   0.119110   0.035459   0.026219   0.067488   0.018270
     H   14   0.003365   0.476009   0.009460   0.052125   3.594225   0.650573


                  H 13       H 14
 ------------------------------
     H   13   4.111207
     H   14   0.012851   3.993452


          HEAT OF FORMATION =       7.487953 KCALS/MOLE

          ZERO POINT ENERGY      62.050 KCAL/MOL

         NOTE: SYSTEM IS NOT A GROUND STATE, THEREFORE ZERO POINT
         ENERGY IS NOT MEANINGFULL. ZERO POINT ENERGY PRINTED
         DOES NOT INCLUDE THE  3 IMAGINARY FREQUENCIES


           NORMAL COORDINATE ANALYSIS (Total motion = 1 Angstrom)


   Root No.       1         2         3         4         5         6         7         8

                 1 A       2 A       3 A       4 A       5 A       6 A       7 A       8 A   

                -779.6    -148.8     -31.6      42.2     186.9     215.2     310.3     350.8
  
           1   -0.0074    0.0066   -0.0039   -0.0216   -0.0040   -0.0100   -0.0196    0.0011
           2   -0.0017   -0.0077    0.0022   -0.0057    0.0105   -0.0011   -0.0262    0.0156
           3    0.0004   -0.0097   -0.0176   -0.0744    0.0068   -0.0024    0.0022   -0.0071
           4    0.0030    0.0077   -0.0037   -0.0221   -0.0024   -0.0083   -0.0216    0.0019
           5    0.0234    0.0133   -0.0048    0.0001   -0.0040   -0.0022    0.0245   -0.0132
           6    0.0018    0.0061    0.0014    0.0074   -0.0082   -0.0210   -0.0218    0.0159
           7   -0.0428   -0.0099   -0.0046   -0.0268    0.0042   -0.0035    0.0059   -0.0162
           8    0.0029    0.0251   -0.0039    0.0039   -0.0108   -0.0071    0.0088   -0.0003
           9   -0.0462   -0.0231   -0.0014    0.0527   -0.0074   -0.0268   -0.0361    0.0143
          10    0.0086    0.0218   -0.0029   -0.0185   -0.0186   -0.0173    0.0082    0.0061
          11   -0.0077    0.0202   -0.0034    0.0036   -0.0129   -0.0084    0.0412   -0.0116
          12    0.0013    0.0616    0.0226    0.0350   -0.0146   -0.0191    0.0087   -0.0485
          13    0.0001    0.0177    0.0105    0.0358   -0.0168   -0.0239   -0.0413    0.0312
          14   -0.0077   -0.0286    0.2804   -0.0775    0.0235    0.0093   -0.0454    0.0096
          15    0.0043   -0.0133   -0.0262   -0.0961    0.0124    0.0035    0.0103   -0.0196
          16    0.0107    0.0133   -0.0224   -0.0446   -0.0053   -0.0040    0.0245   -0.0347
          17    0.0031   -0.0050   -0.1262    0.0246    0.0111   -0.0043   -0.0456    0.0346
          18    0.0102   -0.0000   -0.2542   -0.0414    0.0060   -0.0037    0.0109   -0.0073
          19   -0.0043   -0.0094    0.0001   -0.0549    0.0120   -0.0007   -0.0478    0.0092
          20   -0.0059   -0.0055   -0.1183    0.0233    0.0103   -0.0048   -0.0438    0.0346
          21    0.0032   -0.0281    0.2116   -0.1581    0.0210    0.0121    0.0099   -0.0358
          22    0.4240   -0.0604    0.0105    0.0252   -0.0056   -0.1414   -0.0593    0.0004
          23   -0.1845    0.0886   -0.0019   -0.0057   -0.0030    0.0873   -0.1086    0.0353
          24    0.2313    0.1001   -0.0200   -0.0492    0.0400    0.2599   -0.0339   -0.0005
          25   -0.0038   -0.0297   -0.0049   -0.0280    0.0090   -0.0110    0.0465   -0.0351
          26    0.0055    0.0174   -0.0042    0.0040   -0.0094   -0.0101    0.0221   -0.0070
          27   -0.0024   -0.0694   -0.0139    0.0554   -0.0116   -0.0643   -0.0577   -0.0399
          28   -0.0247   -0.0134    0.0011   -0.0053    0.0061   -0.0311    0.0011    0.0054
          29    0.0042    0.0403   -0.0042    0.0142   -0.0152   -0.0182   -0.0454    0.0215
          30    0.1982    0.0054    0.0109    0.0827    0.0150   -0.0062   -0.0486    0.0730
          31   -0.0026   -0.0216    0.0113    0.0687    0.0149    0.0414    0.0181    0.0047
          32    0.0028   -0.0497    0.0063   -0.0019   -0.0060    0.0131   -0.0318    0.0006
          33    0.0015   -0.0362   -0.0059   -0.0090    0.0071    0.0582    0.0284   -0.0006
          34    0.0129    0.0533    0.0079    0.0709    0.3220   -0.0309    0.0476    0.0224
          35   -0.0454    0.0608    0.0009   -0.0021    0.1546    0.0556   -0.0525    0.0178
          36    0.0135   -0.2328    0.0057    0.0097    0.0089   -0.1838    0.1359   -0.0126
          37    0.0005    0.0316   -0.0045   -0.0163   -0.0301   -0.0214    0.0375    0.0055
          38    0.0225    0.0144   -0.0025   -0.0007   -0.0041   -0.0036    0.0224    0.0069
          39   -0.0097    0.0700    0.0433   -0.0211   -0.0649   -0.0246    0.1031    0.5048
          40    0.0511   -0.0591    0.0124    0.0610   -0.2071    0.1414   -0.0045   -0.0183
          41   -0.0093   -0.0791    0.0090    0.0133    0.1832   -0.0618    0.0622   -0.0031
          42    0.0312    0.0818   -0.0130   -0.0248    0.1957   -0.0159   -0.0551    0.0422


   Root No.       9        10        11        12        13        14        15        16

                 9 A      10 A      11 A      12 A      13 A      14 A      15 A      16 A   

                 417.5     490.2     530.7     606.4     753.3     942.5     986.3    1005.8
  
           1   -0.0018   -0.0388    0.0167   -0.0130   -0.0083   -0.0417    0.0348    0.0434
           2    0.0447    0.0146   -0.0008    0.0006   -0.0018    0.0109   -0.0067   -0.0263
           3    0.0023   -0.0043   -0.0054   -0.0065    0.0035    0.0084    0.0281   -0.0062
           4   -0.0031   -0.0367    0.0140   -0.0076   -0.0032    0.0039   -0.0107   -0.0076
           5   -0.0347   -0.0085    0.0049    0.0019   -0.0099   -0.0022   -0.0090   -0.0136
           6   -0.0227    0.0560    0.0563   -0.0490    0.0040    0.0068   -0.0086    0.0005
           7   -0.0459    0.0134   -0.0058    0.0181   -0.0094    0.0571   -0.0185   -0.0004
           8   -0.0016   -0.0469    0.0176   -0.0202    0.0093   -0.0353   -0.0098   -0.0312
           9   -0.0101   -0.0029   -0.0247    0.0171   -0.0372   -0.0186   -0.0408    0.0171
          10    0.0418    0.0425   -0.0100    0.0058   -0.0017   -0.0013   -0.0145   -0.0352
          11   -0.0082    0.0288   -0.0116    0.0056    0.0044    0.0118    0.0205    0.0506
          12    0.0138   -0.0163   -0.0072    0.0141   -0.0007   -0.0008    0.0012   -0.0021
          13   -0.0329    0.0312    0.1194   -0.0684    0.0139    0.0070    0.1558    0.0194
          14    0.0726    0.0280   -0.0014    0.0034    0.0039   -0.0248    0.0055    0.0354
          15    0.0150   -0.0349   -0.0505    0.0185   -0.0080   -0.0109   -0.0377    0.0026
          16   -0.0557   -0.0982   -0.0283    0.0126   -0.0327   -0.0119   -0.0490   -0.0347
          17    0.0889    0.0296   -0.0020    0.0035    0.0040   -0.0205   -0.0009    0.0339
          18    0.0258   -0.0372   -0.0524    0.0204   -0.0101   -0.0190   -0.0436    0.0189
          19    0.0817   -0.0449   -0.0309    0.0170   -0.0099   -0.1154    0.0071    0.1619
          20    0.0891    0.0315   -0.0019    0.0031    0.0054   -0.0251    0.0172    0.0365
          21    0.0022   -0.0401   -0.0515    0.0173   -0.0119   -0.0130   -0.0424    0.0105
          22   -0.0743    0.0305   -0.0323    0.0570    0.0835   -0.0022   -0.0880    0.0924
          23   -0.0528    0.0144   -0.0802   -0.0457    0.0428    0.0229    0.0317   -0.0566
          24   -0.0049    0.0269    0.0803    0.0722   -0.1442    0.0165   -0.0522   -0.0311
          25   -0.0969    0.0961   -0.0376    0.0385   -0.0837   -0.1569    0.0371   -0.0893
          26   -0.0197   -0.0212    0.0058   -0.0137   -0.0129   -0.0949    0.0079   -0.0626
          27    0.0038   -0.0300    0.0952    0.3039    0.0461    0.0464    0.2070   -0.0943
          28   -0.0459   -0.0016   -0.0750   -0.0445   -0.0250    0.0792    0.0592   -0.0275
          29    0.0587   -0.1646    0.0500   -0.0178    0.0890    0.2938   -0.0759    0.0468
          30   -0.0039   -0.0454   -0.1866   -0.1460   -0.1404    0.1172    0.1971   -0.0559
          31    0.0046   -0.0042   -0.0037   -0.0076    0.0229   -0.0039    0.0025   -0.0079
          32   -0.0126    0.0079   -0.0078    0.0096    0.0026   -0.0032    0.0002   -0.0009
          33    0.0098   -0.0056    0.0025   -0.0050    0.0215   -0.0005    0.0012    0.0103
          34    0.0160    0.0024    0.0347    0.0156   -0.0423    0.0049   -0.0140    0.0363
          35   -0.0215    0.0252   -0.0044    0.0334   -0.0198    0.0020    0.0065    0.0408
          36    0.0529   -0.0549    0.0151   -0.0742    0.0376   -0.0030   -0.0091   -0.0739
          37    0.0727    0.1185   -0.0349    0.0242    0.0110    0.0482    0.0246    0.0770
          38   -0.0341   -0.0222    0.0077    0.0002   -0.0099   -0.0192   -0.0112   -0.0254
          39   -0.0357   -0.0504    0.0012    0.0970   -0.0095   -0.0055   -0.0035    0.0051
          40    0.0033   -0.0022    0.0050    0.0068   -0.0024    0.0004   -0.0089    0.0285
          41    0.0484   -0.0190    0.0750    0.0038   -0.1859    0.0460   -0.0049    0.0094
          42   -0.0673    0.0328   -0.0889    0.0047    0.2634   -0.0682    0.0014   -0.0475


   Root No.      17        18        19        20        21        22        23        24

                17 A      18 A      19 A      20 A      21 A      22 A      23 A      24 A   

                1020.1    1031.7    1047.3    1191.5    1201.5    1208.2    1260.5    1328.4
  
           1    0.0256    0.0235   -0.0103    0.0066   -0.0019   -0.0116   -0.0155   -0.0349
           2    0.0492    0.0117   -0.0086   -0.0330   -0.0014    0.0002    0.0004    0.0020
           3    0.0102   -0.0106    0.0490    0.0012    0.0137   -0.0201    0.0023    0.0007
           4   -0.0114   -0.0059    0.0013   -0.0036    0.0003    0.0035    0.0204    0.0033
           5   -0.0028   -0.0032    0.0032    0.0040   -0.0028   -0.0028   -0.0084   -0.0133
           6   -0.0125    0.0049   -0.0528   -0.0009    0.0030   -0.0057   -0.0063    0.0007
           7   -0.0195   -0.0043    0.0065   -0.0011    0.0059    0.0022    0.0086   -0.0126
           8   -0.0184   -0.0234    0.0014   -0.0067    0.0286    0.0170    0.0250   -0.0111
           9    0.0099    0.0041    0.0316    0.0006   -0.0001    0.0017   -0.0057   -0.0021
          10   -0.0008   -0.0116    0.0032    0.0030   -0.0239   -0.0141   -0.0082    0.0008
          11   -0.0004    0.0186   -0.0014   -0.0009   -0.0156   -0.0088    0.0019    0.0076
          12    0.0008    0.0010    0.0053   -0.0001   -0.0002    0.0005    0.0008    0.0001
          13    0.0671   -0.0138    0.1978    0.0019   -0.0907    0.1497    0.0002    0.1208
          14   -0.0769   -0.0196    0.0098    0.3776    0.0254    0.0074    0.0065    0.0084
          15   -0.0137    0.0081   -0.0579   -0.0036    0.0419   -0.0716   -0.0014   -0.0573
          16    0.1889    0.0962   -0.1405    0.1307    0.0367   -0.0323   -0.0110    0.1628
          17   -0.0781   -0.0187   -0.0002    0.0405   -0.0829    0.1281    0.0016   -0.0803
          18   -0.0287    0.0166   -0.0824    0.2041   -0.1049    0.1823    0.0009    0.0270
          19   -0.1757   -0.0014   -0.0593   -0.1599    0.0177   -0.0460   -0.0208    0.1326
          20   -0.0606   -0.0199    0.0279    0.0160    0.0833   -0.1203   -0.0017    0.0712
          21   -0.0045    0.0231   -0.0825   -0.2042   -0.1309    0.1786   -0.0078    0.0093
          22    0.0363   -0.0715    0.0268   -0.0054    0.0048   -0.0049    0.1169    0.0236
          23   -0.0475    0.0630   -0.0118   -0.0047   -0.0121   -0.0143    0.2235    0.0901
          24   -0.0739    0.1959    0.0798   -0.0061    0.0207    0.0047   -0.0004    0.0044
          25   -0.0386   -0.0644    0.0015   -0.0156    0.1037    0.0676   -0.1613    0.1091
          26   -0.0251   -0.0456   -0.0020   -0.0104    0.0605    0.0387   -0.0409    0.0324
          27   -0.0415    0.0026   -0.1074   -0.0019   -0.0070   -0.0064    0.0307    0.0002
          28   -0.0247   -0.0384   -0.0323    0.0001    0.0037    0.0028    0.0062   -0.0099
          29   -0.0388   -0.0231    0.0161   -0.0021    0.0518    0.0256   -0.1808    0.0750
          30   -0.0389   -0.0146   -0.0686    0.0016    0.0019   -0.0010   -0.0244   -0.0181
          31   -0.0043    0.0122    0.0013    0.0002    0.0003    0.0004   -0.0075   -0.0048
          32   -0.0001    0.0047    0.0030    0.0004    0.0011    0.0011   -0.0141   -0.0037
          33    0.0119   -0.0321   -0.0106    0.0001   -0.0019   -0.0009    0.0085    0.0018
          34    0.0252   -0.0661   -0.0115   -0.0018   -0.0041   -0.0036    0.0710    0.0528
          35    0.0419   -0.1064   -0.0281    0.0012   -0.0053   -0.0015    0.0044    0.0073
          36   -0.0729    0.1773    0.0428   -0.0029    0.0030   -0.0017    0.0645    0.0455
          37    0.0435    0.0485   -0.0142   -0.0242    0.2540    0.1560    0.0500   -0.0368
          38   -0.0294   -0.0182    0.0130    0.0168   -0.1837   -0.1116   -0.0377    0.0244
          39    0.0026    0.0030    0.0004   -0.0001    0.0056    0.0038    0.0026   -0.0006
          40    0.0217   -0.0557   -0.0100   -0.0009   -0.0030   -0.0016    0.0376    0.0343
          41   -0.0104   -0.0034   -0.0009   -0.0016    0.0024   -0.0019    0.0171   -0.0241
          42   -0.0196    0.1001    0.0287    0.0028    0.0054    0.0065   -0.0965   -0.0330


   Root No.      25        26        27        28        29        30        31        32

                25 A      26 A      27 A      28 A      29 A      30 A      31 A      32 A   

                1335.5    1354.1    1406.6    1756.2    2589.5    2622.1    2632.5    2636.4
  
           1    0.0355    0.0078   -0.0266   -0.0318    0.0001    0.0006   -0.0001    0.0006
           2    0.0016    0.0010    0.0140   -0.0117    0.0003    0.0011   -0.0404    0.0099
           3   -0.0012    0.0000    0.0010    0.0022    0.0006   -0.0463   -0.0009   -0.0001
           4   -0.0210   -0.0103    0.1058    0.1386   -0.0002   -0.0013   -0.0015   -0.0039
           5    0.0005   -0.0014   -0.1008    0.1503   -0.0000    0.0008   -0.0046   -0.0021
           6   -0.0019   -0.0026    0.0009   -0.0012    0.0000   -0.0029   -0.0001    0.0004
           7   -0.0128   -0.0116   -0.0232   -0.0894   -0.0017    0.0001   -0.0087   -0.0319
           8   -0.0155   -0.0076    0.0058   -0.1178    0.0004   -0.0001    0.0045    0.0122
           9   -0.0026   -0.0036    0.0010    0.0031    0.0004   -0.0001    0.0017    0.0055
          10    0.0035    0.0016   -0.0255   -0.0114   -0.0002    0.0009   -0.0010   -0.0033
          11   -0.0014   -0.0001    0.0608   -0.0136   -0.0001    0.0009   -0.0004   -0.0036
          12    0.0003    0.0002   -0.0007    0.0001   -0.0000   -0.0001    0.0000    0.0002
          13   -0.0651    0.0036   -0.0970   -0.0285   -0.0020    0.1954    0.0076    0.0016
          14   -0.0072   -0.0010   -0.0080    0.0066    0.0001    0.0063   -0.0221    0.0052
          15    0.0335   -0.0003    0.0485    0.0292   -0.0042    0.4336    0.0162    0.0037
          16   -0.0826    0.0015   -0.0529   -0.0716    0.0004   -0.1041    0.1498   -0.0334
          17    0.0482    0.0029    0.0191    0.0406    0.0010   -0.1913    0.2549   -0.0591
          18   -0.0121    0.0016   -0.0190   -0.0333   -0.0002    0.0885   -0.1635    0.0369
          19   -0.0847   -0.0037   -0.1687    0.0053    0.0017   -0.0877   -0.1516    0.0371
          20   -0.0498   -0.0041   -0.0680    0.0060   -0.0030    0.1718    0.2743   -0.0679
          21   -0.0024    0.0018   -0.0342   -0.0115   -0.0015    0.0673    0.1592   -0.0397
          22    0.0449    0.1225    0.0012   -0.0992   -0.0059    0.0001    0.0008    0.0019
          23    0.1437    0.1545   -0.0645    0.0698   -0.0060   -0.0001   -0.0038   -0.0127
          24    0.0166   -0.0300    0.0311   -0.1109   -0.0066    0.0002    0.0146    0.0495
          25    0.1284    0.0685    0.1507    0.0138    0.0018   -0.0003    0.0107    0.0321
          26    0.0376    0.0225    0.0423   -0.0412   -0.0071   -0.0001   -0.0421   -0.1365
          27   -0.0017   -0.0006   -0.0065    0.0076    0.0003   -0.0001    0.0007    0.0025
          28   -0.0155   -0.0101   -0.0206   -0.0308    0.0236   -0.0003    0.1125    0.3832
          29    0.1122    0.0492   -0.0091   -0.0161    0.0002    0.0001    0.0030    0.0095
          30   -0.0261   -0.0447    0.0037   -0.0362   -0.0058   -0.0002   -0.0332   -0.1142
          31   -0.0089    0.0239    0.0012    0.0027   -0.0107   -0.0000   -0.0008   -0.0026
          32   -0.0054   -0.0196    0.0028   -0.0035   -0.0370   -0.0003    0.0006    0.0025
          33    0.0018    0.0165   -0.0026    0.0061   -0.0199   -0.0002   -0.0001   -0.0001
          34    0.0947   -0.2306   -0.0211   -0.0001   -0.1915   -0.0019    0.0059    0.0227
          35    0.0130   -0.0665   -0.0064    0.0107    0.3519    0.0038   -0.0141   -0.0529
          36    0.0794   -0.1073   -0.0194    0.0108    0.1274    0.0014   -0.0050   -0.0183
          37   -0.0165   -0.0124   -0.0627    0.1486    0.0025   -0.0118    0.0081    0.0466
          38    0.0141    0.0082    0.0417   -0.0364    0.0016   -0.0221    0.0214    0.0763
          39    0.0000   -0.0009   -0.0020    0.0018   -0.0005    0.0002   -0.0004   -0.0028
          40    0.0609   -0.1771   -0.0095   -0.0064    0.3632    0.0025    0.0072    0.0215
          41   -0.0453    0.2427    0.0092   -0.0159    0.2420    0.0015    0.0057    0.0175
          42   -0.0538   -0.0126    0.0161   -0.0030    0.1965    0.0013    0.0042    0.0129


   Root No.      33        34        35        36

                33 A      34 A      35 A      36 A   

                2672.2    2744.3    2759.9    2768.2
  
           1    0.0010   -0.0057   -0.0087   -0.0125
           2    0.0005    0.0000    0.0002    0.0001
           3   -0.0021    0.0005    0.0005    0.0005
           4   -0.0007   -0.0033   -0.0040   -0.0042
           5   -0.0159   -0.0034   -0.0014    0.0011
           6   -0.0000   -0.0001    0.0001   -0.0001
           7    0.0119    0.0015   -0.0025    0.0034
           8   -0.0054   -0.0225   -0.0021    0.0107
           9   -0.0008    0.0016    0.0004   -0.0008
          10   -0.0207    0.0017    0.0001   -0.0005
          11   -0.0261    0.0035   -0.0001   -0.0025
          12    0.0010   -0.0001   -0.0000    0.0001
          13    0.0047    0.0276    0.0403    0.0563
          14   -0.0006    0.0005    0.0011    0.0016
          15    0.0066    0.0713    0.1024    0.1425
          16   -0.0046    0.0345    0.0484    0.0658
          17   -0.0218    0.0679    0.0946    0.1289
          18    0.0101   -0.0404   -0.0559   -0.0759
          19   -0.0136    0.0319    0.0466    0.0642
          20    0.0221   -0.0684   -0.0969   -0.1324
          21    0.0112   -0.0370   -0.0525   -0.0717
          22   -0.0084   -0.0027    0.0227   -0.0156
          23    0.0045    0.0005   -0.0223    0.0147
          24   -0.0186    0.0073    0.0385   -0.0301
          25   -0.0410   -0.1076   -0.0173    0.0487
          26    0.1367    0.3071    0.0430   -0.1369
          27   -0.0003    0.0001   -0.0001    0.0001
          28   -0.0741    0.1018    0.0566   -0.0794
          29   -0.0068   -0.0075   -0.0008    0.0037
          30    0.0212   -0.0295   -0.0178    0.0237
          31    0.0006   -0.0065    0.0135   -0.0052
          32   -0.0005    0.0025   -0.0046    0.0016
          33    0.0004   -0.0005   -0.0000    0.0004
          34   -0.0046    0.0402   -0.0841    0.0330
          35    0.0067   -0.1014    0.2158   -0.0859
          36    0.0019   -0.0359    0.0768   -0.0307
          37    0.3182   -0.0295   -0.0004    0.0167
          38    0.5317   -0.0446    0.0027    0.0303
          39   -0.0179    0.0017   -0.0001   -0.0010
          40   -0.0031    0.0693   -0.1474    0.0588
          41   -0.0026    0.0572   -0.1222    0.0486
          42   -0.0015    0.0470   -0.1024    0.0414


           MASS-WEIGHTED COORDINATE ANALYSIS (NORMAL COORDINATES)


   Root No.       1         2         3         4         5         6         7         8

                 1 A       2 A       3 A       4 A       5 A       6 A       7 A       8 A   

                -779.6    -148.8     -31.6      42.2     186.9     215.2     310.3     350.8
  
           1   -0.0419    0.0432   -0.0275   -0.1374   -0.0264   -0.0658   -0.1547    0.0066
           2   -0.0093   -0.0505    0.0152   -0.0363    0.0693   -0.0073   -0.2062    0.0937
           3    0.0020   -0.0637   -0.1246   -0.4723    0.0452   -0.0157    0.0174   -0.0428
           4    0.0171    0.0504   -0.0259   -0.1403   -0.0158   -0.0545   -0.1704    0.0117
           5    0.1328    0.0869   -0.0337    0.0009   -0.0263   -0.0142    0.1931   -0.0797
           6    0.0105    0.0399    0.0097    0.0471   -0.0538   -0.1375   -0.1716    0.0955
           7   -0.2422   -0.0646   -0.0324   -0.1703    0.0278   -0.0227    0.0466   -0.0974
           8    0.0165    0.1647   -0.0279    0.0247   -0.0716   -0.0467    0.0694   -0.0021
           9   -0.2619   -0.1513   -0.0098    0.3346   -0.0489   -0.1756   -0.2841    0.0859
          10    0.0560    0.1651   -0.0234   -0.1359   -0.1414   -0.1309    0.0742    0.0423
          11   -0.0504    0.1526   -0.0281    0.0261   -0.0980   -0.0639    0.3744   -0.0803
          12    0.0087    0.4663    0.1844    0.2568   -0.1110   -0.1450    0.0790   -0.3366
          13    0.0002    0.0336    0.0214    0.0658   -0.0321   -0.0454   -0.0942    0.0544
          14   -0.0126   -0.0543    0.5735   -0.1426    0.0449    0.0176   -0.1037    0.0167
          15    0.0071   -0.0253   -0.0536   -0.1769    0.0238    0.0067    0.0236   -0.0342
          16    0.0175    0.0252   -0.0459   -0.0821   -0.0102   -0.0077    0.0560   -0.0605
          17    0.0051   -0.0094   -0.2580    0.0453    0.0212   -0.0082   -0.1041    0.0603
          18    0.0167   -0.0000   -0.5199   -0.0761    0.0114   -0.0070    0.0248   -0.0127
          19   -0.0071   -0.0178    0.0001   -0.1010    0.0229   -0.0014   -0.1090    0.0161
          20   -0.0096   -0.0105   -0.2420    0.0429    0.0196   -0.0090   -0.0999    0.0603
          21    0.0053   -0.0534    0.4329   -0.2908    0.0401    0.0230    0.0226   -0.0624
          22    0.6956   -0.1147    0.0216    0.0464   -0.0106   -0.2687   -0.1353    0.0007
          23   -0.3027    0.1682   -0.0040   -0.0105   -0.0057    0.1660   -0.2479    0.0615
          24    0.3795    0.1901   -0.0409   -0.0906    0.0764    0.4940   -0.0773   -0.0008
          25   -0.0063   -0.0564   -0.0101   -0.0515    0.0172   -0.0209    0.1062   -0.0612
          26    0.0091    0.0331   -0.0086    0.0073   -0.0179   -0.0192    0.0504   -0.0123
          27   -0.0040   -0.1318   -0.0284    0.1020   -0.0222   -0.1223   -0.1318   -0.0696
          28   -0.0405   -0.0254    0.0022   -0.0097    0.0116   -0.0591    0.0026    0.0095
          29    0.0068    0.0764   -0.0085    0.0261   -0.0290   -0.0347   -0.1035    0.0375
          30    0.3253    0.0103    0.0223    0.1522    0.0286   -0.0119   -0.1110    0.1272
          31   -0.0167   -0.1635    0.0923    0.5038    0.1134    0.3134    0.1646    0.0324
          32    0.0186   -0.3761    0.0513   -0.0137   -0.0457    0.0994   -0.2888    0.0044
          33    0.0098   -0.2734   -0.0478   -0.0662    0.0542    0.4409    0.2580   -0.0043
          34    0.0211    0.1012    0.0161    0.1305    0.6156   -0.0586    0.1086    0.0390
          35   -0.0744    0.1154    0.0019   -0.0038    0.2956    0.1056   -0.1197    0.0310
          36    0.0221   -0.4420    0.0117    0.0179    0.0171   -0.3493    0.3103   -0.0219
          37    0.0008    0.0600   -0.0091   -0.0299   -0.0575   -0.0406    0.0855    0.0096
          38    0.0370    0.0273   -0.0051   -0.0014   -0.0079   -0.0068    0.0512    0.0121
          39   -0.0159    0.1330    0.0885   -0.0388   -0.1242   -0.0468    0.2352    0.8802
          40    0.0838   -0.1121    0.0254    0.1123   -0.3959    0.2687   -0.0103   -0.0320
          41   -0.0153   -0.1502    0.0185    0.0245    0.3502   -0.1175    0.1419   -0.0054
          42    0.0513    0.1553   -0.0266   -0.0455    0.3741   -0.0303   -0.1258    0.0735


   Root No.       9        10        11        12        13        14        15        16

                 9 A      10 A      11 A      12 A      13 A      14 A      15 A      16 A   

                 417.5     490.2     530.7     606.4     753.3     942.5     986.3    1005.8
  
           1   -0.0142   -0.2765    0.1406   -0.0997   -0.0622   -0.2865    0.2688    0.3331
           2    0.3621    0.1042   -0.0064    0.0043   -0.0136    0.0747   -0.0514   -0.2021
           3    0.0189   -0.0309   -0.0457   -0.0503    0.0262    0.0574    0.2167   -0.0477
           4   -0.0254   -0.2614    0.1175   -0.0585   -0.0237    0.0268   -0.0830   -0.0582
           5   -0.2809   -0.0604    0.0413    0.0150   -0.0738   -0.0152   -0.0698   -0.1046
           6   -0.1838    0.3990    0.4732   -0.3757    0.0299    0.0470   -0.0661    0.0037
           7   -0.3719    0.0956   -0.0490    0.1388   -0.0705    0.3920   -0.1425   -0.0033
           8   -0.0133   -0.3340    0.1482   -0.1547    0.0692   -0.2426   -0.0759   -0.2397
           9   -0.0814   -0.0207   -0.2072    0.1310   -0.2776   -0.1275   -0.3152    0.1311
          10    0.3909    0.3498   -0.0971    0.0510   -0.0144   -0.0102   -0.1291   -0.3123
          11   -0.0767    0.2372   -0.1128    0.0493    0.0383    0.0937    0.1828    0.4488
          12    0.1289   -0.1342   -0.0699    0.1247   -0.0058   -0.0063    0.0104   -0.0183
          13   -0.0771    0.0645    0.2904   -0.1520    0.0300    0.0139    0.3483    0.0432
          14    0.1703    0.0578   -0.0034    0.0075    0.0083   -0.0494    0.0123    0.0788
          15    0.0352   -0.0720   -0.1230    0.0411   -0.0173   -0.0216   -0.0843    0.0057
          16   -0.1306   -0.2027   -0.0687    0.0280   -0.0707   -0.0238   -0.1096   -0.0772
          17    0.2085    0.0612   -0.0048    0.0077    0.0086   -0.0408   -0.0021    0.0754
          18    0.0604   -0.0768   -0.1275    0.0452   -0.0219   -0.0377   -0.0975    0.0421
          19    0.1915   -0.0927   -0.0751    0.0379   -0.0214   -0.2298    0.0159    0.3602
          20    0.2088    0.0650   -0.0046    0.0069    0.0117   -0.0499    0.0385    0.0813
          21    0.0051   -0.0829   -0.1252    0.0386   -0.0256   -0.0258   -0.0947    0.0233
          22   -0.1741    0.0630   -0.0785    0.1267    0.1805   -0.0043   -0.1967    0.2056
          23   -0.1237    0.0298   -0.1951   -0.1016    0.0926    0.0456    0.0709   -0.1260
          24   -0.0114    0.0555    0.1953    0.1605   -0.3118    0.0329   -0.1167   -0.0691
          25   -0.2273    0.1985   -0.0914    0.0857   -0.1810   -0.3122    0.0829   -0.1987
          26   -0.0462   -0.0437    0.0140   -0.0304   -0.0279   -0.1890    0.0176   -0.1392
          27    0.0089   -0.0618    0.2315    0.6758    0.0997    0.0924    0.4627   -0.2098
          28   -0.1075   -0.0032   -0.1825   -0.0990   -0.0541    0.1576    0.1323   -0.0612
          29    0.1377   -0.3400    0.1217   -0.0396    0.1924    0.5848   -0.1696    0.1041
          30   -0.0093   -0.0938   -0.4539   -0.3245   -0.3036    0.2332    0.4407   -0.1243
          31    0.0433   -0.0349   -0.0354   -0.0671    0.1974   -0.0311    0.0220   -0.0704
          32   -0.1174    0.0651   -0.0755    0.0847    0.0228   -0.0251    0.0016   -0.0080
          33    0.0917   -0.0459    0.0244   -0.0443    0.1852   -0.0039    0.0105    0.0912
          34    0.0376    0.0049    0.0845    0.0347   -0.0915    0.0097   -0.0313    0.0808
          35   -0.0504    0.0521   -0.0107    0.0742   -0.0429    0.0040    0.0146    0.0907
          36    0.1241   -0.1134    0.0366   -0.1649    0.0812   -0.0060   -0.0204   -0.1645
          37    0.1704    0.2447   -0.0849    0.0538    0.0238    0.0960    0.0550    0.1713
          38   -0.0799   -0.0458    0.0188    0.0006   -0.0214   -0.0383   -0.0250   -0.0565
          39   -0.0836   -0.1042    0.0030    0.2157   -0.0205   -0.0109   -0.0078    0.0113
          40    0.0078   -0.0045    0.0120    0.0151   -0.0052    0.0008   -0.0199    0.0634
          41    0.1136   -0.0393    0.1824    0.0085   -0.4018    0.0916   -0.0110    0.0210
          42   -0.1578    0.0677   -0.2163    0.0104    0.5695   -0.1358    0.0031   -0.1056


   Root No.      17        18        19        20        21        22        23        24

                17 A      18 A      19 A      20 A      21 A      22 A      23 A      24 A   

                1020.1    1031.7    1047.3    1191.5    1201.5    1208.2    1260.5    1328.4
  
           1    0.2150    0.1940   -0.0821    0.0428   -0.0149   -0.0932   -0.1280   -0.3294
           2    0.4123    0.0967   -0.0687   -0.2131   -0.0109    0.0016    0.0037    0.0190
           3    0.0854   -0.0873    0.3898    0.0075    0.1069   -0.1612    0.0194    0.0069
           4   -0.0956   -0.0490    0.0105   -0.0231    0.0024    0.0279    0.1685    0.0316
           5   -0.0235   -0.0268    0.0254    0.0261   -0.0215   -0.0224   -0.0694   -0.1252
           6   -0.1052    0.0407   -0.4199   -0.0061    0.0234   -0.0456   -0.0523    0.0068
           7   -0.1638   -0.0359    0.0515   -0.0071    0.0462    0.0177    0.0709   -0.1188
           8   -0.1545   -0.1938    0.0108   -0.0433    0.2229    0.1361    0.2061   -0.1049
           9    0.0829    0.0341    0.2516    0.0036   -0.0011    0.0133   -0.0471   -0.0198
          10   -0.0074   -0.1104    0.0298    0.0224   -0.2150   -0.1302   -0.0779    0.0089
          11   -0.0039    0.1774   -0.0130   -0.0063   -0.1404   -0.0810    0.0178    0.0829
          12    0.0080    0.0091    0.0489   -0.0005   -0.0017    0.0042    0.0073    0.0008
          13    0.1629   -0.0331    0.4560    0.0035   -0.2048    0.3474    0.0004    0.3305
          14   -0.1868   -0.0469    0.0227    0.7055    0.0574    0.0171    0.0155    0.0230
          15   -0.0334    0.0194   -0.1335   -0.0068    0.0945   -0.1662   -0.0033   -0.1567
          16    0.4590    0.2305   -0.3239    0.2443    0.0830   -0.0748   -0.0263    0.4457
          17   -0.1898   -0.0447   -0.0004    0.0757   -0.1872    0.2974    0.0039   -0.2198
          18   -0.0697    0.0398   -0.1899    0.3813   -0.2370    0.4231    0.0021    0.0738
          19   -0.4269   -0.0034   -0.1366   -0.2987    0.0399   -0.1069   -0.0499    0.3629
          20   -0.1472   -0.0477    0.0643    0.0299    0.1882   -0.2793   -0.0041    0.1950
          21   -0.0110    0.0552   -0.1902   -0.3815   -0.2956    0.4145   -0.0188    0.0254
          22    0.0881   -0.1712    0.0618   -0.0101    0.0109   -0.0114    0.2796    0.0646
          23   -0.1154    0.1509   -0.0271   -0.0089   -0.0274   -0.0332    0.5348    0.2465
          24   -0.1797    0.4693    0.1839   -0.0114    0.0467    0.0108   -0.0009    0.0121
          25   -0.0939   -0.1541    0.0034   -0.0292    0.2342    0.1569   -0.3860    0.2985
          26   -0.0609   -0.1092   -0.0046   -0.0195    0.1367    0.0898   -0.0978    0.0886
          27   -0.1009    0.0063   -0.2475   -0.0035   -0.0158   -0.0147    0.0734    0.0004
          28   -0.0601   -0.0919   -0.0746    0.0001    0.0085    0.0066    0.0149   -0.0271
          29   -0.0942   -0.0553    0.0372   -0.0039    0.1170    0.0593   -0.4327    0.2052
          30   -0.0946   -0.0350   -0.1583    0.0030    0.0043   -0.0024   -0.0583   -0.0495
          31   -0.0418    0.1160    0.0118    0.0019    0.0027    0.0038   -0.0720   -0.0528
          32   -0.0010    0.0452    0.0272    0.0027    0.0097    0.0101   -0.1346   -0.0403
          33    0.1150   -0.3061   -0.0978    0.0010   -0.0171   -0.0085    0.0812    0.0200
          34    0.0613   -0.1583   -0.0265   -0.0033   -0.0093   -0.0083    0.1699    0.1445
          35    0.1019   -0.2548   -0.0648    0.0022   -0.0121   -0.0034    0.0104    0.0200
          36   -0.1770    0.4248    0.0988   -0.0053    0.0069   -0.0040    0.1544    0.1245
          37    0.1058    0.1161   -0.0327   -0.0452    0.5736    0.3620    0.1196   -0.1007
          38   -0.0714   -0.0437    0.0300    0.0314   -0.4148   -0.2590   -0.0902    0.0667
          39    0.0063    0.0071    0.0008   -0.0002    0.0125    0.0089    0.0062   -0.0017
          40    0.0528   -0.1334   -0.0232   -0.0016   -0.0067   -0.0038    0.0899    0.0938
          41   -0.0253   -0.0082   -0.0020   -0.0029    0.0053   -0.0044    0.0408   -0.0661
          42   -0.0477    0.2397    0.0661    0.0052    0.0121    0.0150   -0.2310   -0.0902


   Root No.      25        26        27        28        29        30        31        32

                25 A      26 A      27 A      28 A      29 A      30 A      31 A      32 A   

                1335.5    1354.1    1406.6    1756.2    2589.5    2622.1    2632.5    2636.4
  
           1    0.3388    0.0559   -0.1406   -0.1195    0.0006    0.0037   -0.0005    0.0047
           2    0.0152    0.0074    0.0738   -0.0439    0.0016    0.0062   -0.2651    0.0719
           3   -0.0112    0.0001    0.0052    0.0082    0.0030   -0.2705   -0.0058   -0.0009
           4   -0.2005   -0.0733    0.5580    0.5208   -0.0009   -0.0075   -0.0098   -0.0285
           5    0.0047   -0.0102   -0.5320    0.5649   -0.0000    0.0048   -0.0299   -0.0156
           6   -0.0180   -0.0184    0.0048   -0.0043    0.0001   -0.0172   -0.0004    0.0027
           7   -0.1219   -0.0831   -0.1224   -0.3360   -0.0087    0.0009   -0.0570   -0.2326
           8   -0.1481   -0.0542    0.0304   -0.4428    0.0021   -0.0003    0.0298    0.0889
           9   -0.0247   -0.0255    0.0051    0.0115    0.0022   -0.0003    0.0109    0.0402
          10    0.0391    0.0133   -0.1552   -0.0496   -0.0012    0.0062   -0.0078   -0.0274
          11   -0.0150   -0.0009    0.3702   -0.0591   -0.0008    0.0057   -0.0027   -0.0302
          12    0.0038    0.0019   -0.0040    0.0002   -0.0003   -0.0007    0.0001    0.0017
          13   -0.1801    0.0075   -0.1482   -0.0311   -0.0030    0.3305    0.0144    0.0034
          14   -0.0199   -0.0020   -0.0122    0.0072    0.0001    0.0106   -0.0421    0.0110
          15    0.0926   -0.0006    0.0741    0.0317   -0.0064    0.7333    0.0308    0.0078
          16   -0.2286    0.0031   -0.0808   -0.0780    0.0006   -0.1760    0.2850   -0.0705
          17    0.1334    0.0059    0.0292    0.0442    0.0015   -0.3235    0.4850   -0.1247
          18   -0.0336    0.0033   -0.0290   -0.0363   -0.0003    0.1497   -0.3111    0.0779
          19   -0.2344   -0.0077   -0.2579    0.0057    0.0026   -0.1484   -0.2885    0.0782
          20   -0.1379   -0.0085   -0.1039    0.0065   -0.0046    0.2906    0.5220   -0.1432
          21   -0.0065    0.0037   -0.0523   -0.0125   -0.0023    0.1138    0.3029   -0.0837
          22    0.1243    0.2535    0.0018   -0.1080   -0.0089    0.0002    0.0015    0.0039
          23    0.3978    0.3197   -0.0987    0.0760   -0.0091   -0.0002   -0.0073   -0.0267
          24    0.0460   -0.0621    0.0476   -0.1208   -0.0099    0.0003    0.0278    0.1045
          25    0.3556    0.1418    0.2304    0.0151    0.0028   -0.0005    0.0204    0.0678
          26    0.1041    0.0465    0.0647   -0.0449   -0.0108   -0.0002   -0.0801   -0.2880
          27   -0.0046   -0.0013   -0.0099    0.0083    0.0004   -0.0002    0.0013    0.0052
          28   -0.0429   -0.0209   -0.0315   -0.0335    0.0357   -0.0005    0.2140    0.8084
          29    0.3105    0.1018   -0.0139   -0.0175    0.0004    0.0003    0.0058    0.0199
          30   -0.0724   -0.0926    0.0057   -0.0394   -0.0087   -0.0003   -0.0632   -0.2409
          31   -0.0983    0.1972    0.0072    0.0119   -0.0646   -0.0003   -0.0060   -0.0223
          32   -0.0590   -0.1619    0.0172   -0.0153   -0.2228   -0.0022    0.0046    0.0212
          33    0.0197    0.1362   -0.0160    0.0263   -0.1203   -0.0011   -0.0008   -0.0012
          34    0.2622   -0.4774   -0.0322   -0.0001   -0.2898   -0.0031    0.0113    0.0479
          35    0.0359   -0.1376   -0.0097    0.0117    0.5326    0.0064   -0.0269   -0.1116
          36    0.2198   -0.2220   -0.0297    0.0118    0.1928    0.0024   -0.0094   -0.0386
          37   -0.0457   -0.0256   -0.0958    0.1617    0.0037   -0.0200    0.0155    0.0984
          38    0.0391    0.0170    0.0638   -0.0397    0.0024   -0.0373    0.0407    0.1609
          39    0.0001   -0.0018   -0.0031    0.0019   -0.0007    0.0003   -0.0007   -0.0059
          40    0.1686   -0.3665   -0.0146   -0.0070    0.5498    0.0042    0.0136    0.0453
          41   -0.1255    0.5024    0.0141   -0.0173    0.3663    0.0025    0.0109    0.0370
          42   -0.1489   -0.0261    0.0246   -0.0033    0.2974    0.0022    0.0080    0.0272


   Root No.      33        34        35        36

                33 A      34 A      35 A      36 A   

                2672.2    2744.3    2759.9    2768.2
  
           1    0.0052   -0.0476   -0.0749   -0.1200
           2    0.0024    0.0002    0.0014    0.0005
           3   -0.0112    0.0045    0.0043    0.0048
           4   -0.0035   -0.0273   -0.0347   -0.0401
           5   -0.0830   -0.0280   -0.0120    0.0103
           6   -0.0002   -0.0006    0.0007   -0.0013
           7    0.0625    0.0127   -0.0216    0.0326
           8   -0.0281   -0.1874   -0.0181    0.1033
           9   -0.0042    0.0134    0.0038   -0.0081
          10   -0.1252    0.0163    0.0015   -0.0056
          11   -0.1576    0.0341   -0.0012   -0.0278
          12    0.0061   -0.0008   -0.0001    0.0009
          13    0.0072    0.0667    0.1006    0.1568
          14   -0.0008    0.0013    0.0028    0.0044
          15    0.0099    0.1721    0.2559    0.3973
          16   -0.0070    0.0833    0.1209    0.1835
          17   -0.0330    0.1639    0.2363    0.3595
          18    0.0153   -0.0975   -0.1397   -0.2117
          19   -0.0206    0.0771    0.1165    0.1790
          20    0.0334   -0.1650   -0.2421   -0.3691
          21    0.0170   -0.0894   -0.1312   -0.1998
          22   -0.0127   -0.0066    0.0567   -0.0434
          23    0.0069    0.0012   -0.0557    0.0411
          24   -0.0282    0.0175    0.0962   -0.0838
          25   -0.0622   -0.2597   -0.0433    0.1359
          26    0.2072    0.7412    0.1074   -0.3816
          27   -0.0004    0.0003   -0.0002    0.0004
          28   -0.1122    0.2456    0.1413   -0.2213
          29   -0.0103   -0.0180   -0.0021    0.0104
          30    0.0322   -0.0713   -0.0446    0.0660
          31    0.0036   -0.0627    0.1340   -0.0578
          32   -0.0030    0.0243   -0.0461    0.0179
          33    0.0026   -0.0048   -0.0005    0.0043
          34   -0.0069    0.0969   -0.2102    0.0921
          35    0.0102   -0.2447    0.5393   -0.2395
          36    0.0029   -0.0867    0.1919   -0.0856
          37    0.4822   -0.0712   -0.0011    0.0466
          38    0.8058   -0.1076    0.0068    0.0844
          39   -0.0272    0.0041   -0.0003   -0.0027
          40   -0.0047    0.1673   -0.3683    0.1639
          41   -0.0040    0.1380   -0.3053    0.1356
          42   -0.0023    0.1135   -0.2558    0.1154


          DESCRIPTION OF VIBRATIONS


 VIBRATION          1    1A           ATOM PAIR      ENERGY CONTRIBUTION    RADIAL
 FREQUENCY          -779.58         C  3 -- H  8         +45.5% (-49.8%)     96.4%
 TRANSITION DIPOLE   6.6419         C  3 -- H 10         +40.7% (-47.1%)      1.5%
 TRAVEL (Ang.)       0.3434         C  2 -- C  3         +36.5% (-44.6%)     40.2%
 REDUCED MASS        0.7334         C  3 -- H  9         +19.2% (-32.4%)      6.7%
 EFFECTIVE MASS      0.4463         C  2 -- O  4         +13.1% (-26.8%)     92.6%
 FORCE CONSTANT     -0.2626         O 11 -- H 14         +12.7% (-26.3%)     45.2%
                            O 11 -- H 12         +10.8% (-24.3%)     79.6%
                            C  1 -- C  2         +10.5% (-23.9%)     14.7%

 VIBRATION          2    2A           ATOM PAIR      ENERGY CONTRIBUTION    RADIAL
 FREQUENCY          -148.83         H  8 -- O 11         +28.4% (-99.9%)      2.9%
 TRANSITION DIPOLE   0.6924         O 11 -- H 12         +17.8% (-99.9%)     16.4%
 TRAVEL (Ang.)       0.4548         C  3 -- H  8         +13.0% (-99.9%)     32.4%
 REDUCED MASS        2.1902         O 11 -- H 14          +8.8% (-99.9%)     44.6%
 EFFECTIVE MASS     61.4978
 FORCE CONSTANT     -0.0286

 VIBRATION          3    3A           ATOM PAIR      ENERGY CONTRIBUTION    RADIAL
 FREQUENCY           -31.64         C  1 -- H  5         +32.7% (-99.9%)      2.6%
 TRANSITION DIPOLE   0.1126         C  1 -- H  6         +31.9% (-99.9%)      0.7%
 TRAVEL (Ang.)       0.0000         C  1 -- H  7         +30.0% (-99.9%)      0.2%
 REDUCED MASS        0.3143         C  1 -- C  2          +2.1% (-99.9%)      0.0%
 EFFECTIVE MASS    131.3903
 FORCE CONSTANT     -0.0002

 VIBRATION          4    4A           ATOM PAIR      ENERGY CONTRIBUTION    RADIAL
 FREQUENCY            42.24         C  1 -- C  2         +18.4% (999.0%)      0.0%
 TRANSITION DIPOLE   1.2556         C  1 -- H  7         +16.4% (999.0%)     41.4%
 TRAVEL (Ang.)       0.8605         C  1 -- H  6         +15.3% (999.0%)      5.7%
 REDUCED MASS        2.1558         C  1 -- H  5         +11.5% (877.8%)     86.4%
 EFFECTIVE MASS   1256.1085
 FORCE CONSTANT      0.0023

 VIBRATION          5    5A           ATOM PAIR      ENERGY CONTRIBUTION    RADIAL
 FREQUENCY           186.92         O 11 -- H 14         +46.3% (325.8%)      0.7%
 TRANSITION DIPOLE   1.0978         O 11 -- H 12         +42.4% (312.0%)      0.6%
 TRAVEL (Ang.)       0.9137         C  2 -- O  4          +2.0% ( 68.4%)      0.1%
 REDUCED MASS        0.4321         C  1 -- C  2          +1.3% ( 54.5%)      0.6%
 EFFECTIVE MASS      8.3485
 FORCE CONSTANT      0.0089

 VIBRATION          6    6A           ATOM PAIR      ENERGY CONTRIBUTION    RADIAL
 FREQUENCY           215.23         O 11 -- H 12         +33.5% (252.3%)      1.0%
 TRANSITION DIPOLE   0.9727         H  8 -- O 11         +24.1% (213.7%)      4.3%
 TRAVEL (Ang.)       0.4347         C  3 -- H  8         +23.0% (208.9%)     10.9%
 REDUCED MASS        1.6581         O 11 -- H 14          +7.5% (119.5%)     40.9%
 EFFECTIVE MASS     34.1888
 FORCE CONSTANT      0.0453

 VIBRATION          7    7A           ATOM PAIR      ENERGY CONTRIBUTION    RADIAL
 FREQUENCY           310.32         C  1 -- C  2         +12.5% (124.6%)      0.1%
 TRANSITION DIPOLE   0.8422         C  3 -- H  8         +11.9% (121.5%)      2.4%
 TRAVEL (Ang.)       0.4333         C  2 -- O  4         +10.9% (116.2%)      1.2%
 REDUCED MASS        1.1575         O 11 -- H 14         +10.2% (112.5%)      1.4%
 EFFECTIVE MASS     24.8866
 FORCE CONSTANT      0.0657

 VIBRATION          8    8A           ATOM PAIR      ENERGY CONTRIBUTION    RADIAL
 FREQUENCY           350.83         O  4 -- H 13         +42.5% ( 97.9%)      0.0%
 TRANSITION DIPOLE   1.0574         C  1 -- C  2          +9.6% ( 46.4%)      0.1%
 TRAVEL (Ang.)       0.4755         C  3 -- H  9          +7.4% ( 40.9%)      1.9%
 REDUCED MASS        0.8500         C  2 -- O  4          +7.2% ( 40.4%)      0.0%
 EFFECTIVE MASS      4.0802
 FORCE CONSTANT      0.0616

 VIBRATION          9    9A           ATOM PAIR      ENERGY CONTRIBUTION    RADIAL
 FREQUENCY           417.49         C  1 -- C  2         +17.3% (129.7%)      0.0%
 TRANSITION DIPOLE   0.4811         C  3 -- H  8         +12.1% (108.2%)     76.3%
 TRAVEL (Ang.)       0.3767         C  2 -- C  3         +12.0% (107.9%)      0.0%
 REDUCED MASS        1.1380         C  2 -- O  4         +10.6% (101.5%)      0.1%
 EFFECTIVE MASS     19.4462
 FORCE CONSTANT      0.1169

 VIBRATION         10   10A           ATOM PAIR      ENERGY CONTRIBUTION    RADIAL
 FREQUENCY           490.21         C  2 -- O  4         +19.1% (115.5%)      0.0%
 TRANSITION DIPOLE   0.5884         C  2 -- C  3         +15.7% (104.5%)      0.0%
 TRAVEL (Ang.)       0.2971         C  1 -- C  2         +12.8% ( 94.5%)      0.1%
 REDUCED MASS        1.5582         C  3 -- H 10         +12.7% ( 94.0%)     43.4%
 EFFECTIVE MASS     17.8877
 FORCE CONSTANT      0.2206

 VIBRATION         11   11A           ATOM PAIR      ENERGY CONTRIBUTION    RADIAL
 FREQUENCY           530.73         C  2 -- C  3         +14.3% ( 76.5%)      0.0%
 TRANSITION DIPOLE   1.4646         C  3 -- H 10         +13.8% ( 75.0%)      7.7%
 TRAVEL (Ang.)       0.3856         C  2 -- O  4         +11.9% ( 69.7%)      0.2%
 REDUCED MASS        0.8545         C  1 -- C  2         +11.3% ( 67.8%)      0.2%
 EFFECTIVE MASS      7.6520
 FORCE CONSTANT      0.1418

 VIBRATION         12   12A           ATOM PAIR      ENERGY CONTRIBUTION    RADIAL
 FREQUENCY           606.38         C  3 -- H  9         +29.9% ( 79.5%)      5.7%
 TRANSITION DIPOLE   1.5861         C  2 -- C  3         +15.4% ( 57.0%)      0.1%
 TRAVEL (Ang.)       0.4514         C  3 -- H 10         +12.8% ( 52.1%)      7.3%
 REDUCED MASS        0.5458         C  3 -- H  8          +9.4% ( 44.5%)      0.2%
 EFFECTIVE MASS      4.8355
 FORCE CONSTANT      0.1182

 VIBRATION         13   13A           ATOM PAIR      ENERGY CONTRIBUTION    RADIAL
 FREQUENCY           753.29         O 11 -- H 14         +32.1% ( 74.5%)     12.4%
 TRANSITION DIPOLE   1.1463         H  8 -- O 11         +17.8% ( 55.5%)     81.3%
 TRAVEL (Ang.)       0.4433         C  3 -- H  8         +16.7% ( 53.8%)     35.4%
 REDUCED MASS        0.4554         C  3 -- H 10         +10.6% ( 42.9%)      1.7%
 EFFECTIVE MASS      3.2010
 FORCE CONSTANT      0.1523

 VIBRATION         14   14A           ATOM PAIR      ENERGY CONTRIBUTION    RADIAL
 FREQUENCY           942.47         C  3 -- H 10         +33.5% ( 85.4%)     13.2%
 TRANSITION DIPOLE   0.4457         C  3 -- H  9         +20.3% ( 66.4%)     16.2%
 TRAVEL (Ang.)       0.2770         C  3 -- H  8         +10.4% ( 47.5%)     18.4%
 REDUCED MASS        0.9323         C  2 -- C  3         +10.4% ( 47.4%)      0.7%
 EFFECTIVE MASS      4.9474
 FORCE CONSTANT      0.4879

 VIBRATION         15   15A           ATOM PAIR      ENERGY CONTRIBUTION    RADIAL
 FREQUENCY           986.31         C  3 -- H  9         +18.6% ( 51.8%)      0.0%
 TRANSITION DIPOLE   0.9163         C  1 -- H  5         +14.8% ( 46.2%)     62.5%
 TRAVEL (Ang.)       0.3561         C  3 -- H 10         +13.9% ( 44.8%)      2.0%
 REDUCED MASS        0.5390         C  1 -- C  2         +11.9% ( 41.4%)     60.7%
 EFFECTIVE MASS      4.4040         C  1 -- H  6         +11.6% ( 40.9%)      0.5%
 FORCE CONSTANT      0.3089

 VIBRATION         16   16A           ATOM PAIR      ENERGY CONTRIBUTION    RADIAL
 FREQUENCY          1005.85         C  2 -- O  4         +15.1% ( 53.9%)     99.7%
 TRANSITION DIPOLE   0.9148         O  4 -- H 13         +14.2% ( 52.3%)      2.4%
 TRAVEL (Ang.)       0.1915         C  1 -- H  7         +13.4% ( 50.8%)     72.9%
 REDUCED MASS        1.8281         C  1 -- C  2         +10.4% ( 44.7%)     92.7%
 EFFECTIVE MASS      8.5418         C  1 -- H  6         +10.1% ( 44.0%)      0.1%
 FORCE CONSTANT      1.0897

 VIBRATION         17   17A           ATOM PAIR      ENERGY CONTRIBUTION    RADIAL
 FREQUENCY          1020.12         C  1 -- H  7         +25.7% ( 71.0%)      8.3%
 TRANSITION DIPOLE   1.4142         C  1 -- H  6         +23.4% ( 67.8%)     21.1%
 TRAVEL (Ang.)       0.2941         C  1 -- H  5         +13.4% ( 51.3%)      5.0%
 REDUCED MASS        0.7643         C  1 -- C  2         +12.4% ( 49.3%)     29.9%
 EFFECTIVE MASS      4.4931
 FORCE CONSTANT      0.4686

 VIBRATION         18   18A           ATOM PAIR      ENERGY CONTRIBUTION    RADIAL
 FREQUENCY          1031.65         H  8 -- O 11         +19.5% ( 52.0%)     40.0%
 TRANSITION DIPOLE   2.7114         C  3 -- H  8         +16.0% ( 47.1%)      6.2%
 TRAVEL (Ang.)       0.3872         O 11 -- H 12         +14.8% ( 45.3%)      1.8%
 REDUCED MASS        0.4359         C  1 -- H  6          +6.8% ( 30.7%)     65.2%
 EFFECTIVE MASS      3.8080
 FORCE CONSTANT      0.2733

 VIBRATION         19   19A           ATOM PAIR      ENERGY CONTRIBUTION    RADIAL
 FREQUENCY          1047.28         C  1 -- H  5         +25.4% ( 61.5%)     15.0%
 TRANSITION DIPOLE   0.6888         C  1 -- H  6         +18.7% ( 52.8%)     12.9%
 TRAVEL (Ang.)       0.2779         C  1 -- C  2         +15.9% ( 48.6%)      1.3%
 REDUCED MASS        0.8337         C  1 -- H  7         +13.3% ( 44.5%)      4.4%
 EFFECTIVE MASS      4.9231
 FORCE CONSTANT      0.5388

 VIBRATION         20   20A           ATOM PAIR      ENERGY CONTRIBUTION    RADIAL
 FREQUENCY          1191.49         C  1 -- H  5         +47.2% ( 59.3%)      0.0%
 TRANSITION DIPOLE   0.9699         C  1 -- H  7         +24.8% ( 43.0%)      7.8%
 TRAVEL (Ang.)       0.3872         C  1 -- H  6         +21.4% ( 39.9%)      6.9%
 REDUCED MASS        0.3775         C  1 -- C  2          +4.3% ( 18.0%)      7.0%
 EFFECTIVE MASS      1.4728
 FORCE CONSTANT      0.3157

 VIBRATION         21   21A           ATOM PAIR      ENERGY CONTRIBUTION    RADIAL
 FREQUENCY          1201.53         O  4 -- H 13         +51.7% ( 74.8%)      9.7%
 TRANSITION DIPOLE   0.6429         C  3 -- H  9          +9.6% ( 32.3%)     50.1%
 TRAVEL (Ang.)       0.3790         C  1 -- H  7          +8.2% ( 29.8%)      0.6%
 REDUCED MASS        0.3907         C  1 -- H  6          +6.7% ( 26.9%)      2.2%
 EFFECTIVE MASS      2.4369
 FORCE CONSTANT      0.3323

 VIBRATION         22   22A           ATOM PAIR      ENERGY CONTRIBUTION    RADIAL
 FREQUENCY          1208.19         O  4 -- H 13         +25.1% ( 46.5%)      9.0%
 TRANSITION DIPOLE   0.9444         C  1 -- H  6         +22.4% ( 43.9%)      0.2%
 TRAVEL (Ang.)       0.4877         C  1 -- H  7         +21.8% ( 43.4%)      0.2%
 REDUCED MASS        0.2346         C  1 -- H  5         +14.4% ( 35.3%)     12.3%
 EFFECTIVE MASS      1.7977
 FORCE CONSTANT      0.2018

 VIBRATION         23   23A           ATOM PAIR      ENERGY CONTRIBUTION    RADIAL
 FREQUENCY          1260.47         H  8 -- O 11         +26.0% ( 59.9%)     18.5%
 TRANSITION DIPOLE   0.5838         C  3 -- H  8         +25.9% ( 59.8%)     10.2%
 TRAVEL (Ang.)       0.4464         C  3 -- H 10         +13.7% ( 43.4%)      0.2%
 REDUCED MASS        0.2684         C  3 -- H  9         +13.1% ( 42.4%)      4.9%
 EFFECTIVE MASS      2.4131
 FORCE CONSTANT      0.2513

 VIBRATION         24   24A           ATOM PAIR      ENERGY CONTRIBUTION    RADIAL
 FREQUENCY          1328.42         C  1 -- H  6         +24.4% ( 52.5%)      1.2%
 TRANSITION DIPOLE   1.5302         C  1 -- H  7         +18.4% ( 45.5%)      2.7%
 TRAVEL (Ang.)       0.4226         C  1 -- H  5         +15.6% ( 42.0%)      1.6%
 REDUCED MASS        0.2842         C  3 -- H  9          +9.0% ( 31.9%)      0.6%
 EFFECTIVE MASS      2.4641
 FORCE CONSTANT      0.2955

 VIBRATION         25   25A           ATOM PAIR      ENERGY CONTRIBUTION    RADIAL
 FREQUENCY          1335.49         C  3 -- H  8         +13.7% ( 41.9%)      4.8%
 TRANSITION DIPOLE   0.9636         C  1 -- C  2         +11.5% ( 38.3%)     99.9%
 TRAVEL (Ang.)       0.4168         H  8 -- O 11         +11.2% ( 37.9%)      9.7%
 REDUCED MASS        0.2907         C  3 -- H  9         +11.1% ( 37.6%)      1.6%
 EFFECTIVE MASS      3.0482         C  1 -- H  7         +10.7% ( 37.1%)      2.8%
 FORCE CONSTANT      0.3055         C  1 -- H  6         +10.3% ( 36.4%)      4.4%

 VIBRATION         26   26A           ATOM PAIR      ENERGY CONTRIBUTION    RADIAL
 FREQUENCY          1354.10         O 11 -- H 14         +31.0% ( 51.2%)      3.3%
 TRANSITION DIPOLE   1.4117         O 11 -- H 12         +24.6% ( 45.6%)      7.0%
 TRAVEL (Ang.)       0.3603         H  8 -- O 11         +20.2% ( 41.4%)     57.0%
 REDUCED MASS        0.3836         C  3 -- H  8         +15.4% ( 36.1%)      9.1%
 EFFECTIVE MASS      1.8558
 FORCE CONSTANT      0.4144

 VIBRATION         27   27A           ATOM PAIR      ENERGY CONTRIBUTION    RADIAL
 FREQUENCY          1406.59         C  2 -- O  4         +36.7% ( 81.4%)     96.6%
 TRANSITION DIPOLE   3.5873         C  1 -- C  2         +25.6% ( 68.0%)     57.1%
 TRAVEL (Ang.)       0.1012         C  2 -- C  3         +23.6% ( 65.3%)      0.2%
 REDUCED MASS        4.6801         O  4 -- H 13          +4.2% ( 27.6%)     44.2%
 EFFECTIVE MASS     10.0300
 FORCE CONSTANT      5.4555

 VIBRATION         28   28A           ATOM PAIR      ENERGY CONTRIBUTION    RADIAL
 FREQUENCY          1756.21         C  2 -- C  3         +38.5% ( 92.1%)     99.7%
 TRANSITION DIPOLE   5.7669         C  1 -- C  2         +18.7% ( 64.1%)     52.5%
 TRAVEL (Ang.)       0.0848         C  2 -- O  4         +17.6% ( 62.3%)     11.6%
 REDUCED MASS        5.3388         C  3 -- H  8          +8.3% ( 42.9%)      0.1%
 EFFECTIVE MASS     10.9061
 FORCE CONSTANT      9.7017

 VIBRATION         29   29A           ATOM PAIR      ENERGY CONTRIBUTION    RADIAL
 FREQUENCY          2589.46         O 11 -- H 14         +55.5% ( 77.1%)     97.1%
 TRANSITION DIPOLE   2.2069         O 11 -- H 12         +43.9% ( 68.6%)     96.3%
 TRAVEL (Ang.)       0.2243         H  8 -- O 11          +0.5% (  7.1%)      0.0%
 REDUCED MASS        0.5175         C  3 -- H 10          +0.1% (  3.8%)     99.9%
 EFFECTIVE MASS      1.4645
 FORCE CONSTANT      2.0446

 VIBRATION         30   30A           ATOM PAIR      ENERGY CONTRIBUTION    RADIAL
 FREQUENCY          2622.08         C  1 -- H  5         +68.3% ( 85.3%)     99.7%
 TRANSITION DIPOLE   1.2321         C  1 -- H  6         +17.4% ( 43.1%)     87.6%
 TRAVEL (Ang.)       0.2211         C  1 -- H  7         +13.3% ( 37.6%)     83.3%
 REDUCED MASS        0.5259         C  1 -- C  2          +0.8% (  9.1%)      0.2%
 EFFECTIVE MASS      1.4224
 FORCE CONSTANT      2.1302

 VIBRATION         31   31A           ATOM PAIR      ENERGY CONTRIBUTION    RADIAL
 FREQUENCY          2632.53         C  1 -- H  7         +47.8% ( 71.4%)     98.2%
 TRANSITION DIPOLE   1.2907         C  1 -- H  6         +44.1% ( 68.6%)     97.7%
 TRAVEL (Ang.)       0.2423         C  3 -- H 10          +5.0% ( 23.0%)     99.5%
 REDUCED MASS        0.4361         C  1 -- H  5          +0.9% (  9.8%)      3.5%
 EFFECTIVE MASS      1.4373
 FORCE CONSTANT      1.7807

 VIBRATION         32   32A           ATOM PAIR      ENERGY CONTRIBUTION    RADIAL
 FREQUENCY          2636.36         C  3 -- H 10         +74.0% ( 87.2%)     99.7%
 TRANSITION DIPOLE   1.7062         C  3 -- H  9         +11.6% ( 34.5%)     90.0%
 TRAVEL (Ang.)       0.2116         O  4 -- H 13          +3.7% ( 19.5%)     99.5%
 REDUCED MASS        0.5711         C  1 -- H  7          +3.7% ( 19.5%)     97.8%
 EFFECTIVE MASS      1.4240
 FORCE CONSTANT      2.3388

 VIBRATION         33   33A           ATOM PAIR      ENERGY CONTRIBUTION    RADIAL
 FREQUENCY          2672.18         O  4 -- H 13         +92.0% ( 95.8%)     99.2%
 TRANSITION DIPOLE   2.4326         C  3 -- H  9          +5.2% ( 22.7%)     98.3%
 TRAVEL (Ang.)       0.1760         C  3 -- H 10          +1.6% ( 12.7%)     99.7%
 REDUCED MASS        0.8146         C  2 -- O  4          +0.4% (  6.4%)      0.4%
 EFFECTIVE MASS      1.3463
 FORCE CONSTANT      3.4269

 VIBRATION         34   34A           ATOM PAIR      ENERGY CONTRIBUTION    RADIAL
 FREQUENCY          2744.27         C  3 -- H  9         +65.8% ( 80.2%)     99.4%
 TRANSITION DIPOLE   1.2548         O 11 -- H 12          +7.6% ( 27.2%)     99.2%
 TRAVEL (Ang.)       0.2425         C  3 -- H 10          +6.2% ( 24.6%)     63.0%
 REDUCED MASS        0.4179         O 11 -- H 14          +5.8% ( 23.8%)     98.7%
 EFFECTIVE MASS      1.2789
 FORCE CONSTANT      1.8543

 VIBRATION         35   35A           ATOM PAIR      ENERGY CONTRIBUTION    RADIAL
 FREQUENCY          2759.94         O 11 -- H 12         +39.2% ( 59.5%)     99.5%
 TRANSITION DIPOLE   0.6683         O 11 -- H 14         +30.3% ( 52.3%)     99.1%
 TRAVEL (Ang.)       0.3087         C  1 -- H  6          +9.3% ( 29.0%)     95.7%
 REDUCED MASS        0.2564         C  1 -- H  7          +9.3% ( 29.0%)     95.9%
 EFFECTIVE MASS      1.1805
 FORCE CONSTANT      1.1508

 VIBRATION         36   36A           ATOM PAIR      ENERGY CONTRIBUTION    RADIAL
 FREQUENCY          2768.15         C  1 -- H  7         +21.2% ( 44.1%)     95.3%
 TRANSITION DIPOLE   1.0062         C  1 -- H  6         +21.2% ( 44.1%)     95.4%
 TRAVEL (Ang.)       0.3851         C  1 -- H  5         +18.3% ( 41.0%)     94.1%
 REDUCED MASS        0.1642         C  3 -- H  9         +18.3% ( 40.9%)     97.8%
 EFFECTIVE MASS      1.2081
 FORCE CONSTANT      0.7415

           FORCE CONSTANT IN CARTESIAN COORDINATES (Millidynes/A)

    ATOM   CHEMICAL       X               Y               Z
   NUMBER   SYMBOL  FORCE CONSTANT  FORCE CONSTANT  FORCE CONSTANT

      1       C        7.639808        6.204223        5.635386
      2       C       11.773742       11.847878        2.754248
      3       C        7.698737       10.482510        1.849971
      4       O        4.416795        7.948639        0.305620
      5       H        1.187171        0.465131        3.442644
      6       H        1.329127        2.645436        1.225797
      7       H        1.294326        2.763501        1.142514
      8       H        0.127768        0.683912        0.355945
      9       H        1.078059        3.827588        0.320765
     10       H        3.581768        0.599685        0.561817
     11       O        3.600901        4.292766        2.965837
     12       H        1.033732        3.115515        0.706549
     13       H        1.598709        3.194058        0.075595
     14       H        2.285068        1.498893        1.036538
 *******************************************************************************
 ** Site#: 37037        For non-commercial use only           Version 21.158W **
 *******************************************************************************
 ** Cite this program as: MOPAC2016, Version: 21.158W, James J. P. Stewart,   **
 ** Stewart Computational Chemistry, web: HTTP://OpenMOPAC.net. Days left: 358**
 *******************************************************************************
 **                                                                           **
 **                                MOPAC2016                                  **
 **                                                                           **
 *******************************************************************************

                              PM7 CALCULATION RESULTS

 *******************************************************************************
 *  CALCULATION DONE:                                Mon Jun 14 12:44:50 2021  *
 *
 *
 *
 *                 CHARGE ON SYSTEM = +1
 *
 *
 *
 *  EPS=78.4   - USE ANDREAS KLAMT'S COSMO IMPLICIT SOLVATION MODEL
 *  IRC=N      - INTRINSIC REACTION COORDINATE  1 DEFINED
 *  OLDGEO     - PREVIOUS GEOMETRY TO BE USED
 *  RESTART    - CALCULATION RESTARTED
 *  T=         - A TIME OF 172800.0 SECONDS REQUESTED
 *  DUMP=N     - RESTART FILE WRITTEN EVERY 7200.0 SECONDS REQUESTED
 *  HTML       - WRITE HTML SCRIPT TO GENERATE ANIMATION USING JSMOL
 *             - TO DISPLAY IN PDB FORMAT, ADD "PDBOUT"
 *  X-PRIOR    - GEOMETRY CHANGES TAKE PRIORITY IN DRC
 *******************************************************************************
oldgeo  html  irc=1* restart X-priority=0.05 eps=78.4 charge=1
 Map out IRC for acetone Enol-Keto reaction

   ATOM                 CHEMICAL                   X               Y               Z
  NUMBER                 SYMBOL               (ANGSTROMS)     (ANGSTROMS)     (ANGSTROMS)
 
     1       C(HETATM    1  C1  HET A   1)    0.09826614  *  -0.23866440  *   0.10535430  *
     2       C(HETATM    2  C2  HET A   1)    1.43118092  *   0.18298004  *  -0.35453316  *
     3       C(HETATM    3  C3  HET A   1)    2.06306499  *   1.35645695  *  -0.08283477  *
     4       O(HETATM    4  O   HET A   1)    2.12885972  *  -0.67460660  *  -1.11280087  *
     5       H(HETATM    5 1H1  HET A   1)   -0.68811632  *   0.05899148  *  -0.61816827  *
     6       H(HETATM    6 2H1  HET A   1)    0.00198586  *  -1.33239088  *   0.23372084  *
     7       H(HETATM    7 3H1  HET A   1)   -0.18566066  *   0.21696979  *   1.07145209  *
     8       H(HETATM    8 1H   HET A   1)    3.51373497  *   1.01768198  *   0.30369343  *
     9       H(HETATM    9 1H3  HET A   1)    1.61233711  *   2.12402212  *   0.52892069  *
    10       H(HETATM   10 2H3  HET A   1)    2.95747935  *   1.72303549  *  -0.63371111  *
    11       O(HETATM   11  O   HOH B   2)    4.24150968  *   0.15317019  *   0.74009972  *
    12       H(HETATM   12 2H   HOH B   2)    4.59885641  *  -0.30802683  *  -0.07700002  *
    13       H(HETATM   13  H   HOH B   2)    1.67221128  *  -1.55224277  *  -1.28939292  *
    14       H(HETATM   14 2H   HOH B   2)    5.04983304  *   0.64544531  *   1.07625673  *
 

 General Reference for PM7:
 "Optimization of Parameters for Semiempirical Methods VI: More Modifications to the 
 NDDO Approximations and Re-optimization of Parameters", J. J. P. Stewart, J. Mol. Mod., 1:32, 19 (2013)
 https://link.springer.com/article/10.1007/s00894-012-1667-x

           Empirical Formula: C3 H9 O2  =    14 atoms



      MOLECULAR POINT GROUP   :   C1  


      RHF CALCULATION, NO. OF DOUBLY OCCUPIED LEVELS = 16


          MOLECULAR WEIGHT =   77.10


          ESTIMATED TIME TO COMPLETE CALCULATION =        0.00 SECONDS

          TIME USED UP TO RESTART =                  1.05

    FOR POINT-GROUP C1   THERE ARE   1 UNIQUE SYMMETRY FUNCTIONS.

           INITIAL VELOCITY IN DRC (Angstroms/Femtosecond)
        -0.00740        -0.00165         0.00036
         0.00302         0.02345         0.00185
        -0.04276         0.00292        -0.04623
         0.00857        -0.00770         0.00133
         0.00010        -0.00768         0.00433
         0.01066         0.00308         0.01016
        -0.00433        -0.00585         0.00322
         0.42397        -0.18447         0.23131
        -0.00382         0.00554        -0.00241
        -0.02471         0.00415         0.19823
        -0.00256         0.00284         0.00150
         0.01288        -0.04535         0.01345
         0.00052         0.02255        -0.00968
         0.05109        -0.00931         0.03124

 GEOMETRY PRIORITY, STEP = 0.0500 ANGSTROMS



     POINT   POTENTIAL  +  ENERGY LOST   =   TOTAL      ERROR    REF%   MOVEMENT
       1       7.48795      0.00000          7.48795   0.00000     1   %  0.0000
       1       7.41612      0.00000          7.41612  -0.18955     2   %  0.0503
       1       7.33349      0.00000          7.33349  -0.23762     3   %  0.1012
       2       7.28381      0.00000          7.28381  -0.20414     4   %  0.1293
       6       7.13435      0.04784          7.18219  -0.10162     5   %  0.1961
      31       7.04974      0.12807          7.17781  -0.10601     6   %  0.2429
      77       6.93513      0.20629          7.14142  -0.14239     7   %  0.2893
     112       6.83598      0.28828          7.12426  -0.15955     8   %  0.3393
     148       6.69787      0.36458          7.06245  -0.22136     9   %  0.3867
     190       6.53976      0.44504          6.98480  -0.29901    10   %  0.4368
     250       6.44515      0.52198          6.96713  -0.31668    11   %  0.4850
     302       6.23598      0.59870          6.83469  -0.44913    12   %  0.5337
     344       6.01413      0.67039          6.68452  -0.59929    13   %  0.5819
     399       5.87149      0.73751          6.60900  -0.67481    14   %  0.6302
     447       5.75289      0.80020          6.55309  -0.73072    15   %  0.6783
     508       5.57268      0.85890          6.43158  -0.85223    16   %  0.7262
     552       5.80640      0.91475          6.72115  -0.56266    17   %  0.7739


           POTENTIAL ENERGY HAS STOPPED DROPPING

           INITIAL VELOCITY IN DRC (Angstroms/Femtosecond)
         0.00740         0.00165        -0.00036
        -0.00302        -0.02345        -0.00185
         0.04276        -0.00292         0.04623
        -0.00857         0.00770        -0.00133
        -0.00010         0.00768        -0.00433
        -0.01066        -0.00308        -0.01016
         0.00433         0.00585        -0.00322
        -0.42397         0.18447        -0.23131
         0.00382        -0.00554         0.00241
         0.02471        -0.00415        -0.19823
         0.00256        -0.00284        -0.00150
        -0.01288         0.04535        -0.01345
        -0.00052        -0.02255         0.00968
        -0.05109         0.00931        -0.03124

 GEOMETRY PRIORITY, STEP = 0.0500 ANGSTROMS



     POINT   POTENTIAL  +  ENERGY LOST   =   TOTAL      ERROR    REF%   MOVEMENT
       1       7.48795      0.00000          7.48795   0.00000     1   %  0.0000
       1       7.42228      0.00000          7.42228  -0.19128     2   %  0.0501
       1       7.33209      0.00000          7.33209  -0.24351     3   %  0.1004
       2       7.27368      0.00000          7.27368  -0.21427     4   %  0.1274
       5       7.04570      0.11893          7.16463  -0.10905     5   %  0.1948
      12       6.79422      0.35274          7.14695  -0.12673     6   %  0.2414
      28       6.49364      0.61189          7.10553  -0.16815     7   %  0.2842
      44       6.06491      0.96761          7.03252  -0.24116     8   %  0.3352
      55       5.67964      1.33397          7.01360  -0.26008     9   %  0.3822
      78       5.16838      1.78753          6.95591  -0.31777    10   %  0.4353
     103       4.68931      2.22821          6.91752  -0.35616    11   %  0.4836
     118       4.23823      2.67512          6.91335  -0.36033    12   %  0.5298
     137       3.70662      3.17336          6.87998  -0.39370    13   %  0.5791
     149       3.15647      3.68867          6.84513  -0.42855    14   %  0.6280
     166       2.61377      4.22129          6.83506  -0.43862    15   %  0.6764
     181       2.06068      4.75718          6.81786  -0.45582    16   %  0.7233
     199       1.50035      5.28811          6.78846  -0.48522    17   %  0.7686
     216       0.90993      5.84968          6.75961  -0.51407    18   %  0.8154
     234       0.31614      6.40384          6.71998  -0.55370    19   %  0.8609
     255      -0.26719      6.96503          6.69785  -0.57583    20   %  0.9067
     281      -0.77113      7.52873          6.75761  -0.51607    21   %  0.9529
     308      -1.28386      8.08201          6.79815  -0.47554    22   %  0.9984
     314      -1.72950      8.51744          6.78794  -0.48574    23   %  1.0349
     322      -2.32940      9.09823          6.76883  -0.50485    24   %  1.0848
     329      -2.87424      9.62775          6.75351  -0.52017    25   %  1.1323
     334      -3.31864     10.05171          6.73307  -0.54061    26   %  1.1722
     340      -3.77598     10.50364          6.72766  -0.54602    27   %  1.2171
     356      -4.14654     10.93248          6.78595  -0.48773    28   %  1.2627
     370      -4.50756     11.31493          6.80737  -0.46631    29   %  1.3062
     379      -4.84282     11.67330          6.83048  -0.44320    30   %  1.3501
     382      -5.11539     11.94394          6.82855  -0.44513    31   %  1.3858
     385      -5.49732     12.32354          6.82623  -0.44746    32   %  1.4404
     392      -5.73635     12.55123          6.81488  -0.45880    33   %  1.4773
     396      -5.98077     12.81683          6.83606  -0.43762    34   %  1.5243
     411      -6.04004     13.05851          7.01848  -0.25520    35   %  1.5716
     417      -6.20289     13.24107          7.03818  -0.23550    36   %  1.6099
     423      -6.37539     13.42301          7.04762  -0.22606    37   %  1.6507
     431      -6.57260     13.62533          7.05273  -0.22095    38   %  1.6985
     442      -6.73681     13.78261          7.04580  -0.22788    39   %  1.7374
     452      -6.91035     13.95190          7.04155  -0.23213    40   %  1.7804
     460      -7.04786     14.10745          7.05959  -0.21409    41   %  1.8212
     469      -7.21051     14.27178          7.06127  -0.21241    42   %  1.8660
     475      -7.34145     14.41730          7.07585  -0.19783    43   %  1.9073
     478      -7.44172     14.51638          7.07467  -0.19902    44   %  1.9363
     485      -7.55970     14.67839          7.11869  -0.15499    45   %  1.9856
     491      -7.65485     14.77870          7.12385  -0.14983    46   %  2.0171
     499      -7.77662     14.90515          7.12852  -0.14516    47   %  2.0589
     503      -7.86425     14.99806          7.13381  -0.13987    48   %  2.0907
     509      -8.02723     15.10232          7.07509  -0.19859    49   %  2.1277
     513      -8.11234     15.19057          7.07822  -0.19546    50   %  2.1605
     516      -8.19741     15.27114          7.07372  -0.19996    51   %  2.1919
     521      -8.26243     15.34703          7.08460  -0.18908    52   %  2.2231
     534      -8.36151     15.41561          7.05410  -0.21958    53   %  2.2525
     547      -8.43475     15.49063          7.05588  -0.21780    54   %  2.2864
     552      -8.48695     15.56538          7.07843  -0.19526    55   %  2.3221
     556      -8.55023     15.62940          7.07916  -0.19452    56   %  2.3541
     558      -8.61327     15.69168          7.07841  -0.19527    57   %  2.3867
     561      -8.66339     15.75053          7.08714  -0.18654    58   %  2.4192
     563      -8.71304     15.80633          7.09330  -0.18039    59   %  2.4514
     566      -8.75468     15.84674          7.09206  -0.18162    60   %  2.4759
     572      -8.79831     15.91159          7.11329  -0.16039    61   %  2.5166
     576      -8.87049     15.96315          7.09266  -0.18102    62   %  2.5503
     586      -8.90998     16.01247          7.10249  -0.17120    63   %  2.5841
     593      -8.94790     16.05769          7.10979  -0.16389    64   %  2.6160
     599      -8.99638     16.10828          7.11191  -0.16177    65   %  2.6532
     607      -9.01279     16.15048          7.13769  -0.13599    66   %  2.6862
     613      -9.06323     16.19417          7.13094  -0.14274    67   %  2.7222
     617      -9.09568     16.22619          7.13052  -0.14316    68   %  2.7493
     635      -9.21391     16.27130          7.05740  -0.21629    69   %  2.7889
     641      -9.25034     16.31416          7.06383  -0.20985    70   %  2.8280
     648      -9.28166     16.35216          7.07050  -0.20318    71   %  2.8640
     653      -9.30800     16.38668          7.07868  -0.19501    72   %  2.8979
     670      -9.33762     16.42483          7.08721  -0.18647    73   %  2.9363
     675      -9.36857     16.45971          7.09114  -0.18254    74   %  2.9722
     682      -9.39869     16.49398          7.09530  -0.17838    75   %  3.0090
     688      -9.41491     16.52731          7.11240  -0.16128    76   %  3.0456
     695      -9.44122     16.55925          7.11803  -0.15565    77   %  3.0817
     699      -9.47064     16.59080          7.12017  -0.15351    78   %  3.1185
     702      -9.48461     16.61295          7.12834  -0.14534    79   %  3.1445
     713      -9.69062     16.65013          6.95951  -0.31417    80   %  3.1889
     727      -9.73467     16.68038          6.94571  -0.32797    81   %  3.2257


 IRC CALCULATION COMPLETE 

 ******************************************************************************
 *                                                                            *
 *     Error and normal termination messages reported in this calculation     *
 *                                                                            *
 * in FORMD                                                                   *
 * JOB ENDED NORMALLY                                                         *
 *                                                                            *
 ******************************************************************************



 TOTAL JOB TIME:            20.55 SECONDS

 == MOPAC DONE ==
