 *******************************************************************************
 ** Site#: 37037        For non-commercial use only           Version 21.158W **
 *******************************************************************************
 ** Cite this program as: MOPAC2016, Version: 21.158W, James J. P. Stewart,   **
 ** Stewart Computational Chemistry, web: HTTP://OpenMOPAC.net. Days left: 358**
 *******************************************************************************
 **                                                                           **
 **                                MOPAC2016                                  **
 **                                                                           **
 *******************************************************************************

                              PM7 CALCULATION RESULTS

 *******************************************************************************
 *  CALCULATION DONE:                                Mon Jun 14 10:21:06 2021  *
 *  GEO_DAT    - DATA SET GEOMETRY IS IN FILE "LOCATE-TS bias=10.0 first.mop"
 *  GEO_REF    - REFERENCE GEOMETRY IS IN FILE "LOCATE-TS bias=10.0 second.mop"
 *               (NO BIAS TOWARDS THE REFERENCE GEOMETRY WILL BE APPLIED)
 *
 *
 *
 *                 CHARGE ON SYSTEM = +1
 *
 *
 *
 *  EPS=78.4   - USE ANDREAS KLAMT'S COSMO IMPLICIT SOLVATION MODEL
 *  SADDLE     - TRANSITION STATE TO BE OPTIMIZED
 *  T=         - A TIME OF 172800.0 SECONDS REQUESTED
 *  DUMP=N     - RESTART FILE WRITTEN EVERY 7200.0 SECONDS REQUESTED
 *  BAR=       - REDUCE BAR LENGTH BY A MAX. OF   0.01
 *  HTML       - WRITE HTML SCRIPT TO READ PDB FILE USING JSMOL
 *******************************************************************************
geo_dat="LOCATE-TS bias=10.0 first.mop" geo_ref="LOCATE-TS bias=10.0 second.mop" saddle  html  bar=0.01 eps=78.4 charge=1
 Locating Keto-Enol transition state for acetone using SADDLE

   ATOM                 CHEMICAL                   X               Y               Z
  NUMBER                 SYMBOL               (ANGSTROMS)     (ANGSTROMS)     (ANGSTROMS)
 
     1       C(HETATM    1  C1  HET A   1)    0.07058150  *  -0.19803696  *   0.12779892  *
     2       C(HETATM    2  C2  HET A   1)    1.40526215  *   0.37566226  *  -0.12743239  *
     3       C(HETATM    3  C3  HET A   1)    1.79628326  *   1.64978097  *  -0.03560755  *
     4       O(HETATM    4  O   HET A   1)    2.38961971  *  -0.45465734  *  -0.58107441  *
     5       H(HETATM    5 1H1  HET A   1)   -0.65875468  *   0.13445714  *  -0.63871899  *
     6       H(HETATM    6 2H1  HET A   1)    0.05207185  *  -1.29886880  *   0.10681413  *
     7       H(HETATM    7 3H1  HET A   1)   -0.33808642  *   0.12926035  *   1.09785946  *
     8       H(HETATM    8 1H   HET A   1)    3.84279904  *   0.61456403  *   0.10694435  *
     9       H(HETATM    9 1H3  HET A   1)    1.23006967  *   2.41925106  *   0.44070309  *
    10       H(HETATM   10 2H3  HET A   1)    2.68777462  *   2.02929915  *  -0.49043595  *
    11       O(HETATM   11  O   HOH B   2)    4.41991659  *  -0.19175677  *   0.49926005  *
    12       H(HETATM   12 2H   HOH B   2)    5.03091675  *  -0.51897691  *  -0.26336998  *
    13       H(HETATM   13  H   HOH B   2)    2.33815607  *  -1.39178089  *  -0.32711177  *
    14       H(HETATM   14 2H   HOH B   2)    5.07755848  *   0.31462545  *   1.08718308  *
 

                        After docking

                     Atoms that move a lot

                     Atom Label             GEO_REF Coordinates       Movement    Integral

            (HETATM   13  H   HOH B   2)   3.351  -0.677   0.041        1.27         1.27
            (HETATM    8 1H   HET A   1)   3.194   1.408   0.132        1.01         2.28
            (HETATM   10 2H3  HET A   1)   2.031   2.010  -0.994        0.78         3.07
            (HETATM    4  O   HET A   1)   2.210  -0.870   0.038        0.74         3.80
            (HETATM    9 1H3  HET A   1)   1.579   2.186   0.661        0.53         4.34
            (HETATM   12 2H   HOH B   2)   5.083  -0.990  -0.118        0.50         4.83
            (HETATM   11  O   HOH B   2)   4.584  -0.171   0.098        0.46         5.29
            (HETATM   14 2H   HOH B   2)   4.882   0.054   1.024        0.38         5.67
            (HETATM    6 2H1  HET A   1)  -0.160  -1.254  -0.106        0.34         6.02
            (HETATM    3  C3  HET A   1)   2.079   1.477  -0.039        0.34         6.36
            (HETATM    5 1H1  HET A   1)  -0.560   0.370  -0.738        0.31         6.67
            (HETATM    2  C2  HET A   1)   1.463   0.144  -0.022        0.25         6.92
            (HETATM    1  C1  HET A   1)   0.029  -0.169   0.021        0.13         7.05
            (HETATM    7 3H1  HET A   1)  -0.422   0.097   1.004        0.12         7.17

     Residues that move a lot and their (Movement in Angstroms, per atom)


   Difference between GEO_DAT and GEO_REF: 7.172 = total,  0.5123 = Average,  0.6042 = RMS, in Angstroms

 General Reference for PM7:
 "Optimization of Parameters for Semiempirical Methods VI: More Modifications to the 
 NDDO Approximations and Re-optimization of Parameters", J. J. P. Stewart, J. Mol. Mod., 1:32, 19 (2013)
 https://link.springer.com/article/10.1007/s00894-012-1667-x

           Empirical Formula: C3 H9 O2  =    14 atoms



      MOLECULAR POINT GROUP   :   C1  


      RHF CALCULATION, NO. OF DOUBLY OCCUPIED LEVELS = 16



  CARTESIAN GEOMETRY OF FIRST SYSTEM


   1    C          0.02917      -0.16941       0.02112
   2    C          1.46258       0.14352      -0.02170
   3    C          2.07905       1.47728      -0.03865
   4    O          2.21026      -0.87001       0.03825
   5    H         -0.55954       0.36965      -0.73751
   6    H         -0.15974      -1.25419      -0.10574
   7    H         -0.42198       0.09652       1.00429
   8    H          3.19383       1.40805       0.13182
   9    H          1.57931       2.18579       0.66077
  10    H          2.03102       2.00979      -0.99448
  11    O          4.58384      -0.17120       0.09818
  12    H          5.08252      -0.98996      -0.11818
  13    H          3.35138      -0.67721       0.04096
  14    H          4.88241       0.05418       1.02367


  CARTESIAN GEOMETRY OF SECOND SYSTEM


   1    C          0.07394      -0.21232       0.13098
   2    C          1.40569       0.36287      -0.13590
   3    C          1.78595       1.64260      -0.08686
   4    O          2.39964      -0.47492      -0.55347
   5    H         -0.65287       0.08681      -0.65151
   6    H          0.06433      -1.31332       0.14897
   7    H         -0.34380       0.14580       1.08618
   8    H          3.83963       0.62988       0.10545
   9    H          1.21046       2.42381       0.35820
  10    H          2.67741       2.01305      -0.54916
  11    O          4.42050      -0.15728       0.52983
  12    H          5.03918      -0.50632      -0.21677
  13    H          2.35393      -1.40284      -0.26673
  14    H          5.07015       0.37499       1.10361


   "DISTANCE":     2.260750


  REACTION COORDINATE VECTOR


   1    C         -0.04476       0.04291      -0.10986
   2    C          0.05689      -0.21936       0.11420
   3    C          0.29311      -0.16533       0.04821
   4    O         -0.18938      -0.39509       0.59172
   5    H          0.09333       0.28284      -0.08600
   6    H         -0.22406       0.05914      -0.25472
   7    H         -0.07818      -0.04927      -0.08188
   8    H         -0.64580       0.77818       0.02637
   9    H          0.36885      -0.23802       0.30257
  10    H         -0.64639      -0.00326      -0.44532
  11    O          0.16333      -0.01392      -0.43165
  12    H          0.04335      -0.48364       0.09860
  13    H          0.99745       0.72564       0.30770
  14    H         -0.18774      -0.32081      -0.07994
 *+*+*+*+*+*+*+*+*+*+*+*+*+*+*+*+*+*+*+*+*+*+*+*+*+*+*+*+*+*+*+*+*+*+*+*+*+*+*+*+
            BAR SHORTENED BY       0.000 PERCENT
 GRADIENT CRITERION IN FLEPO =     1.000
           THERE HAVE BEEN 3 ATTEMPTS TO REDUCE THE GRADIENT.
           DURING THESE ATTEMPTS THE ENERGY DROPPED BY LESS THAN 0.3 KCAL/MOLE
           FURTHER CALCULATION IS NOT JUSTIFIED AT THIS TIME.
           TO CONTINUE, START AGAIN WITH THE WORD "PRECISE"


          FOR POINT    1 SECOND STRUCTURE
 DISTANCE A - B      2.260750
 HEAT              -18.334401
 GRADIENT NORM       9.666542
 DIRECTION COSINE    0.000022
 html eps=78.4 charge=1
 Locating Keto-Enol transition state for acetone using SADDLE

  C(HETATM    1  C1  HET A   1)   0.00000000 +0    0.0000000 +0    0.0000000 +0
  C(HETATM    2  C2  HET A   1)   1.46488635 +1    0.0000000 +0    0.0000000 +0     1     0     0
  C(HETATM    3  C3  HET A   1)   1.46215211 +1  124.2837273 +1    0.0000000 +0     2     1     0
  O(HETATM    4  O   HET A   1)   1.27176325 +1  115.0907861 +1  179.9386831 +1     2     1     3
  H(HETATM    5 1H1  HET A   1)   1.10881450 +1  112.5688500 +1   57.9258589 +1     1     2     3
  H(HETATM    6 2H1  HET A   1)   1.10767539 +1  113.5045556 +1  179.4788716 +1     1     2     3
  H(HETATM    7 3H1  HET A   1)   1.11132319 +1  111.5180252 +1  -60.4659559 +1     1     2     3
  H(HETATM    8 1H   HET A   1)   1.11232432 +1  113.1312447 +1  155.9419766 +1     3     2     1
  H(HETATM    9 1H3  HET A   1)   1.10718174 +1  113.7773879 +1   31.9584085 +1     3     2     1
  H(HETATM   10 2H3  HET A   1)   1.11271393 +1  112.3989625 +1  -86.2101701 +1     3     2     1
  O(HETATM   11  O   HOH B   2)   2.26219848 +1  125.4402804 +1   30.1154455 +1     8     3     2
  H(HETATM   12 2H   HOH B   2)   0.98665691 +1  171.4377191 +1   38.0187187 +1    11     8     3
  H(HETATM   13  H   HOH B   2)   1.14552472 +1  115.7115436 +1 -173.1395701 +1     4     2     1
  H(HETATM   14 2H   HOH B   2)   0.98854466 +1   85.1197183 +1 -132.5174117 +1    11     8     3
 
 TIME=     0.41
  REACTANTS AND PRODUCTS SWAPPED AROUND
 *+*+*+*+*+*+*+*+*+*+*+*+*+*+*+*+*+*+*+*+*+*+*+*+*+*+*+*+*+*+*+*+*+*+*+*+*+*+*+*+
            BAR SHORTENED BY       1.000 PERCENT
 GRADIENT CRITERION IN FLEPO =     6.667


          FOR POINT    2 FIRST  STRUCTURE
 DISTANCE A - B      2.238143
 HEAT                8.167333
 GRADIENT NORM      19.661675
 DIRECTION COSINE    0.723894
 html eps=78.4 charge=1
 Locating Keto-Enol transition state for acetone using SADDLE

  C(HETATM    1  C1  HET A   1)   0.00000000 +0    0.0000000 +0    0.0000000 +0
  C(HETATM    2  C2  HET A   1)   1.47315626 +1    0.0000000 +0    0.0000000 +0     1     0     0
  C(HETATM    3  C3  HET A   1)   1.33484433 +1  127.6580803 +1    0.0000000 +0     2     1     0
  O(HETATM    4  O   HET A   1)   1.37351877 +1  116.5791111 +1 -172.2710463 +1     2     1     3
  H(HETATM    5 1H1  HET A   1)   1.10921786 +1  109.3743190 +1   68.6640405 +1     1     2     3
  H(HETATM    6 2H1  HET A   1)   1.10055969 +1  113.5660706 +1 -172.2315864 +1     1     2     3
  H(HETATM    7 3H1  HET A   1)   1.09982614 +1  112.7488559 +1  -48.9645612 +1     1     2     3
  H(HETATM    8 1H   HET A   1)   2.12031494 +1   90.1715054 +1 -153.5295570 +1     4     2     1
  H(HETATM    9 1H3  HET A   1)   1.08103774 +1  123.7259482 +1   10.9034281 +1     3     2     1
  H(HETATM   10 2H3  HET A   1)   1.07105254 +1  124.2700309 +1 -164.3958480 +1     3     2     1
  O(HETATM   11  O   HOH B   2)   1.05305464 +1   94.8510768 +1  132.7134338 +1     8     4     2
  H(HETATM   12 2H   HOH B   2)   1.03644341 +1  103.1207872 +1   85.1401118 +1    11     8     4
  H(HETATM   13  H   HOH B   2)   0.98523732 +1  113.9881761 +1  -52.3379492 +1     4     2     1
  H(HETATM   14 2H   HOH B   2)   1.03231878 +1  101.8989802 +1 -171.4738829 +1    11     8     4
 
 TIME=     0.24
  REACTANTS AND PRODUCTS SWAPPED AROUND
 *+*+*+*+*+*+*+*+*+*+*+*+*+*+*+*+*+*+*+*+*+*+*+*+*+*+*+*+*+*+*+*+*+*+*+*+*+*+*+*+
            BAR SHORTENED BY       1.000 PERCENT
 GRADIENT CRITERION IN FLEPO =    10.000


          FOR POINT    3 SECOND STRUCTURE
 DISTANCE A - B      2.215761
 HEAT              -18.101868
 GRADIENT NORM      16.281561
 DIRECTION COSINE    0.752662
 html eps=78.4 charge=1
 Locating Keto-Enol transition state for acetone using SADDLE

  C(HETATM    1  C1  HET A   1)   0.00000000 +0    0.0000000 +0    0.0000000 +0
  C(HETATM    2  C2  HET A   1)   1.46452268 +1    0.0000000 +0    0.0000000 +0     1     0     0
  C(HETATM    3  C3  HET A   1)   1.46076478 +1  124.3306809 +1    0.0000000 +0     2     1     0
  O(HETATM    4  O   HET A   1)   1.27181592 +1  115.0966810 +1 -179.9606200 +1     2     1     3
  H(HETATM    5 1H1  HET A   1)   1.10861855 +1  112.5338370 +1   58.0342868 +1     1     2     3
  H(HETATM    6 2H1  HET A   1)   1.10736733 +1  113.5036664 +1  179.5505342 +1     1     2     3
  H(HETATM    7 3H1  HET A   1)   1.11120212 +1  111.5323407 +1  -60.3553190 +1     1     2     3
  H(HETATM    8 1H   HET A   1)   1.12199256 +1  112.6006924 +1  156.1573268 +1     3     2     1
  H(HETATM    9 1H3  HET A   1)   1.10678180 +1  113.8698067 +1   31.7632056 +1     3     2     1
  H(HETATM   10 2H3  HET A   1)   1.10750841 +1  112.6591332 +1  -86.7563876 +1     3     2     1
  O(HETATM   11  O   HOH B   2)   2.24865274 +1  126.0216375 +1   29.7786518 +1     8     3     2
  H(HETATM   12 2H   HOH B   2)   0.98473385 +1  171.0616642 +1   40.5258392 +1    11     8     3
  H(HETATM   13  H   HOH B   2)   1.13408277 +1  116.2011663 +1 -172.6996279 +1     4     2     1
  H(HETATM   14 2H   HOH B   2)   0.98634539 +1   85.3108977 +1 -132.7991693 +1    11     8     3
 
 *+*+*+*+*+*+*+*+*+*+*+*+*+*+*+*+*+*+*+*+*+*+*+*+*+*+*+*+*+*+*+*+*+*+*+*+*+*+*+*+
            BAR SHORTENED BY       1.000 PERCENT
 GRADIENT CRITERION IN FLEPO =    10.000


          FOR POINT    4 SECOND STRUCTURE
 DISTANCE A - B      2.193603
 HEAT              -17.885783
 GRADIENT NORM      19.728652
 DIRECTION COSINE    0.415947
 html eps=78.4 charge=1
 Locating Keto-Enol transition state for acetone using SADDLE

  C(HETATM    1  C1  HET A   1)   0.00000000 +0    0.0000000 +0    0.0000000 +0
  C(HETATM    2  C2  HET A   1)   1.46422374 +1    0.0000000 +0    0.0000000 +0     1     0     0
  C(HETATM    3  C3  HET A   1)   1.46212311 +1  124.5370895 +1    0.0000000 +0     2     1     0
  O(HETATM    4  O   HET A   1)   1.26604189 +1  114.6113032 +1  178.4025822 +1     2     1     3
  H(HETATM    5 1H1  HET A   1)   1.10900734 +1  112.2849401 +1   59.5321260 +1     1     2     3
  H(HETATM    6 2H1  HET A   1)   1.10560500 +1  113.0900758 +1 -179.1186095 +1     1     2     3
  H(HETATM    7 3H1  HET A   1)   1.11425559 +1  111.8907355 +1  -58.9755967 +1     1     2     3
  H(HETATM    8 1H   HET A   1)   1.11361663 +1  112.6614534 +1  155.4516044 +1     3     2     1
  H(HETATM    9 1H3  HET A   1)   1.10800365 +1  114.0220539 +1   29.6127920 +1     3     2     1
  H(HETATM   10 2H3  HET A   1)   1.11208018 +1  112.1333613 +1  -88.2710347 +1     3     2     1
  O(HETATM   11  O   HOH B   2)   2.24466536 +1  126.7203626 +1   28.9145608 +1     8     3     2
  H(HETATM   12 2H   HOH B   2)   0.97815646 +1  170.6144136 +1   43.1412782 +1    11     8     3
  H(HETATM   13  H   HOH B   2)   1.13683597 +1  116.1059089 +1 -171.6467424 +1     4     2     1
  H(HETATM   14 2H   HOH B   2)   0.99125004 +1   85.7872349 +1 -133.1843905 +1    11     8     3
 
 *+*+*+*+*+*+*+*+*+*+*+*+*+*+*+*+*+*+*+*+*+*+*+*+*+*+*+*+*+*+*+*+*+*+*+*+*+*+*+*+
            BAR SHORTENED BY       1.000 PERCENT
 GRADIENT CRITERION IN FLEPO =    10.000


          FOR POINT    5 SECOND STRUCTURE
 DISTANCE A - B      2.171667
 HEAT              -17.783064
 GRADIENT NORM      13.251382
 DIRECTION COSINE    0.495464
 html eps=78.4 charge=1
 Locating Keto-Enol transition state for acetone using SADDLE

  C(HETATM    1  C1  HET A   1)   0.00000000 +0    0.0000000 +0    0.0000000 +0
  C(HETATM    2  C2  HET A   1)   1.46289832 +1    0.0000000 +0    0.0000000 +0     1     0     0
  C(HETATM    3  C3  HET A   1)   1.46117296 +1  124.9516054 +1    0.0000000 +0     2     1     0
  O(HETATM    4  O   HET A   1)   1.27462952 +1  114.5932217 +1  179.3810610 +1     2     1     3
  H(HETATM    5 1H1  HET A   1)   1.10852634 +1  112.9009856 +1   59.7519369 +1     1     2     3
  H(HETATM    6 2H1  HET A   1)   1.10946884 +1  113.0326653 +1 -179.0600566 +1     1     2     3
  H(HETATM    7 3H1  HET A   1)   1.11153040 +1  111.6705899 +1  -59.2214932 +1     1     2     3
  H(HETATM    8 1H   HET A   1)   1.11277341 +1  112.5112701 +1  155.4016743 +1     3     2     1
  H(HETATM    9 1H3  HET A   1)   1.10723326 +1  113.8295119 +1   29.6164602 +1     3     2     1
  H(HETATM   10 2H3  HET A   1)   1.11175890 +1  112.4833340 +1  -88.4070535 +1     3     2     1
  O(HETATM   11  O   HOH B   2)   2.23641355 +1  127.0381270 +1   29.3213679 +1     8     3     2
  H(HETATM   12 2H   HOH B   2)   0.98228154 +1  170.1291816 +1   44.9455694 +1    11     8     3
  H(HETATM   13  H   HOH B   2)   1.12441593 +1  116.2675045 +1 -171.1054567 +1     4     2     1
  H(HETATM   14 2H   HOH B   2)   0.98964330 +1   86.7871136 +1 -134.4154674 +1    11     8     3
 
 TIME=     0.15
  REACTANTS AND PRODUCTS SWAPPED AROUND
 *+*+*+*+*+*+*+*+*+*+*+*+*+*+*+*+*+*+*+*+*+*+*+*+*+*+*+*+*+*+*+*+*+*+*+*+*+*+*+*+
            BAR SHORTENED BY       0.000 PERCENT
 GRADIENT CRITERION IN FLEPO =    10.000


          FOR POINT    6 FIRST  STRUCTURE
 DISTANCE A - B      2.171667
 HEAT                8.164248
 GRADIENT NORM      16.969623
 DIRECTION COSINE    0.763206
 html eps=78.4 charge=1
 Locating Keto-Enol transition state for acetone using SADDLE

  C(HETATM    1  C1  HET A   1)   0.00000000 +0    0.0000000 +0    0.0000000 +0
  C(HETATM    2  C2  HET A   1)   1.47383269 +1    0.0000000 +0    0.0000000 +0     1     0     0
  C(HETATM    3  C3  HET A   1)   1.33634991 +1  127.6037316 +1    0.0000000 +0     2     1     0
  O(HETATM    4  O   HET A   1)   1.37397186 +1  116.5702028 +1 -172.2006433 +1     2     1     3
  H(HETATM    5 1H1  HET A   1)   1.10896559 +1  109.3993866 +1   68.6339907 +1     1     2     3
  H(HETATM    6 2H1  HET A   1)   1.10025693 +1  113.7133755 +1 -172.1894182 +1     1     2     3
  H(HETATM    7 3H1  HET A   1)   1.10068522 +1  112.7315127 +1  -49.0261643 +1     1     2     3
  H(HETATM    8 1H   HET A   1)   2.12138580 +1   90.1164857 +1 -153.4909566 +1     4     2     1
  H(HETATM    9 1H3  HET A   1)   1.07797359 +1  123.7241802 +1   10.9956431 +1     3     2     1
  H(HETATM   10 2H3  HET A   1)   1.07506939 +1  124.1138848 +1 -164.6086836 +1     3     2     1
  O(HETATM   11  O   HOH B   2)   1.05122087 +1   94.8919158 +1  132.8653524 +1     8     4     2
  H(HETATM   12 2H   HOH B   2)   1.03408847 +1  103.3922201 +1   84.9547011 +1    11     8     4
  H(HETATM   13  H   HOH B   2)   0.98608834 +1  113.8901013 +1  -52.4973274 +1     4     2     1
  H(HETATM   14 2H   HOH B   2)   1.02966539 +1  101.9817850 +1 -171.4068046 +1    11     8     4
 
 TIME=     0.09
  REACTANTS AND PRODUCTS SWAPPED AROUND
 *+*+*+*+*+*+*+*+*+*+*+*+*+*+*+*+*+*+*+*+*+*+*+*+*+*+*+*+*+*+*+*+*+*+*+*+*+*+*+*+
            BAR SHORTENED BY       1.000 PERCENT
 GRADIENT CRITERION IN FLEPO =    10.000


          FOR POINT    7 SECOND STRUCTURE
 DISTANCE A - B      2.149951
 HEAT              -17.475733
 GRADIENT NORM      19.387620
 DIRECTION COSINE    0.805164
 html eps=78.4 charge=1
 Locating Keto-Enol transition state for acetone using SADDLE

  C(HETATM    1  C1  HET A   1)   0.00000000 +0    0.0000000 +0    0.0000000 +0
  C(HETATM    2  C2  HET A   1)   1.46260154 +1    0.0000000 +0    0.0000000 +0     1     0     0
  C(HETATM    3  C3  HET A   1)   1.45980159 +1  124.9898527 +1    0.0000000 +0     2     1     0
  O(HETATM    4  O   HET A   1)   1.27471204 +1  114.6054745 +1  179.4837016 +1     2     1     3
  H(HETATM    5 1H1  HET A   1)   1.10837145 +1  112.8629927 +1   59.8440015 +1     1     2     3
  H(HETATM    6 2H1  HET A   1)   1.10917827 +1  113.0387119 +1 -178.9980743 +1     1     2     3
  H(HETATM    7 3H1  HET A   1)   1.11141700 +1  111.6833451 +1  -59.1209277 +1     1     2     3
  H(HETATM    8 1H   HET A   1)   1.12267921 +1  111.9925622 +1  155.6060133 +1     3     2     1
  H(HETATM    9 1H3  HET A   1)   1.10682410 +1  113.9203115 +1   29.4403571 +1     3     2     1
  H(HETATM   10 2H3  HET A   1)   1.10674904 +1  112.7447788 +1  -88.9439324 +1     3     2     1
  O(HETATM   11  O   HOH B   2)   2.22315039 +1  127.5953053 +1   28.9932301 +1     8     3     2
  H(HETATM   12 2H   HOH B   2)   0.98056538 +1  169.7223335 +1   46.8353686 +1    11     8     3
  H(HETATM   13  H   HOH B   2)   1.11343144 +1  116.7520451 +1 -170.6446348 +1     4     2     1
  H(HETATM   14 2H   HOH B   2)   0.98766515 +1   86.9664420 +1 -134.6710203 +1    11     8     3
 
 *+*+*+*+*+*+*+*+*+*+*+*+*+*+*+*+*+*+*+*+*+*+*+*+*+*+*+*+*+*+*+*+*+*+*+*+*+*+*+*+
            BAR SHORTENED BY       1.000 PERCENT
 GRADIENT CRITERION IN FLEPO =    10.000


          FOR POINT    8 SECOND STRUCTURE
 DISTANCE A - B      2.128451
 HEAT              -17.307458
 GRADIENT NORM      15.061497
 DIRECTION COSINE    0.774563
 html eps=78.4 charge=1
 Locating Keto-Enol transition state for acetone using SADDLE

  C(HETATM    1  C1  HET A   1)   0.00000000 +0    0.0000000 +0    0.0000000 +0
  C(HETATM    2  C2  HET A   1)   1.46125412 +1    0.0000000 +0    0.0000000 +0     1     0     0
  C(HETATM    3  C3  HET A   1)   1.46158782 +1  125.6185615 +1    0.0000000 +0     2     1     0
  O(HETATM    4  O   HET A   1)   1.27660957 +1  114.0540620 +1  179.1566704 +1     2     1     3
  H(HETATM    5 1H1  HET A   1)   1.10694238 +1  112.8852431 +1   60.5835752 +1     1     2     3
  H(HETATM    6 2H1  HET A   1)   1.11132938 +1  112.8929880 +1 -178.0145802 +1     1     2     3
  H(HETATM    7 3H1  HET A   1)   1.11334006 +1  111.6365853 +1  -58.4510132 +1     1     2     3
  H(HETATM    8 1H   HET A   1)   1.11290235 +1  112.3705826 +1  154.9480611 +1     3     2     1
  H(HETATM    9 1H3  HET A   1)   1.10877651 +1  113.7770533 +1   28.0207505 +1     3     2     1
  H(HETATM   10 2H3  HET A   1)   1.11381895 +1  112.7172114 +1  -89.9195394 +1     3     2     1
  O(HETATM   11  O   HOH B   2)   2.22021356 +1  127.8809480 +1   28.8885266 +1     8     3     2
  H(HETATM   12 2H   HOH B   2)   0.98286180 +1  169.0831325 +1   51.7973212 +1    11     8     3
  H(HETATM   13  H   HOH B   2)   1.11547346 +1  116.3745999 +1 -170.0431119 +1     4     2     1
  H(HETATM   14 2H   HOH B   2)   0.98787707 +1   87.0291985 +1 -135.4183795 +1    11     8     3
 
 *+*+*+*+*+*+*+*+*+*+*+*+*+*+*+*+*+*+*+*+*+*+*+*+*+*+*+*+*+*+*+*+*+*+*+*+*+*+*+*+
            BAR SHORTENED BY       1.000 PERCENT
 GRADIENT CRITERION IN FLEPO =    10.000


          FOR POINT    9 SECOND STRUCTURE
 DISTANCE A - B      2.107167
 HEAT              -16.971257
 GRADIENT NORM      19.835219
 DIRECTION COSINE    0.890736
 html eps=78.4 charge=1
 Locating Keto-Enol transition state for acetone using SADDLE

  C(HETATM    1  C1  HET A   1)   0.00000000 +0    0.0000000 +0    0.0000000 +0
  C(HETATM    2  C2  HET A   1)   1.46100309 +1    0.0000000 +0    0.0000000 +0     1     0     0
  C(HETATM    3  C3  HET A   1)   1.46020227 +1  125.6494978 +1    0.0000000 +0     2     1     0
  O(HETATM    4  O   HET A   1)   1.27671042 +1  114.0725301 +1  179.2585213 +1     2     1     3
  H(HETATM    5 1H1  HET A   1)   1.10681813 +1  112.8474338 +1   60.6690950 +1     1     2     3
  H(HETATM    6 2H1  HET A   1)   1.11103960 +1  112.9011055 +1 -177.9603223 +1     1     2     3
  H(HETATM    7 3H1  HET A   1)   1.11320958 +1  111.6498893 +1  -58.3562994 +1     1     2     3
  H(HETATM    8 1H   HET A   1)   1.12292254 +1  111.8575649 +1  155.1489419 +1     3     2     1
  H(HETATM    9 1H3  HET A   1)   1.10836548 +1  113.8676013 +1   27.8570455 +1     3     2     1
  H(HETATM   10 2H3  HET A   1)   1.10894565 +1  112.9776328 +1  -90.4474773 +1     3     2     1
  O(HETATM   11  O   HOH B   2)   2.20712782 +1  128.4251284 +1   28.5617696 +1     8     3     2
  H(HETATM   12 2H   HOH B   2)   0.98129596 +1  168.6512718 +1   53.2262555 +1    11     8     3
  H(HETATM   13  H   HOH B   2)   1.10469580 +1  116.8563617 +1 -169.5718395 +1     4     2     1
  H(HETATM   14 2H   HOH B   2)   0.98602469 +1   87.2076555 +1 -135.6595321 +1    11     8     3
 
 TIME=     0.14
  REACTANTS AND PRODUCTS SWAPPED AROUND
 *+*+*+*+*+*+*+*+*+*+*+*+*+*+*+*+*+*+*+*+*+*+*+*+*+*+*+*+*+*+*+*+*+*+*+*+*+*+*+*+
            BAR SHORTENED BY       0.000 PERCENT
 GRADIENT CRITERION IN FLEPO =    10.000


          FOR POINT   10 FIRST  STRUCTURE
 DISTANCE A - B      2.107167
 HEAT                8.164248
 GRADIENT NORM      16.969497
 DIRECTION COSINE    0.770846
 html eps=78.4 charge=1
 Locating Keto-Enol transition state for acetone using SADDLE

  C(HETATM    1  C1  HET A   1)   0.00000000 +0    0.0000000 +0    0.0000000 +0
  C(HETATM    2  C2  HET A   1)   1.47383269 +1    0.0000000 +0    0.0000000 +0     1     0     0
  C(HETATM    3  C3  HET A   1)   1.33634991 +1  127.6037316 +1    0.0000000 +0     2     1     0
  O(HETATM    4  O   HET A   1)   1.37397186 +1  116.5702028 +1 -172.2006433 +1     2     1     3
  H(HETATM    5 1H1  HET A   1)   1.10896559 +1  109.3993866 +1   68.6339907 +1     1     2     3
  H(HETATM    6 2H1  HET A   1)   1.10025693 +1  113.7133755 +1 -172.1894182 +1     1     2     3
  H(HETATM    7 3H1  HET A   1)   1.10068522 +1  112.7315127 +1  -49.0261643 +1     1     2     3
  H(HETATM    8 1H   HET A   1)   2.12138580 +1   90.1164857 +1 -153.4909566 +1     4     2     1
  H(HETATM    9 1H3  HET A   1)   1.07797359 +1  123.7241802 +1   10.9956431 +1     3     2     1
  H(HETATM   10 2H3  HET A   1)   1.07506939 +1  124.1138848 +1 -164.6086836 +1     3     2     1
  O(HETATM   11  O   HOH B   2)   1.05122087 +1   94.8919158 +1  132.8653524 +1     8     4     2
  H(HETATM   12 2H   HOH B   2)   1.03408847 +1  103.3922201 +1   84.9547011 +1    11     8     4
  H(HETATM   13  H   HOH B   2)   0.98608834 +1  113.8901013 +1  -52.4973274 +1     4     2     1
  H(HETATM   14 2H   HOH B   2)   1.02966539 +1  101.9817850 +1 -171.4068046 +1    11     8     4
 
 TIME=     0.03
  REACTANTS AND PRODUCTS SWAPPED AROUND
 *+*+*+*+*+*+*+*+*+*+*+*+*+*+*+*+*+*+*+*+*+*+*+*+*+*+*+*+*+*+*+*+*+*+*+*+*+*+*+*+
            BAR SHORTENED BY       1.000 PERCENT
 GRADIENT CRITERION IN FLEPO =    10.000


          FOR POINT   11 SECOND STRUCTURE
 DISTANCE A - B      2.086095
 HEAT              -16.726381
 GRADIENT NORM      17.857765
 DIRECTION COSINE    0.770090
 html eps=78.4 charge=1
 Locating Keto-Enol transition state for acetone using SADDLE

  C(HETATM    1  C1  HET A   1)   0.00000000 +0    0.0000000 +0    0.0000000 +0
  C(HETATM    2  C2  HET A   1)   1.46286177 +1    0.0000000 +0    0.0000000 +0     1     0     0
  C(HETATM    3  C3  HET A   1)   1.45984075 +1  126.0719990 +1    0.0000000 +0     2     1     0
  O(HETATM    4  O   HET A   1)   1.27788154 +1  113.5713873 +1  179.2754914 +1     2     1     3
  H(HETATM    5 1H1  HET A   1)   1.10846917 +1  112.8708748 +1   61.3977924 +1     1     2     3
  H(HETATM    6 2H1  HET A   1)   1.10875770 +1  112.8639105 +1 -177.4347853 +1     1     2     3
  H(HETATM    7 3H1  HET A   1)   1.11751159 +1  111.6235867 +1  -58.0763581 +1     1     2     3
  H(HETATM    8 1H   HET A   1)   1.11680940 +1  111.8681511 +1  154.4742295 +1     3     2     1
  H(HETATM    9 1H3  HET A   1)   1.11092202 +1  113.7974558 +1   26.7965558 +1     3     2     1
  H(HETATM   10 2H3  HET A   1)   1.11179701 +1  113.0689205 +1  -91.0889737 +1     3     2     1
  O(HETATM   11  O   HOH B   2)   2.20191972 +1  128.7346549 +1   28.9210429 +1     8     3     2
  H(HETATM   12 2H   HOH B   2)   0.97790986 +1  168.0842016 +1   53.2751554 +1    11     8     3
  H(HETATM   13  H   HOH B   2)   1.10243906 +1  116.5680606 +1 -168.6452766 +1     4     2     1
  H(HETATM   14 2H   HOH B   2)   0.98332846 +1   87.3595846 +1 -136.6716641 +1    11     8     3
 
 *+*+*+*+*+*+*+*+*+*+*+*+*+*+*+*+*+*+*+*+*+*+*+*+*+*+*+*+*+*+*+*+*+*+*+*+*+*+*+*+
            BAR SHORTENED BY       1.000 PERCENT
 GRADIENT CRITERION IN FLEPO =    10.000


          FOR POINT   12 SECOND STRUCTURE
 DISTANCE A - B      2.065234
 HEAT              -16.312476
 GRADIENT NORM      23.524032
 DIRECTION COSINE    0.934616
 html eps=78.4 charge=1
 Locating Keto-Enol transition state for acetone using SADDLE

  C(HETATM    1  C1  HET A   1)   0.00000000 +0    0.0000000 +0    0.0000000 +0
  C(HETATM    2  C2  HET A   1)   1.46261627 +1    0.0000000 +0    0.0000000 +0     1     0     0
  C(HETATM    3  C3  HET A   1)   1.45846590 +1  126.0977200 +1    0.0000000 +0     2     1     0
  O(HETATM    4  O   HET A   1)   1.27800655 +1  113.5955537 +1  179.3744185 +1     2     1     3
  H(HETATM    5 1H1  HET A   1)   1.10834379 +1  112.8334271 +1   61.4759770 +1     1     2     3
  H(HETATM    6 2H1  HET A   1)   1.10850429 +1  112.8721185 +1 -177.3846899 +1     1     2     3
  H(HETATM    7 3H1  HET A   1)   1.11734052 +1  111.6374132 +1  -57.9844655 +1     1     2     3
  H(HETATM    8 1H   HET A   1)   1.12691097 +1  111.3681873 +1  154.6746603 +1     3     2     1
  H(HETATM    9 1H3  HET A   1)   1.11050163 +1  113.8874955 +1   26.6430340 +1     3     2     1
  H(HETATM   10 2H3  HET A   1)   1.10707530 +1  113.3275483 +1  -91.6119439 +1     3     2     1
  O(HETATM   11  O   HOH B   2)   2.18902580 +1  129.2641854 +1   28.5922832 +1     8     3     2
  H(HETATM   12 2H   HOH B   2)   0.97649610 +1  167.6502208 +1   54.5356120 +1    11     8     3
  H(HETATM   13  H   HOH B   2)   1.09196979 +1  117.0459388 +1 -168.1591589 +1     4     2     1
  H(HETATM   14 2H   HOH B   2)   0.98161836 +1   87.5365280 +1 -136.8972485 +1    11     8     3
 
 *+*+*+*+*+*+*+*+*+*+*+*+*+*+*+*+*+*+*+*+*+*+*+*+*+*+*+*+*+*+*+*+*+*+*+*+*+*+*+*+
            BAR SHORTENED BY       1.000 PERCENT
 GRADIENT CRITERION IN FLEPO =    10.000


          FOR POINT   13 SECOND STRUCTURE
 DISTANCE A - B      2.044582
 HEAT              -16.083853
 GRADIENT NORM      24.399444
 DIRECTION COSINE    0.870241
 html eps=78.4 charge=1
 Locating Keto-Enol transition state for acetone using SADDLE

  C(HETATM    1  C1  HET A   1)   0.00000000 +0    0.0000000 +0    0.0000000 +0
  C(HETATM    2  C2  HET A   1)   1.46329256 +1    0.0000000 +0    0.0000000 +0     1     0     0
  C(HETATM    3  C3  HET A   1)   1.45674599 +1  126.2559579 +1    0.0000000 +0     2     1     0
  O(HETATM    4  O   HET A   1)   1.27453060 +1  113.1346924 +1  177.8943628 +1     2     1     3
  H(HETATM    5 1H1  HET A   1)   1.10830732 +1  112.6308918 +1   62.9899452 +1     1     2     3
  H(HETATM    6 2H1  HET A   1)   1.11074643 +1  112.6478474 +1 -176.3851464 +1     1     2     3
  H(HETATM    7 3H1  HET A   1)   1.11174789 +1  112.0896150 +1  -56.7913053 +1     1     2     3
  H(HETATM    8 1H   HET A   1)   1.12535927 +1  111.4142553 +1  153.6811328 +1     3     2     1
  H(HETATM    9 1H3  HET A   1)   1.10799307 +1  114.2593385 +1   24.7568159 +1     3     2     1
  H(HETATM   10 2H3  HET A   1)   1.11029218 +1  113.0151676 +1  -92.9284475 +1     3     2     1
  O(HETATM   11  O   HOH B   2)   2.18014189 +1  129.6748135 +1   28.2455565 +1     8     3     2
  H(HETATM   12 2H   HOH B   2)   0.97375154 +1  167.1726274 +1   56.2294254 +1    11     8     3
  H(HETATM   13  H   HOH B   2)   1.09282002 +1  116.9242584 +1 -167.2603070 +1     4     2     1
  H(HETATM   14 2H   HOH B   2)   0.98191654 +1   87.8148723 +1 -137.5576998 +1    11     8     3
 
 TIME=     0.18
  REACTANTS AND PRODUCTS SWAPPED AROUND
 *+*+*+*+*+*+*+*+*+*+*+*+*+*+*+*+*+*+*+*+*+*+*+*+*+*+*+*+*+*+*+*+*+*+*+*+*+*+*+*+
            BAR SHORTENED BY       0.000 PERCENT
 GRADIENT CRITERION IN FLEPO =    10.000


          FOR POINT   14 FIRST  STRUCTURE
 DISTANCE A - B      2.044582
 HEAT                8.164248
 GRADIENT NORM      16.969496
 DIRECTION COSINE    0.720643
 html eps=78.4 charge=1
 Locating Keto-Enol transition state for acetone using SADDLE

  C(HETATM    1  C1  HET A   1)   0.00000000 +0    0.0000000 +0    0.0000000 +0
  C(HETATM    2  C2  HET A   1)   1.47383269 +1    0.0000000 +0    0.0000000 +0     1     0     0
  C(HETATM    3  C3  HET A   1)   1.33634991 +1  127.6037316 +1    0.0000000 +0     2     1     0
  O(HETATM    4  O   HET A   1)   1.37397186 +1  116.5702028 +1 -172.2006433 +1     2     1     3
  H(HETATM    5 1H1  HET A   1)   1.10896559 +1  109.3993866 +1   68.6339907 +1     1     2     3
  H(HETATM    6 2H1  HET A   1)   1.10025693 +1  113.7133755 +1 -172.1894182 +1     1     2     3
  H(HETATM    7 3H1  HET A   1)   1.10068522 +1  112.7315127 +1  -49.0261643 +1     1     2     3
  H(HETATM    8 1H   HET A   1)   2.12138580 +1   90.1164857 +1 -153.4909566 +1     4     2     1
  H(HETATM    9 1H3  HET A   1)   1.07797359 +1  123.7241802 +1   10.9956431 +1     3     2     1
  H(HETATM   10 2H3  HET A   1)   1.07506939 +1  124.1138848 +1 -164.6086836 +1     3     2     1
  O(HETATM   11  O   HOH B   2)   1.05122087 +1   94.8919158 +1  132.8653524 +1     8     4     2
  H(HETATM   12 2H   HOH B   2)   1.03408847 +1  103.3922201 +1   84.9547011 +1    11     8     4
  H(HETATM   13  H   HOH B   2)   0.98608834 +1  113.8901013 +1  -52.4973274 +1     4     2     1
  H(HETATM   14 2H   HOH B   2)   1.02966539 +1  101.9817850 +1 -171.4068046 +1    11     8     4
 
 TIME=     0.03
  REACTANTS AND PRODUCTS SWAPPED AROUND
 *+*+*+*+*+*+*+*+*+*+*+*+*+*+*+*+*+*+*+*+*+*+*+*+*+*+*+*+*+*+*+*+*+*+*+*+*+*+*+*+
            BAR SHORTENED BY       1.000 PERCENT
 GRADIENT CRITERION IN FLEPO =    10.000


          FOR POINT   15 SECOND STRUCTURE
 DISTANCE A - B      2.024136
 HEAT              -15.870817
 GRADIENT NORM      24.015119
 DIRECTION COSINE    0.622810
 html eps=78.4 charge=1
 Locating Keto-Enol transition state for acetone using SADDLE

  C(HETATM    1  C1  HET A   1)   0.00000000 +0    0.0000000 +0    0.0000000 +0
  C(HETATM    2  C2  HET A   1)   1.45952577 +1    0.0000000 +0    0.0000000 +0     1     0     0
  C(HETATM    3  C3  HET A   1)   1.45933293 +1  127.0031532 +1    0.0000000 +0     2     1     0
  O(HETATM    4  O   HET A   1)   1.28306448 +1  112.9346343 +1  179.0216855 +1     2     1     3
  H(HETATM    5 1H1  HET A   1)   1.11846300 +1  113.3215364 +1   62.6393861 +1     1     2     3
  H(HETATM    6 2H1  HET A   1)   1.11187563 +1  112.8287070 +1 -176.3120438 +1     1     2     3
  H(HETATM    7 3H1  HET A   1)   1.11071828 +1  111.7342495 +1  -56.6337303 +1     1     2     3
  H(HETATM    8 1H   HET A   1)   1.11366360 +1  111.0801647 +1  152.9703647 +1     3     2     1
  H(HETATM    9 1H3  HET A   1)   1.10751168 +1  113.8724796 +1   24.9271026 +1     3     2     1
  H(HETATM   10 2H3  HET A   1)   1.11018308 +1  113.4251052 +1  -92.9627702 +1     3     2     1
  O(HETATM   11  O   HOH B   2)   2.17554913 +1  130.2770735 +1   29.7793458 +1     8     3     2
  H(HETATM   12 2H   HOH B   2)   0.96362056 +1  166.3723853 +1   57.8370662 +1    11     8     3
  H(HETATM   13  H   HOH B   2)   1.08526005 +1  116.8273862 +1 -166.7028917 +1     4     2     1
  H(HETATM   14 2H   HOH B   2)   0.97781741 +1   88.2229953 +1 -139.4371823 +1    11     8     3
 
 *+*+*+*+*+*+*+*+*+*+*+*+*+*+*+*+*+*+*+*+*+*+*+*+*+*+*+*+*+*+*+*+*+*+*+*+*+*+*+*+
            BAR SHORTENED BY       1.000 PERCENT
 GRADIENT CRITERION IN FLEPO =    10.000


          FOR POINT   16 SECOND STRUCTURE
 DISTANCE A - B      2.003895
 HEAT              -15.504632
 GRADIENT NORM      23.300175
 DIRECTION COSINE    0.731655
 html eps=78.4 charge=1
 Locating Keto-Enol transition state for acetone using SADDLE

  C(HETATM    1  C1  HET A   1)   0.00000000 +0    0.0000000 +0    0.0000000 +0
  C(HETATM    2  C2  HET A   1)   1.46306949 +1    0.0000000 +0    0.0000000 +0     1     0     0
  C(HETATM    3  C3  HET A   1)   1.45500846 +1  127.0718062 +1    0.0000000 +0     2     1     0
  O(HETATM    4  O   HET A   1)   1.28532103 +1  112.5503626 +1  178.7150318 +1     2     1     3
  H(HETATM    5 1H1  HET A   1)   1.10909005 +1  113.2334757 +1   63.2137958 +1     1     2     3
  H(HETATM    6 2H1  HET A   1)   1.11095019 +1  112.5713264 +1 -175.8542988 +1     1     2     3
  H(HETATM    7 3H1  HET A   1)   1.11233290 +1  111.8781372 +1  -56.4258271 +1     1     2     3
  H(HETATM    8 1H   HET A   1)   1.12994565 +1  111.1811344 +1  151.8719052 +1     3     2     1
  H(HETATM    9 1H3  HET A   1)   1.11094513 +1  114.2316387 +1   24.3528295 +1     3     2     1
  H(HETATM   10 2H3  HET A   1)   1.11045486 +1  113.7266345 +1  -93.8015741 +1     3     2     1
  O(HETATM   11  O   HOH B   2)   2.16126418 +1  129.5942848 +1   30.6770204 +1     8     3     2
  H(HETATM   12 2H   HOH B   2)   0.97217063 +1  166.2660226 +1   58.7239671 +1    11     8     3
  H(HETATM   13  H   HOH B   2)   1.08099749 +1  116.5151976 +1 -166.3536042 +1     4     2     1
  H(HETATM   14 2H   HOH B   2)   0.98265594 +1   88.1249511 +1 -141.0623797 +1    11     8     3
 
 *+*+*+*+*+*+*+*+*+*+*+*+*+*+*+*+*+*+*+*+*+*+*+*+*+*+*+*+*+*+*+*+*+*+*+*+*+*+*+*+
            BAR SHORTENED BY       1.000 PERCENT
 GRADIENT CRITERION IN FLEPO =    10.000


          FOR POINT   17 SECOND STRUCTURE
 DISTANCE A - B      1.983856
 HEAT              -15.294067
 GRADIENT NORM      24.745136
 DIRECTION COSINE    0.764641
 html eps=78.4 charge=1
 Locating Keto-Enol transition state for acetone using SADDLE

  C(HETATM    1  C1  HET A   1)   0.00000000 +0    0.0000000 +0    0.0000000 +0
  C(HETATM    2  C2  HET A   1)   1.46340004 +1    0.0000000 +0    0.0000000 +0     1     0     0
  C(HETATM    3  C3  HET A   1)   1.44884848 +1  127.2322323 +1    0.0000000 +0     2     1     0
  O(HETATM    4  O   HET A   1)   1.28037324 +1  112.5723273 +1  177.1677128 +1     2     1     3
  H(HETATM    5 1H1  HET A   1)   1.10863280 +1  113.1485364 +1   64.6773326 +1     1     2     3
  H(HETATM    6 2H1  HET A   1)   1.11041519 +1  112.4342583 +1 -174.6571654 +1     1     2     3
  H(HETATM    7 3H1  HET A   1)   1.11075980 +1  112.0813090 +1  -55.1571149 +1     1     2     3
  H(HETATM    8 1H   HET A   1)   1.12083270 +1  111.3226637 +1  151.0757975 +1     3     2     1
  H(HETATM    9 1H3  HET A   1)   1.11480179 +1  114.4032825 +1   22.4515367 +1     3     2     1
  H(HETATM   10 2H3  HET A   1)   1.11649066 +1  113.6497908 +1  -94.8216761 +1     3     2     1
  O(HETATM   11  O   HOH B   2)   2.14773961 +1  130.4509980 +1   30.2250014 +1     8     3     2
  H(HETATM   12 2H   HOH B   2)   0.96526666 +1  165.5890232 +1   59.6024790 +1    11     8     3
  H(HETATM   13  H   HOH B   2)   1.07937945 +1  116.8502202 +1 -165.3719896 +1     4     2     1
  H(HETATM   14 2H   HOH B   2)   0.98055237 +1   88.6812292 +1 -141.5592741 +1    11     8     3
 
 TIME=     0.21
  REACTANTS AND PRODUCTS SWAPPED AROUND
 *+*+*+*+*+*+*+*+*+*+*+*+*+*+*+*+*+*+*+*+*+*+*+*+*+*+*+*+*+*+*+*+*+*+*+*+*+*+*+*+
            BAR SHORTENED BY       0.000 PERCENT
 GRADIENT CRITERION IN FLEPO =    10.000


          FOR POINT   18 FIRST  STRUCTURE
 DISTANCE A - B      1.983856
 HEAT                8.164248
 GRADIENT NORM      16.969496
 DIRECTION COSINE    0.672195
 html eps=78.4 charge=1
 Locating Keto-Enol transition state for acetone using SADDLE

  C(HETATM    1  C1  HET A   1)   0.00000000 +0    0.0000000 +0    0.0000000 +0
  C(HETATM    2  C2  HET A   1)   1.47383269 +1    0.0000000 +0    0.0000000 +0     1     0     0
  C(HETATM    3  C3  HET A   1)   1.33634991 +1  127.6037316 +1    0.0000000 +0     2     1     0
  O(HETATM    4  O   HET A   1)   1.37397186 +1  116.5702028 +1 -172.2006433 +1     2     1     3
  H(HETATM    5 1H1  HET A   1)   1.10896559 +1  109.3993866 +1   68.6339907 +1     1     2     3
  H(HETATM    6 2H1  HET A   1)   1.10025693 +1  113.7133755 +1 -172.1894182 +1     1     2     3
  H(HETATM    7 3H1  HET A   1)   1.10068522 +1  112.7315127 +1  -49.0261643 +1     1     2     3
  H(HETATM    8 1H   HET A   1)   2.12138580 +1   90.1164857 +1 -153.4909566 +1     4     2     1
  H(HETATM    9 1H3  HET A   1)   1.07797359 +1  123.7241802 +1   10.9956431 +1     3     2     1
  H(HETATM   10 2H3  HET A   1)   1.07506939 +1  124.1138848 +1 -164.6086836 +1     3     2     1
  O(HETATM   11  O   HOH B   2)   1.05122087 +1   94.8919158 +1  132.8653524 +1     8     4     2
  H(HETATM   12 2H   HOH B   2)   1.03408847 +1  103.3922201 +1   84.9547011 +1    11     8     4
  H(HETATM   13  H   HOH B   2)   0.98608834 +1  113.8901013 +1  -52.4973274 +1     4     2     1
  H(HETATM   14 2H   HOH B   2)   1.02966539 +1  101.9817850 +1 -171.4068046 +1    11     8     4
 
 TIME=     0.03
  REACTANTS AND PRODUCTS SWAPPED AROUND
 *+*+*+*+*+*+*+*+*+*+*+*+*+*+*+*+*+*+*+*+*+*+*+*+*+*+*+*+*+*+*+*+*+*+*+*+*+*+*+*+
            BAR SHORTENED BY       1.000 PERCENT
 GRADIENT CRITERION IN FLEPO =    10.000


          FOR POINT   19 SECOND STRUCTURE
 DISTANCE A - B      1.964017
 HEAT              -14.982195
 GRADIENT NORM      23.769982
 DIRECTION COSINE    0.746010
 html eps=78.4 charge=1
 Locating Keto-Enol transition state for acetone using SADDLE

  C(HETATM    1  C1  HET A   1)   0.00000000 +0    0.0000000 +0    0.0000000 +0
  C(HETATM    2  C2  HET A   1)   1.46266044 +1    0.0000000 +0    0.0000000 +0     1     0     0
  C(HETATM    3  C3  HET A   1)   1.45590996 +1  127.4636900 +1    0.0000000 +0     2     1     0
  O(HETATM    4  O   HET A   1)   1.28278100 +1  112.3373808 +1  177.9513807 +1     2     1     3
  H(HETATM    5 1H1  HET A   1)   1.11013197 +1  113.4214334 +1   64.3785064 +1     1     2     3
  H(HETATM    6 2H1  HET A   1)   1.12398931 +1  112.1890595 +1 -174.5592735 +1     1     2     3
  H(HETATM    7 3H1  HET A   1)   1.11085636 +1  111.7848138 +1  -55.4102370 +1     1     2     3
  H(HETATM    8 1H   HET A   1)   1.12434445 +1  110.9843128 +1  151.0583046 +1     3     2     1
  H(HETATM    9 1H3  HET A   1)   1.10817059 +1  114.1756749 +1   22.6382192 +1     3     2     1
  H(HETATM   10 2H3  HET A   1)   1.11099720 +1  114.0797507 +1  -95.5374690 +1     3     2     1
  O(HETATM   11  O   HOH B   2)   2.13788723 +1  130.7917271 +1   30.5293827 +1     8     3     2
  H(HETATM   12 2H   HOH B   2)   0.97254503 +1  164.8718439 +1   59.9979971 +1    11     8     3
  H(HETATM   13  H   HOH B   2)   1.07825124 +1  116.8072957 +1 -165.3825476 +1     4     2     1
  H(HETATM   14 2H   HOH B   2)   0.97643978 +1   89.0374405 +1 -142.2754728 +1    11     8     3
 
 *+*+*+*+*+*+*+*+*+*+*+*+*+*+*+*+*+*+*+*+*+*+*+*+*+*+*+*+*+*+*+*+*+*+*+*+*+*+*+*+
            BAR SHORTENED BY       1.000 PERCENT
 GRADIENT CRITERION IN FLEPO =    10.000


          FOR POINT   20 SECOND STRUCTURE
 DISTANCE A - B      1.944377
 HEAT              -14.619877
 GRADIENT NORM      22.757774
 DIRECTION COSINE    0.851335
 html eps=78.4 charge=1
 Locating Keto-Enol transition state for acetone using SADDLE

  C(HETATM    1  C1  HET A   1)   0.00000000 +0    0.0000000 +0    0.0000000 +0
  C(HETATM    2  C2  HET A   1)   1.46339335 +1    0.0000000 +0    0.0000000 +0     1     0     0
  C(HETATM    3  C3  HET A   1)   1.45601428 +1  127.8222696 +1    0.0000000 +0     2     1     0
  O(HETATM    4  O   HET A   1)   1.28019504 +1  111.8369769 +1  178.0267897 +1     2     1     3
  H(HETATM    5 1H1  HET A   1)   1.10770848 +1  113.1210508 +1   64.8676260 +1     1     2     3
  H(HETATM    6 2H1  HET A   1)   1.11369693 +1  112.2834480 +1 -173.9353418 +1     1     2     3
  H(HETATM    7 3H1  HET A   1)   1.11284026 +1  111.6802668 +1  -54.5857177 +1     1     2     3
  H(HETATM    8 1H   HET A   1)   1.11945053 +1  111.0150214 +1  150.4295718 +1     3     2     1
  H(HETATM    9 1H3  HET A   1)   1.11004452 +1  114.2380533 +1   21.8624473 +1     3     2     1
  H(HETATM   10 2H3  HET A   1)   1.11075221 +1  114.1023459 +1  -96.3774586 +1     3     2     1
  O(HETATM   11  O   HOH B   2)   2.13532499 +1  131.0261843 +1   30.6766842 +1     8     3     2
  H(HETATM   12 2H   HOH B   2)   0.96777583 +1  164.4228831 +1   60.9025603 +1    11     8     3
  H(HETATM   13  H   HOH B   2)   1.07632400 +1  116.6994949 +1 -164.2629852 +1     4     2     1
  H(HETATM   14 2H   HOH B   2)   0.97762662 +1   89.2694534 +1 -142.9670297 +1    11     8     3
 
 *+*+*+*+*+*+*+*+*+*+*+*+*+*+*+*+*+*+*+*+*+*+*+*+*+*+*+*+*+*+*+*+*+*+*+*+*+*+*+*+
            BAR SHORTENED BY       1.000 PERCENT
 GRADIENT CRITERION IN FLEPO =    10.000


          FOR POINT   21 SECOND STRUCTURE
 DISTANCE A - B      1.924933
 HEAT              -14.302782
 GRADIENT NORM      23.447760
 DIRECTION COSINE    0.800037
 html eps=78.4 charge=1
 Locating Keto-Enol transition state for acetone using SADDLE

  C(HETATM    1  C1  HET A   1)   0.00000000 +0    0.0000000 +0    0.0000000 +0
  C(HETATM    2  C2  HET A   1)   1.46230581 +1    0.0000000 +0    0.0000000 +0     1     0     0
  C(HETATM    3  C3  HET A   1)   1.45417227 +1  128.0125475 +1    0.0000000 +0     2     1     0
  O(HETATM    4  O   HET A   1)   1.28889289 +1  111.9602398 +1  178.6117669 +1     2     1     3
  H(HETATM    5 1H1  HET A   1)   1.10997885 +1  113.2482135 +1   65.7030121 +1     1     2     3
  H(HETATM    6 2H1  HET A   1)   1.11194088 +1  112.4222508 +1 -173.5617422 +1     1     2     3
  H(HETATM    7 3H1  HET A   1)   1.11278801 +1  112.0885868 +1  -54.1328715 +1     1     2     3
  H(HETATM    8 1H   HET A   1)   1.12482143 +1  111.1634277 +1  149.8485867 +1     3     2     1
  H(HETATM    9 1H3  HET A   1)   1.10890417 +1  114.2316734 +1   21.3422294 +1     3     2     1
  H(HETATM   10 2H3  HET A   1)   1.11245816 +1  114.2030711 +1  -97.0647523 +1     3     2     1
  O(HETATM   11  O   HOH B   2)   2.12622261 +1  130.9655619 +1   30.7700041 +1     8     3     2
  H(HETATM   12 2H   HOH B   2)   0.96930619 +1  163.8201633 +1   62.3613694 +1    11     8     3
  H(HETATM   13  H   HOH B   2)   1.06949527 +1  116.5209292 +1 -162.8034222 +1     4     2     1
  H(HETATM   14 2H   HOH B   2)   0.97680428 +1   89.5223614 +1 -143.5576307 +1    11     8     3
 
 TIME=     0.20
  REACTANTS AND PRODUCTS SWAPPED AROUND
 *+*+*+*+*+*+*+*+*+*+*+*+*+*+*+*+*+*+*+*+*+*+*+*+*+*+*+*+*+*+*+*+*+*+*+*+*+*+*+*+
            BAR SHORTENED BY       0.000 PERCENT
 GRADIENT CRITERION IN FLEPO =    10.000


          FOR POINT   22 FIRST  STRUCTURE
 DISTANCE A - B      1.924933
 HEAT                8.128988
 GRADIENT NORM      16.974472
 DIRECTION COSINE    0.821666
 html eps=78.4 charge=1
 Locating Keto-Enol transition state for acetone using SADDLE

  C(HETATM    1  C1  HET A   1)   0.00000000 +0    0.0000000 +0    0.0000000 +0
  C(HETATM    2  C2  HET A   1)   1.47383269 +1    0.0000000 +0    0.0000000 +0     1     0     0
  C(HETATM    3  C3  HET A   1)   1.33634991 +1  127.6037316 +1    0.0000000 +0     2     1     0
  O(HETATM    4  O   HET A   1)   1.37397186 +1  116.5702028 +1 -172.2006433 +1     2     1     3
  H(HETATM    5 1H1  HET A   1)   1.10896559 +1  109.3993866 +1   68.6339907 +1     1     2     3
  H(HETATM    6 2H1  HET A   1)   1.10025693 +1  113.7133755 +1 -172.1894182 +1     1     2     3
  H(HETATM    7 3H1  HET A   1)   1.10068522 +1  112.7315127 +1  -49.0261643 +1     1     2     3
  H(HETATM    8 1H   HET A   1)   2.12138580 +1   90.1164857 +1 -153.4909566 +1     4     2     1
  H(HETATM    9 1H3  HET A   1)   1.07797359 +1  123.7241802 +1   10.9956431 +1     3     2     1
  H(HETATM   10 2H3  HET A   1)   1.07506939 +1  124.1138848 +1 -164.6086836 +1     3     2     1
  O(HETATM   11  O   HOH B   2)   1.05122087 +1   94.8919158 +1  132.8653524 +1     8     4     2
  H(HETATM   12 2H   HOH B   2)   1.03408847 +1  103.3922201 +1   84.9547011 +1    11     8     4
  H(HETATM   13  H   HOH B   2)   0.98608834 +1  113.8901013 +1  -52.4973274 +1     4     2     1
  H(HETATM   14 2H   HOH B   2)   1.02966539 +1  101.9817850 +1 -171.4068046 +1    11     8     4
 
 TIME=     0.03
  REACTANTS AND PRODUCTS SWAPPED AROUND
 *+*+*+*+*+*+*+*+*+*+*+*+*+*+*+*+*+*+*+*+*+*+*+*+*+*+*+*+*+*+*+*+*+*+*+*+*+*+*+*+
            BAR SHORTENED BY       1.000 PERCENT
 GRADIENT CRITERION IN FLEPO =    10.000


          FOR POINT   23 SECOND STRUCTURE
 DISTANCE A - B      1.905684
 HEAT              -13.847156
 GRADIENT NORM      24.693394
 DIRECTION COSINE    0.809993
 html eps=78.4 charge=1
 Locating Keto-Enol transition state for acetone using SADDLE

  C(HETATM    1  C1  HET A   1)   0.00000000 +0    0.0000000 +0    0.0000000 +0
  C(HETATM    2  C2  HET A   1)   1.46250136 +1    0.0000000 +0    0.0000000 +0     1     0     0
  C(HETATM    3  C3  HET A   1)   1.45476205 +1  127.9784479 +1    0.0000000 +0     2     1     0
  O(HETATM    4  O   HET A   1)   1.28479530 +1  111.9848161 +1  178.0960886 +1     2     1     3
  H(HETATM    5 1H1  HET A   1)   1.10930359 +1  113.6054405 +1   66.1918650 +1     1     2     3
  H(HETATM    6 2H1  HET A   1)   1.11214387 +1  112.2890527 +1 -172.9994985 +1     1     2     3
  H(HETATM    7 3H1  HET A   1)   1.11166566 +1  112.1079212 +1  -53.7836550 +1     1     2     3
  H(HETATM    8 1H   HET A   1)   1.12538867 +1  110.5784899 +1  149.6220925 +1     3     2     1
  H(HETATM    9 1H3  HET A   1)   1.11063602 +1  114.2747358 +1   20.7044900 +1     3     2     1
  H(HETATM   10 2H3  HET A   1)   1.11200260 +1  114.1898379 +1  -97.7002582 +1     3     2     1
  O(HETATM   11  O   HOH B   2)   2.11293166 +1  131.7923542 +1   30.9340865 +1     8     3     2
  H(HETATM   12 2H   HOH B   2)   0.96738131 +1  163.1441243 +1   62.7204063 +1    11     8     3
  H(HETATM   13  H   HOH B   2)   1.06265146 +1  117.1195179 +1 -162.9584084 +1     4     2     1
  H(HETATM   14 2H   HOH B   2)   0.97624705 +1   89.9072331 +1 -144.4884304 +1    11     8     3
 
 *+*+*+*+*+*+*+*+*+*+*+*+*+*+*+*+*+*+*+*+*+*+*+*+*+*+*+*+*+*+*+*+*+*+*+*+*+*+*+*+
            BAR SHORTENED BY       1.000 PERCENT
 GRADIENT CRITERION IN FLEPO =    10.000


          FOR POINT   24 SECOND STRUCTURE
 DISTANCE A - B      1.886627
 HEAT              -13.443652
 GRADIENT NORM      25.962159
 DIRECTION COSINE    0.951754
 html eps=78.4 charge=1
 Locating Keto-Enol transition state for acetone using SADDLE

  C(HETATM    1  C1  HET A   1)   0.00000000 +0    0.0000000 +0    0.0000000 +0
  C(HETATM    2  C2  HET A   1)   1.46298652 +1    0.0000000 +0    0.0000000 +0     1     0     0
  C(HETATM    3  C3  HET A   1)   1.45216593 +1  128.2866881 +1    0.0000000 +0     2     1     0
  O(HETATM    4  O   HET A   1)   1.28405448 +1  111.5336686 +1  177.5629965 +1     2     1     3
  H(HETATM    5 1H1  HET A   1)   1.10091393 +1  113.9565232 +1   67.4522612 +1     1     2     3
  H(HETATM    6 2H1  HET A   1)   1.11279044 +1  112.2654378 +1 -172.3233241 +1     1     2     3
  H(HETATM    7 3H1  HET A   1)   1.11286734 +1  111.9670964 +1  -53.3506033 +1     1     2     3
  H(HETATM    8 1H   HET A   1)   1.12799193 +1  110.5960854 +1  149.5368001 +1     3     2     1
  H(HETATM    9 1H3  HET A   1)   1.10920359 +1  114.3255179 +1   19.8593504 +1     3     2     1
  H(HETATM   10 2H3  HET A   1)   1.11390985 +1  114.2107546 +1  -98.3064540 +1     3     2     1
  O(HETATM   11  O   HOH B   2)   2.10106062 +1  132.2771094 +1   30.2993218 +1     8     3     2
  H(HETATM   12 2H   HOH B   2)   0.96922008 +1  162.4613766 +1   63.8928227 +1    11     8     3
  H(HETATM   13  H   HOH B   2)   1.06295583 +1  117.1726469 +1 -162.5809918 +1     4     2     1
  H(HETATM   14 2H   HOH B   2)   0.97628103 +1   90.3100618 +1 -144.5805230 +1    11     8     3
 
 *+*+*+*+*+*+*+*+*+*+*+*+*+*+*+*+*+*+*+*+*+*+*+*+*+*+*+*+*+*+*+*+*+*+*+*+*+*+*+*+
            BAR SHORTENED BY       1.000 PERCENT
 GRADIENT CRITERION IN FLEPO =    10.000


          FOR POINT   25 SECOND STRUCTURE
 DISTANCE A - B      1.867761
 HEAT              -13.200466
 GRADIENT NORM      26.576889
 DIRECTION COSINE    0.922525
 html eps=78.4 charge=1
 Locating Keto-Enol transition state for acetone using SADDLE

  C(HETATM    1  C1  HET A   1)   0.00000000 +0    0.0000000 +0    0.0000000 +0
  C(HETATM    2  C2  HET A   1)   1.46157241 +1    0.0000000 +0    0.0000000 +0     1     0     0
  C(HETATM    3  C3  HET A   1)   1.45337497 +1  128.5478813 +1    0.0000000 +0     2     1     0
  O(HETATM    4  O   HET A   1)   1.28315490 +1  111.0676176 +1  177.3263249 +1     2     1     3
  H(HETATM    5 1H1  HET A   1)   1.10713963 +1  113.6333506 +1   67.7809818 +1     1     2     3
  H(HETATM    6 2H1  HET A   1)   1.11296902 +1  111.9763941 +1 -171.3511192 +1     1     2     3
  H(HETATM    7 3H1  HET A   1)   1.11223241 +1  111.9966353 +1  -52.5176305 +1     1     2     3
  H(HETATM    8 1H   HET A   1)   1.12868945 +1  110.6718686 +1  148.8035538 +1     3     2     1
  H(HETATM    9 1H3  HET A   1)   1.10737049 +1  114.4615854 +1   19.3532101 +1     3     2     1
  H(HETATM   10 2H3  HET A   1)   1.11315359 +1  114.5200040 +1  -99.5883710 +1     3     2     1
  O(HETATM   11  O   HOH B   2)   2.09691379 +1  132.3278720 +1   30.4481329 +1     8     3     2
  H(HETATM   12 2H   HOH B   2)   0.96062188 +1  161.3475505 +1   66.0035677 +1    11     8     3
  H(HETATM   13  H   HOH B   2)   1.05171616 +1  118.2198385 +1 -167.6003405 +1     4     2     1
  H(HETATM   14 2H   HOH B   2)   0.97258494 +1   90.5950373 +1 -145.3937196 +1    11     8     3
 
 TIME=     0.19
  REACTANTS AND PRODUCTS SWAPPED AROUND
 *+*+*+*+*+*+*+*+*+*+*+*+*+*+*+*+*+*+*+*+*+*+*+*+*+*+*+*+*+*+*+*+*+*+*+*+*+*+*+*+
            BAR SHORTENED BY       0.000 PERCENT
 GRADIENT CRITERION IN FLEPO =    10.000


          FOR POINT   26 FIRST  STRUCTURE
 DISTANCE A - B      1.867761
 HEAT                8.128988
 GRADIENT NORM      16.974472
 DIRECTION COSINE    0.716963
 html eps=78.4 charge=1
 Locating Keto-Enol transition state for acetone using SADDLE

  C(HETATM    1  C1  HET A   1)   0.00000000 +0    0.0000000 +0    0.0000000 +0
  C(HETATM    2  C2  HET A   1)   1.47383269 +1    0.0000000 +0    0.0000000 +0     1     0     0
  C(HETATM    3  C3  HET A   1)   1.33634991 +1  127.6037316 +1    0.0000000 +0     2     1     0
  O(HETATM    4  O   HET A   1)   1.37397186 +1  116.5702028 +1 -172.2006433 +1     2     1     3
  H(HETATM    5 1H1  HET A   1)   1.10896559 +1  109.3993866 +1   68.6339907 +1     1     2     3
  H(HETATM    6 2H1  HET A   1)   1.10025693 +1  113.7133755 +1 -172.1894182 +1     1     2     3
  H(HETATM    7 3H1  HET A   1)   1.10068522 +1  112.7315127 +1  -49.0261643 +1     1     2     3
  H(HETATM    8 1H   HET A   1)   2.12138580 +1   90.1164857 +1 -153.4909566 +1     4     2     1
  H(HETATM    9 1H3  HET A   1)   1.07797359 +1  123.7241802 +1   10.9956431 +1     3     2     1
  H(HETATM   10 2H3  HET A   1)   1.07506939 +1  124.1138848 +1 -164.6086836 +1     3     2     1
  O(HETATM   11  O   HOH B   2)   1.05122087 +1   94.8919158 +1  132.8653524 +1     8     4     2
  H(HETATM   12 2H   HOH B   2)   1.03408847 +1  103.3922201 +1   84.9547011 +1    11     8     4
  H(HETATM   13  H   HOH B   2)   0.98608834 +1  113.8901013 +1  -52.4973274 +1     4     2     1
  H(HETATM   14 2H   HOH B   2)   1.02966539 +1  101.9817850 +1 -171.4068046 +1    11     8     4
 
 TIME=     0.03
  REACTANTS AND PRODUCTS SWAPPED AROUND
 *+*+*+*+*+*+*+*+*+*+*+*+*+*+*+*+*+*+*+*+*+*+*+*+*+*+*+*+*+*+*+*+*+*+*+*+*+*+*+*+
            BAR SHORTENED BY       1.000 PERCENT
 GRADIENT CRITERION IN FLEPO =    10.000


          FOR POINT   27 SECOND STRUCTURE
 DISTANCE A - B      1.849083
 HEAT              -12.927743
 GRADIENT NORM      27.523184
 DIRECTION COSINE    0.751837
 html eps=78.4 charge=1
 Locating Keto-Enol transition state for acetone using SADDLE

  C(HETATM    1  C1  HET A   1)   0.00000000 +0    0.0000000 +0    0.0000000 +0
  C(HETATM    2  C2  HET A   1)   1.46167766 +1    0.0000000 +0    0.0000000 +0     1     0     0
  C(HETATM    3  C3  HET A   1)   1.45091657 +1  128.6244393 +1    0.0000000 +0     2     1     0
  O(HETATM    4  O   HET A   1)   1.28388312 +1  110.8544482 +1  177.6519129 +1     2     1     3
  H(HETATM    5 1H1  HET A   1)   1.10923319 +1  113.6172967 +1   68.1144319 +1     1     2     3
  H(HETATM    6 2H1  HET A   1)   1.11578248 +1  111.6632201 +1 -171.4992655 +1     1     2     3
  H(HETATM    7 3H1  HET A   1)   1.11345790 +1  111.8259466 +1  -52.0142585 +1     1     2     3
  H(HETATM    8 1H   HET A   1)   1.13261640 +1  110.4839183 +1  148.4290804 +1     3     2     1
  H(HETATM    9 1H3  HET A   1)   1.11254446 +1  114.2350856 +1   19.1573056 +1     3     2     1
  H(HETATM   10 2H3  HET A   1)   1.11300748 +1  115.3062412 +1 -100.6888487 +1     3     2     1
  O(HETATM   11  O   HOH B   2)   2.08697149 +1  132.5455631 +1   30.9596937 +1     8     3     2
  H(HETATM   12 2H   HOH B   2)   0.96709034 +1  161.0184690 +1   65.4936625 +1    11     8     3
  H(HETATM   13  H   HOH B   2)   1.05028068 +1  117.6773732 +1 -165.3921034 +1     4     2     1
  H(HETATM   14 2H   HOH B   2)   0.97379142 +1   90.8340410 +1 -146.2066737 +1    11     8     3
 
 *+*+*+*+*+*+*+*+*+*+*+*+*+*+*+*+*+*+*+*+*+*+*+*+*+*+*+*+*+*+*+*+*+*+*+*+*+*+*+*+
            BAR SHORTENED BY       1.000 PERCENT
 GRADIENT CRITERION IN FLEPO =    10.000


          FOR POINT   28 SECOND STRUCTURE
 DISTANCE A - B      1.830592
 HEAT              -12.497040
 GRADIENT NORM      29.433433
 DIRECTION COSINE    0.902415
 html eps=78.4 charge=1
 Locating Keto-Enol transition state for acetone using SADDLE

  C(HETATM    1  C1  HET A   1)   0.00000000 +0    0.0000000 +0    0.0000000 +0
  C(HETATM    2  C2  HET A   1)   1.46228922 +1    0.0000000 +0    0.0000000 +0     1     0     0
  C(HETATM    3  C3  HET A   1)   1.45213230 +1  128.7306907 +1    0.0000000 +0     2     1     0
  O(HETATM    4  O   HET A   1)   1.28942429 +1  110.9285227 +1  177.1939375 +1     2     1     3
  H(HETATM    5 1H1  HET A   1)   1.10648153 +1  113.3209620 +1   68.8538650 +1     1     2     3
  H(HETATM    6 2H1  HET A   1)   1.11418864 +1  111.7678281 +1 -171.0008241 +1     1     2     3
  H(HETATM    7 3H1  HET A   1)   1.10859308 +1  111.9824823 +1  -51.5201479 +1     1     2     3
  H(HETATM    8 1H   HET A   1)   1.13511250 +1  110.2007116 +1  148.0134680 +1     3     2     1
  H(HETATM    9 1H3  HET A   1)   1.10902973 +1  114.1397555 +1   18.2569418 +1     3     2     1
  H(HETATM   10 2H3  HET A   1)   1.10958520 +1  115.1044483 +1 -101.5486832 +1     3     2     1
  O(HETATM   11  O   HOH B   2)   2.07673957 +1  133.0895992 +1   30.8630518 +1     8     3     2
  H(HETATM   12 2H   HOH B   2)   0.96745942 +1  160.3487188 +1   65.9803197 +1    11     8     3
  H(HETATM   13  H   HOH B   2)   1.04557287 +1  117.3202428 +1 -161.8157994 +1     4     2     1
  H(HETATM   14 2H   HOH B   2)   0.97344378 +1   91.1122627 +1 -146.9086878 +1    11     8     3
 
 *+*+*+*+*+*+*+*+*+*+*+*+*+*+*+*+*+*+*+*+*+*+*+*+*+*+*+*+*+*+*+*+*+*+*+*+*+*+*+*+
            BAR SHORTENED BY       1.000 PERCENT
 GRADIENT CRITERION IN FLEPO =    10.000


          FOR POINT   29 SECOND STRUCTURE
 DISTANCE A - B      1.812286
 HEAT              -12.084882
 GRADIENT NORM      28.937718
 DIRECTION COSINE    0.925625
 html eps=78.4 charge=1
 Locating Keto-Enol transition state for acetone using SADDLE

  C(HETATM    1  C1  HET A   1)   0.00000000 +0    0.0000000 +0    0.0000000 +0
  C(HETATM    2  C2  HET A   1)   1.46201875 +1    0.0000000 +0    0.0000000 +0     1     0     0
  C(HETATM    3  C3  HET A   1)   1.44596571 +1  128.9548251 +1    0.0000000 +0     2     1     0
  O(HETATM    4  O   HET A   1)   1.29014685 +1  110.8429540 +1  177.3417363 +1     2     1     3
  H(HETATM    5 1H1  HET A   1)   1.10759737 +1  113.3532566 +1   69.2835278 +1     1     2     3
  H(HETATM    6 2H1  HET A   1)   1.11321075 +1  111.8424150 +1 -170.2672368 +1     1     2     3
  H(HETATM    7 3H1  HET A   1)   1.11174940 +1  112.1167226 +1  -50.9871178 +1     1     2     3
  H(HETATM    8 1H   HET A   1)   1.12979192 +1  110.4691097 +1  147.7059737 +1     3     2     1
  H(HETATM    9 1H3  HET A   1)   1.11591015 +1  114.2565262 +1   17.1805186 +1     3     2     1
  H(HETATM   10 2H3  HET A   1)   1.11282165 +1  115.3377009 +1 -101.9112762 +1     3     2     1
  O(HETATM   11  O   HOH B   2)   2.06903023 +1  133.4875638 +1   30.3420002 +1     8     3     2
  H(HETATM   12 2H   HOH B   2)   0.96907047 +1  159.1252025 +1   65.9964916 +1    11     8     3
  H(HETATM   13  H   HOH B   2)   1.04436693 +1  117.4482633 +1 -160.9522685 +1     4     2     1
  H(HETATM   14 2H   HOH B   2)   0.96967213 +1   91.7675439 +1 -147.3190332 +1    11     8     3
 
 TIME=     0.21
  REACTANTS AND PRODUCTS SWAPPED AROUND
 *+*+*+*+*+*+*+*+*+*+*+*+*+*+*+*+*+*+*+*+*+*+*+*+*+*+*+*+*+*+*+*+*+*+*+*+*+*+*+*+
            BAR SHORTENED BY       0.000 PERCENT
 GRADIENT CRITERION IN FLEPO =    10.000


          FOR POINT   30 FIRST  STRUCTURE
 DISTANCE A - B      1.812286
 HEAT                8.128988
 GRADIENT NORM      16.974472
 DIRECTION COSINE    0.801403
 html eps=78.4 charge=1
 Locating Keto-Enol transition state for acetone using SADDLE

  C(HETATM    1  C1  HET A   1)   0.00000000 +0    0.0000000 +0    0.0000000 +0
  C(HETATM    2  C2  HET A   1)   1.47383269 +1    0.0000000 +0    0.0000000 +0     1     0     0
  C(HETATM    3  C3  HET A   1)   1.33634991 +1  127.6037316 +1    0.0000000 +0     2     1     0
  O(HETATM    4  O   HET A   1)   1.37397186 +1  116.5702028 +1 -172.2006433 +1     2     1     3
  H(HETATM    5 1H1  HET A   1)   1.10896559 +1  109.3993866 +1   68.6339907 +1     1     2     3
  H(HETATM    6 2H1  HET A   1)   1.10025693 +1  113.7133755 +1 -172.1894182 +1     1     2     3
  H(HETATM    7 3H1  HET A   1)   1.10068522 +1  112.7315127 +1  -49.0261643 +1     1     2     3
  H(HETATM    8 1H   HET A   1)   2.12138580 +1   90.1164857 +1 -153.4909566 +1     4     2     1
  H(HETATM    9 1H3  HET A   1)   1.07797359 +1  123.7241802 +1   10.9956431 +1     3     2     1
  H(HETATM   10 2H3  HET A   1)   1.07506939 +1  124.1138848 +1 -164.6086836 +1     3     2     1
  O(HETATM   11  O   HOH B   2)   1.05122087 +1   94.8919158 +1  132.8653524 +1     8     4     2
  H(HETATM   12 2H   HOH B   2)   1.03408847 +1  103.3922201 +1   84.9547011 +1    11     8     4
  H(HETATM   13  H   HOH B   2)   0.98608834 +1  113.8901013 +1  -52.4973274 +1     4     2     1
  H(HETATM   14 2H   HOH B   2)   1.02966539 +1  101.9817850 +1 -171.4068046 +1    11     8     4
 
 TIME=     0.04
  REACTANTS AND PRODUCTS SWAPPED AROUND
 *+*+*+*+*+*+*+*+*+*+*+*+*+*+*+*+*+*+*+*+*+*+*+*+*+*+*+*+*+*+*+*+*+*+*+*+*+*+*+*+
            BAR SHORTENED BY       1.000 PERCENT
 GRADIENT CRITERION IN FLEPO =    10.000


          FOR POINT   31 SECOND STRUCTURE
 DISTANCE A - B      1.794164
 HEAT              -11.868153
 GRADIENT NORM      30.370698
 DIRECTION COSINE    0.762707
 html eps=78.4 charge=1
 Locating Keto-Enol transition state for acetone using SADDLE

  C(HETATM    1  C1  HET A   1)   0.00000000 +0    0.0000000 +0    0.0000000 +0
  C(HETATM    2  C2  HET A   1)   1.46625081 +1    0.0000000 +0    0.0000000 +0     1     0     0
  C(HETATM    3  C3  HET A   1)   1.45456697 +1  128.7639035 +1    0.0000000 +0     2     1     0
  O(HETATM    4  O   HET A   1)   1.29681084 +1  110.4441593 +1  176.8738119 +1     2     1     3
  H(HETATM    5 1H1  HET A   1)   1.10361284 +1  113.6923366 +1   70.6001785 +1     1     2     3
  H(HETATM    6 2H1  HET A   1)   1.11498748 +1  111.3091954 +1 -169.2674129 +1     1     2     3
  H(HETATM    7 3H1  HET A   1)   1.10805167 +1  112.2378770 +1  -50.7215867 +1     1     2     3
  H(HETATM    8 1H   HET A   1)   1.13595506 +1  110.8786318 +1  145.9886584 +1     3     2     1
  H(HETATM    9 1H3  HET A   1)   1.11109882 +1  114.2651213 +1   16.2529070 +1     3     2     1
  H(HETATM   10 2H3  HET A   1)   1.11658396 +1  115.5429438 +1 -104.1206116 +1     3     2     1
  O(HETATM   11  O   HOH B   2)   2.06802075 +1  132.3647607 +1   31.6979057 +1     8     3     2
  H(HETATM   12 2H   HOH B   2)   0.96705239 +1  158.7467622 +1   67.1836831 +1    11     8     3
  H(HETATM   13  H   HOH B   2)   1.03499630 +1  116.6830919 +1 -161.9681498 +1     4     2     1
  H(HETATM   14 2H   HOH B   2)   0.97264217 +1   91.5170937 +1 -149.5769602 +1    11     8     3
 
 *+*+*+*+*+*+*+*+*+*+*+*+*+*+*+*+*+*+*+*+*+*+*+*+*+*+*+*+*+*+*+*+*+*+*+*+*+*+*+*+
            BAR SHORTENED BY       1.000 PERCENT
 GRADIENT CRITERION IN FLEPO =    10.000


          FOR POINT   32 SECOND STRUCTURE
 DISTANCE A - B      1.776222
 HEAT              -11.463926
 GRADIENT NORM      27.837560
 DIRECTION COSINE    0.879925
 html eps=78.4 charge=1
 Locating Keto-Enol transition state for acetone using SADDLE

  C(HETATM    1  C1  HET A   1)   0.00000000 +0    0.0000000 +0    0.0000000 +0
  C(HETATM    2  C2  HET A   1)   1.46361843 +1    0.0000000 +0    0.0000000 +0     1     0     0
  C(HETATM    3  C3  HET A   1)   1.44796717 +1  129.0630387 +1    0.0000000 +0     2     1     0
  O(HETATM    4  O   HET A   1)   1.29295144 +1  110.3984882 +1  176.8610565 +1     2     1     3
  H(HETATM    5 1H1  HET A   1)   1.10852960 +1  113.7107570 +1   70.6784291 +1     1     2     3
  H(HETATM    6 2H1  HET A   1)   1.11399892 +1  111.6941172 +1 -168.9649685 +1     1     2     3
  H(HETATM    7 3H1  HET A   1)   1.11178050 +1  112.3607045 +1  -50.2324659 +1     1     2     3
  H(HETATM    8 1H   HET A   1)   1.13093653 +1  111.0195155 +1  145.8069302 +1     3     2     1
  H(HETATM    9 1H3  HET A   1)   1.10665050 +1  114.1303287 +1   14.6972160 +1     3     2     1
  H(HETATM   10 2H3  HET A   1)   1.11487195 +1  115.7208464 +1 -103.9354877 +1     3     2     1
  O(HETATM   11  O   HOH B   2)   2.05790295 +1  132.8058997 +1   31.3966450 +1     8     3     2
  H(HETATM   12 2H   HOH B   2)   0.96092978 +1  156.9246533 +1   68.8375297 +1    11     8     3
  H(HETATM   13  H   HOH B   2)   1.03961039 +1  117.4016810 +1 -160.8885793 +1     4     2     1
  H(HETATM   14 2H   HOH B   2)   0.96925446 +1   92.0758029 +1 -150.1889918 +1    11     8     3
 
 *+*+*+*+*+*+*+*+*+*+*+*+*+*+*+*+*+*+*+*+*+*+*+*+*+*+*+*+*+*+*+*+*+*+*+*+*+*+*+*+
            BAR SHORTENED BY       1.000 PERCENT
 GRADIENT CRITERION IN FLEPO =    10.000


          FOR POINT   33 SECOND STRUCTURE
 DISTANCE A - B      1.758460
 HEAT              -11.004408
 GRADIENT NORM      29.223156
 DIRECTION COSINE    0.951178
 html eps=78.4 charge=1
 Locating Keto-Enol transition state for acetone using SADDLE

  C(HETATM    1  C1  HET A   1)   0.00000000 +0    0.0000000 +0    0.0000000 +0
  C(HETATM    2  C2  HET A   1)   1.46129988 +1    0.0000000 +0    0.0000000 +0     1     0     0
  C(HETATM    3  C3  HET A   1)   1.44983641 +1  129.1523632 +1    0.0000000 +0     2     1     0
  O(HETATM    4  O   HET A   1)   1.29126701 +1  110.4691939 +1  177.0431368 +1     2     1     3
  H(HETATM    5 1H1  HET A   1)   1.10670810 +1  113.7006609 +1   70.7318557 +1     1     2     3
  H(HETATM    6 2H1  HET A   1)   1.11186316 +1  111.7055745 +1 -168.9072704 +1     1     2     3
  H(HETATM    7 3H1  HET A   1)   1.10959138 +1  112.3135328 +1  -49.9374418 +1     1     2     3
  H(HETATM    8 1H   HET A   1)   1.13313750 +1  109.7007242 +1  145.3904396 +1     3     2     1
  H(HETATM    9 1H3  HET A   1)   1.11257284 +1  113.9754083 +1   14.6169235 +1     3     2     1
  H(HETATM   10 2H3  HET A   1)   1.11057362 +1  115.5652601 +1 -104.2966462 +1     3     2     1
  O(HETATM   11  O   HOH B   2)   2.03584373 +1  134.2897038 +1   32.9491291 +1     8     3     2
  H(HETATM   12 2H   HOH B   2)   0.96354158 +1  156.6329544 +1   66.7486730 +1    11     8     3
  H(HETATM   13  H   HOH B   2)   1.03742356 +1  117.4141500 +1 -160.0050804 +1     4     2     1
  H(HETATM   14 2H   HOH B   2)   0.97203647 +1   92.4855944 +1 -152.2321365 +1    11     8     3
 
 TIME=     0.21
  REACTANTS AND PRODUCTS SWAPPED AROUND
 *+*+*+*+*+*+*+*+*+*+*+*+*+*+*+*+*+*+*+*+*+*+*+*+*+*+*+*+*+*+*+*+*+*+*+*+*+*+*+*+
            BAR SHORTENED BY       0.000 PERCENT
 GRADIENT CRITERION IN FLEPO =    10.000


          FOR POINT   34 FIRST  STRUCTURE
 DISTANCE A - B      1.758460
 HEAT                8.164248
 GRADIENT NORM      16.969496
 DIRECTION COSINE    0.821676
 html eps=78.4 charge=1
 Locating Keto-Enol transition state for acetone using SADDLE

  C(HETATM    1  C1  HET A   1)   0.00000000 +0    0.0000000 +0    0.0000000 +0
  C(HETATM    2  C2  HET A   1)   1.47383269 +1    0.0000000 +0    0.0000000 +0     1     0     0
  C(HETATM    3  C3  HET A   1)   1.33634991 +1  127.6037316 +1    0.0000000 +0     2     1     0
  O(HETATM    4  O   HET A   1)   1.37397186 +1  116.5702028 +1 -172.2006433 +1     2     1     3
  H(HETATM    5 1H1  HET A   1)   1.10896559 +1  109.3993866 +1   68.6339907 +1     1     2     3
  H(HETATM    6 2H1  HET A   1)   1.10025693 +1  113.7133755 +1 -172.1894182 +1     1     2     3
  H(HETATM    7 3H1  HET A   1)   1.10068522 +1  112.7315127 +1  -49.0261643 +1     1     2     3
  H(HETATM    8 1H   HET A   1)   2.12138580 +1   90.1164857 +1 -153.4909566 +1     4     2     1
  H(HETATM    9 1H3  HET A   1)   1.07797359 +1  123.7241802 +1   10.9956431 +1     3     2     1
  H(HETATM   10 2H3  HET A   1)   1.07506939 +1  124.1138848 +1 -164.6086836 +1     3     2     1
  O(HETATM   11  O   HOH B   2)   1.05122087 +1   94.8919158 +1  132.8653524 +1     8     4     2
  H(HETATM   12 2H   HOH B   2)   1.03408847 +1  103.3922201 +1   84.9547011 +1    11     8     4
  H(HETATM   13  H   HOH B   2)   0.98608834 +1  113.8901013 +1  -52.4973274 +1     4     2     1
  H(HETATM   14 2H   HOH B   2)   1.02966539 +1  101.9817850 +1 -171.4068046 +1    11     8     4
 
 TIME=     0.03
  REACTANTS AND PRODUCTS SWAPPED AROUND
 *+*+*+*+*+*+*+*+*+*+*+*+*+*+*+*+*+*+*+*+*+*+*+*+*+*+*+*+*+*+*+*+*+*+*+*+*+*+*+*+
            BAR SHORTENED BY       1.000 PERCENT
 GRADIENT CRITERION IN FLEPO =    10.000


          FOR POINT   35 SECOND STRUCTURE
 DISTANCE A - B      1.740875
 HEAT              -10.456499
 GRADIENT NORM      35.284686
 DIRECTION COSINE    0.830909
 html eps=78.4 charge=1
 Locating Keto-Enol transition state for acetone using SADDLE

  C(HETATM    1  C1  HET A   1)   0.00000000 +0    0.0000000 +0    0.0000000 +0
  C(HETATM    2  C2  HET A   1)   1.46119935 +1    0.0000000 +0    0.0000000 +0     1     0     0
  C(HETATM    3  C3  HET A   1)   1.44844418 +1  129.1435835 +1    0.0000000 +0     2     1     0
  O(HETATM    4  O   HET A   1)   1.29145366 +1  110.5310845 +1  177.1514383 +1     2     1     3
  H(HETATM    5 1H1  HET A   1)   1.10669930 +1  113.6561639 +1   70.7206512 +1     1     2     3
  H(HETATM    6 2H1  HET A   1)   1.11165714 +1  111.7271819 +1 -168.9315098 +1     1     2     3
  H(HETATM    7 3H1  HET A   1)   1.10949403 +1  112.3191961 +1  -49.9200861 +1     1     2     3
  H(HETATM    8 1H   HET A   1)   1.14356736 +1  109.2790136 +1  145.6809611 +1     3     2     1
  H(HETATM    9 1H3  HET A   1)   1.11219740 +1  114.0626239 +1   14.5668497 +1     3     2     1
  H(HETATM   10 2H3  HET A   1)   1.10712109 +1  115.8066363 +1 -104.7384427 +1     3     2     1
  O(HETATM   11  O   HOH B   2)   2.02462199 +1  134.7593466 +1   32.5453086 +1     8     3     2
  H(HETATM   12 2H   HOH B   2)   0.96338536 +1  156.2403061 +1   67.0814280 +1    11     8     3
  H(HETATM   13  H   HOH B   2)   1.02867511 +1  117.8718742 +1 -159.4487270 +1     4     2     1
  H(HETATM   14 2H   HOH B   2)   0.97129235 +1   92.6269355 +1 -152.2807638 +1    11     8     3
 
 *+*+*+*+*+*+*+*+*+*+*+*+*+*+*+*+*+*+*+*+*+*+*+*+*+*+*+*+*+*+*+*+*+*+*+*+*+*+*+*+
            BAR SHORTENED BY       1.000 PERCENT
 GRADIENT CRITERION IN FLEPO =    10.000


          FOR POINT   36 SECOND STRUCTURE
 DISTANCE A - B      1.723466
 HEAT              -10.013013
 GRADIENT NORM      35.202675
 DIRECTION COSINE    0.952008
 html eps=78.4 charge=1
 Locating Keto-Enol transition state for acetone using SADDLE

  C(HETATM    1  C1  HET A   1)   0.00000000 +0    0.0000000 +0    0.0000000 +0
  C(HETATM    2  C2  HET A   1)   1.45906199 +1    0.0000000 +0    0.0000000 +0     1     0     0
  C(HETATM    3  C3  HET A   1)   1.44640702 +1  129.4732854 +1    0.0000000 +0     2     1     0
  O(HETATM    4  O   HET A   1)   1.28915665 +1  110.0028768 +1  176.7880180 +1     2     1     3
  H(HETATM    5 1H1  HET A   1)   1.10874365 +1  113.6337660 +1   71.1819910 +1     1     2     3
  H(HETATM    6 2H1  HET A   1)   1.11649762 +1  111.8489394 +1 -168.3382969 +1     1     2     3
  H(HETATM    7 3H1  HET A   1)   1.11431573 +1  112.3832053 +1  -49.2508168 +1     1     2     3
  H(HETATM    8 1H   HET A   1)   1.14487773 +1  109.2344633 +1  145.6583438 +1     3     2     1
  H(HETATM    9 1H3  HET A   1)   1.11203148 +1  114.0016557 +1   13.7312479 +1     3     2     1
  H(HETATM   10 2H3  HET A   1)   1.10892271 +1  115.8793181 +1 -105.2470322 +1     3     2     1
  O(HETATM   11  O   HOH B   2)   2.01395246 +1  135.3598624 +1   31.7241375 +1     8     3     2
  H(HETATM   12 2H   HOH B   2)   0.96380756 +1  154.9328208 +1   68.0838375 +1    11     8     3
  H(HETATM   13  H   HOH B   2)   1.03410552 +1  117.9231193 +1 -158.8835661 +1     4     2     1
  H(HETATM   14 2H   HOH B   2)   0.97069726 +1   93.0285364 +1 -152.5231455 +1    11     8     3
 
 *+*+*+*+*+*+*+*+*+*+*+*+*+*+*+*+*+*+*+*+*+*+*+*+*+*+*+*+*+*+*+*+*+*+*+*+*+*+*+*+
            BAR SHORTENED BY       1.000 PERCENT
 GRADIENT CRITERION IN FLEPO =    10.000


          FOR POINT   37 SECOND STRUCTURE
 DISTANCE A - B      1.706232
 HEAT               -9.482060
 GRADIENT NORM      38.356723
 DIRECTION COSINE    0.910656
 html eps=78.4 charge=1
 Locating Keto-Enol transition state for acetone using SADDLE

  C(HETATM    1  C1  HET A   1)   0.00000000 +0    0.0000000 +0    0.0000000 +0
  C(HETATM    2  C2  HET A   1)   1.45972438 +1    0.0000000 +0    0.0000000 +0     1     0     0
  C(HETATM    3  C3  HET A   1)   1.44425158 +1  129.5895848 +1    0.0000000 +0     2     1     0
  O(HETATM    4  O   HET A   1)   1.29507341 +1  110.1387365 +1  176.4933288 +1     2     1     3
  H(HETATM    5 1H1  HET A   1)   1.10503143 +1  113.3907361 +1   71.8260633 +1     1     2     3
  H(HETATM    6 2H1  HET A   1)   1.11553238 +1  111.6593941 +1 -167.9869815 +1     1     2     3
  H(HETATM    7 3H1  HET A   1)   1.10822976 +1  112.4605749 +1  -48.9482248 +1     1     2     3
  H(HETATM    8 1H   HET A   1)   1.14731648 +1  109.3108745 +1  145.6441712 +1     3     2     1
  H(HETATM    9 1H3  HET A   1)   1.11422126 +1  114.0968407 +1   13.1491934 +1     3     2     1
  H(HETATM   10 2H3  HET A   1)   1.11105526 +1  115.9636114 +1 -105.7781433 +1     3     2     1
  O(HETATM   11  O   HOH B   2)   2.00705367 +1  135.8140831 +1   30.5579763 +1     8     3     2
  H(HETATM   12 2H   HOH B   2)   0.97039693 +1  153.4119398 +1   69.2806265 +1    11     8     3
  H(HETATM   13  H   HOH B   2)   1.02369143 +1  118.2674464 +1 -158.0192512 +1     4     2     1
  H(HETATM   14 2H   HOH B   2)   0.96430267 +1   93.5252973 +1 -152.5429420 +1    11     8     3
 
 TIME=     0.18
  REACTANTS AND PRODUCTS SWAPPED AROUND
 *+*+*+*+*+*+*+*+*+*+*+*+*+*+*+*+*+*+*+*+*+*+*+*+*+*+*+*+*+*+*+*+*+*+*+*+*+*+*+*+
            BAR SHORTENED BY       0.000 PERCENT
 GRADIENT CRITERION IN FLEPO =    10.000


          FOR POINT   38 FIRST  STRUCTURE
 DISTANCE A - B      1.706232
 HEAT                8.164248
 GRADIENT NORM      16.969496
 DIRECTION COSINE    0.798638
 html eps=78.4 charge=1
 Locating Keto-Enol transition state for acetone using SADDLE

  C(HETATM    1  C1  HET A   1)   0.00000000 +0    0.0000000 +0    0.0000000 +0
  C(HETATM    2  C2  HET A   1)   1.47383269 +1    0.0000000 +0    0.0000000 +0     1     0     0
  C(HETATM    3  C3  HET A   1)   1.33634991 +1  127.6037316 +1    0.0000000 +0     2     1     0
  O(HETATM    4  O   HET A   1)   1.37397186 +1  116.5702028 +1 -172.2006433 +1     2     1     3
  H(HETATM    5 1H1  HET A   1)   1.10896559 +1  109.3993866 +1   68.6339907 +1     1     2     3
  H(HETATM    6 2H1  HET A   1)   1.10025693 +1  113.7133755 +1 -172.1894182 +1     1     2     3
  H(HETATM    7 3H1  HET A   1)   1.10068522 +1  112.7315127 +1  -49.0261643 +1     1     2     3
  H(HETATM    8 1H   HET A   1)   2.12138580 +1   90.1164857 +1 -153.4909566 +1     4     2     1
  H(HETATM    9 1H3  HET A   1)   1.07797359 +1  123.7241802 +1   10.9956431 +1     3     2     1
  H(HETATM   10 2H3  HET A   1)   1.07506939 +1  124.1138848 +1 -164.6086836 +1     3     2     1
  O(HETATM   11  O   HOH B   2)   1.05122087 +1   94.8919158 +1  132.8653524 +1     8     4     2
  H(HETATM   12 2H   HOH B   2)   1.03408847 +1  103.3922201 +1   84.9547011 +1    11     8     4
  H(HETATM   13  H   HOH B   2)   0.98608834 +1  113.8901013 +1  -52.4973274 +1     4     2     1
  H(HETATM   14 2H   HOH B   2)   1.02966539 +1  101.9817850 +1 -171.4068046 +1    11     8     4
 
 TIME=     0.03
  REACTANTS AND PRODUCTS SWAPPED AROUND
 *+*+*+*+*+*+*+*+*+*+*+*+*+*+*+*+*+*+*+*+*+*+*+*+*+*+*+*+*+*+*+*+*+*+*+*+*+*+*+*+
            BAR SHORTENED BY       1.000 PERCENT
 GRADIENT CRITERION IN FLEPO =    10.000


          FOR POINT   39 SECOND STRUCTURE
 DISTANCE A - B      1.689169
 HEAT               -8.995852
 GRADIENT NORM      39.449669
 DIRECTION COSINE    0.798296
 html eps=78.4 charge=1
 Locating Keto-Enol transition state for acetone using SADDLE

  C(HETATM    1  C1  HET A   1)   0.00000000 +0    0.0000000 +0    0.0000000 +0
  C(HETATM    2  C2  HET A   1)   1.46214889 +1    0.0000000 +0    0.0000000 +0     1     0     0
  C(HETATM    3  C3  HET A   1)   1.44736085 +1  129.5900371 +1    0.0000000 +0     2     1     0
  O(HETATM    4  O   HET A   1)   1.29191702 +1  110.1401786 +1  176.7506925 +1     2     1     3
  H(HETATM    5 1H1  HET A   1)   1.11709854 +1  114.1212334 +1   71.8968604 +1     1     2     3
  H(HETATM    6 2H1  HET A   1)   1.11223882 +1  111.5500032 +1 -167.6760044 +1     1     2     3
  H(HETATM    7 3H1  HET A   1)   1.11201340 +1  112.3751016 +1  -48.7490071 +1     1     2     3
  H(HETATM    8 1H   HET A   1)   1.14718371 +1  108.8881449 +1  145.8652879 +1     3     2     1
  H(HETATM    9 1H3  HET A   1)   1.11195630 +1  113.9945808 +1   12.8361856 +1     3     2     1
  H(HETATM   10 2H3  HET A   1)   1.10840037 +1  116.1816474 +1 -106.2254002 +1     3     2     1
  O(HETATM   11  O   HOH B   2)   1.99936998 +1  136.3481294 +1   30.1381948 +1     8     3     2
  H(HETATM   12 2H   HOH B   2)   0.96574858 +1  153.0440632 +1   70.2458070 +1    11     8     3
  H(HETATM   13  H   HOH B   2)   1.02180093 +1  118.6924425 +1 -157.1962891 +1     4     2     1
  H(HETATM   14 2H   HOH B   2)   0.97108330 +1   93.6181534 +1 -152.9605431 +1    11     8     3
 
[...]
     10          4  O    CARTESIAN X     2.187767      0.219457  KCAL/ANGSTROM
     11          4  O    CARTESIAN Y    -0.670160      0.009056  KCAL/ANGSTROM
     12          4  O    CARTESIAN Z    -1.026018      0.780946  KCAL/ANGSTROM
     13          5  H    CARTESIAN X    -0.665510     -0.077920  KCAL/ANGSTROM
     14          5  H    CARTESIAN Y     0.066595      0.494153  KCAL/ANGSTROM
     15          5  H    CARTESIAN Z    -0.657988     -0.344807  KCAL/ANGSTROM
     16          6  H    CARTESIAN X     0.008331      0.358922  KCAL/ANGSTROM
     17          6  H    CARTESIAN Y    -1.335169      0.083570  KCAL/ANGSTROM
     18          6  H    CARTESIAN Z     0.194017     -0.142463  KCAL/ANGSTROM
     19          7  H    CARTESIAN X    -0.218846     -0.090466  KCAL/ANGSTROM
     20          7  H    CARTESIAN Y     0.199106      0.002498  KCAL/ANGSTROM
     21          7  H    CARTESIAN Z     1.049795      0.200295  KCAL/ANGSTROM
     22          8  H    CARTESIAN X     3.501461     -0.530830  KCAL/ANGSTROM
     23          8  H    CARTESIAN Y     0.993752     -0.246067  KCAL/ANGSTROM
     24          8  H    CARTESIAN Z     0.386586      0.365962  KCAL/ANGSTROM
     25          9  H    CARTESIAN X     1.568718     -0.312746  KCAL/ANGSTROM
     26          9  H    CARTESIAN Y     2.174605      0.659892  KCAL/ANGSTROM
     27          9  H    CARTESIAN Z     0.498226     -0.008121  KCAL/ANGSTROM
     28         10  H    CARTESIAN X     2.924945     -1.644579  KCAL/ANGSTROM
     29         10  H    CARTESIAN Y     1.764666     -0.067519  KCAL/ANGSTROM
     30         10  H    CARTESIAN Z    -0.627455      0.092524  KCAL/ANGSTROM
     31         11  O    CARTESIAN X     4.207917      0.130482  KCAL/ANGSTROM
     32         11  O    CARTESIAN Y     0.093843     -0.572090  KCAL/ANGSTROM
     33         11  O    CARTESIAN Z     0.661350     -2.130178  KCAL/ANGSTROM
     34         12  H    CARTESIAN X     4.579407      0.236414  KCAL/ANGSTROM
     35         12  H    CARTESIAN Y    -0.212980      0.040768  KCAL/ANGSTROM
     36         12  H    CARTESIAN Z    -0.225319     -0.986930  KCAL/ANGSTROM
     37         13  H    CARTESIAN X     1.776777      0.857249  KCAL/ANGSTROM
     38         13  H    CARTESIAN Y    -1.577421     -0.551415  KCAL/ANGSTROM
     39         13  H    CARTESIAN Z    -1.148977      0.898752  KCAL/ANGSTROM
     40         14  H    CARTESIAN X     5.012517      0.383594  KCAL/ANGSTROM
     41         14  H    CARTESIAN Y     0.525416     -0.970549  KCAL/ANGSTROM
     42         14  H    CARTESIAN Z     1.090926      0.779329  KCAL/ANGSTROM




   ATOM                 CHEMICAL                   X               Y               Z
  NUMBER                 SYMBOL               (ANGSTROMS)     (ANGSTROMS)     (ANGSTROMS)
 
     1       C(HETATM    1  C1  HET A   1)    0.09920338  *  -0.23924535  *   0.08641027  *
     2       C(HETATM    2  C2  HET A   1)    1.44031575  *   0.20278772  *  -0.32865606  *
     3       C(HETATM    3  C3  HET A   1)    2.03677094  *   1.39909740  *  -0.08862181  *
     4       O(HETATM    4  O   HET A   1)    2.18776733  *  -0.67015951  *  -1.02601775  *
     5       H(HETATM    5 1H1  HET A   1)   -0.66550959  *   0.06659474  *  -0.65798807  *
     6       H(HETATM    6 2H1  HET A   1)    0.00833085  *  -1.33516857  *   0.19401717  *
     7       H(HETATM    7 3H1  HET A   1)   -0.21884617  *   0.19910642  *   1.04979479  *
     8       H(HETATM    8 1H   HET A   1)    3.50146127  *   0.99375237  *   0.38658602  *
     9       H(HETATM    9 1H3  HET A   1)    1.56871836  *   2.17460496  *   0.49822636  *
    10       H(HETATM   10 2H3  HET A   1)    2.92494504  *   1.76466554  *  -0.62745550  *
    11       O(HETATM   11  O   HOH B   2)    4.20791681  *   0.09384251  *   0.66134955  *
    12       H(HETATM   12 2H   HOH B   2)    4.57940714  *  -0.21297983  *  -0.22531944  *
    13       H(HETATM   13  H   HOH B   2)    1.77677726  *  -1.57742066  *  -1.14897671  *
    14       H(HETATM   14 2H   HOH B   2)    5.01251700  *   0.52541650  *   1.09092560  *

                             CARTESIAN COORDINATES

   1    C        0.099203382    -0.239245346     0.086410265
   2    C        1.440315747     0.202787720    -0.328656057
   3    C        2.036770943     1.399097396    -0.088621815
   4    O        2.187767332    -0.670159505    -1.026017747
   5    H       -0.665509585     0.066594739    -0.657988066
   6    H        0.008330854    -1.335168569     0.194017171
   7    H       -0.218846174     0.199106424     1.049794794
   8    H        3.501461268     0.993752369     0.386586022
   9    H        1.568718359     2.174604957     0.498226356
  10    H        2.924945045     1.764665540    -0.627455497
  11    O        4.207916809     0.093842506     0.661349549
  12    H        4.579407138    -0.212979832    -0.225319443
  13    H        1.776777258    -1.577420661    -1.148976707
  14    H        5.012517004     0.525416495     1.090925597


           Empirical Formula: C3 H9 O2  =    14 atoms



      MOLECULAR POINT GROUP   :   C1  


                  EIGENVALUES  
 -31.74949 -31.13658 -27.85135 -25.18525 -20.66849 -18.71128 -18.51214 -17.44349
 -16.38948 -15.66754 -15.27006 -14.36285 -13.62891 -13.54002 -13.11663 -10.42817
  -0.02859   1.70973   1.97998   3.22039   4.17800   4.41312   4.94685   5.02210
   5.12861   5.21640   5.52510   6.24632   6.35572


              NET ATOMIC CHARGES AND DIPOLE CONTRIBUTIONS

  ATOM NO.                 TYPE                        CHARGE      No. of ELECS.   s-Pop       p-Pop       
    1          C(HETATM    1  C1  HET A   1)          -0.542470        4.5425     1.05944     3.48303
    2          C(HETATM    2  C2  HET A   1)           0.512184        3.4878     1.10518     2.38264
    3          C(HETATM    3  C3  HET A   1)          -0.669275        4.6693     1.06393     3.60535
    4          O(HETATM    4  O   HET A   1)          -0.546612        6.5466     1.82852     4.71809
    5          H(HETATM    5 1H1  HET A   1)           0.213158        0.7868     0.78684
    6          H(HETATM    6 2H1  HET A   1)           0.200052        0.7999     0.79995
    7          H(HETATM    7 3H1  HET A   1)           0.205040        0.7950     0.79496
    8          H(HETATM    8 1H   HET A   1)           0.452976        0.5470     0.54702
    9          H(HETATM    9 1H3  HET A   1)           0.204416        0.7956     0.79558
   10          H(HETATM   10 2H3  HET A   1)           0.219218        0.7808     0.78078
   11          O(HETATM   11  O   HOH B   2)          -0.504751        6.5048     1.80692     4.69783
   12          H(HETATM   12 2H   HOH B   2)           0.423737        0.5763     0.57626
   13          H(HETATM   13  H   HOH B   2)           0.406915        0.5931     0.59309
   14          H(HETATM   14 2H   HOH B   2)           0.425415        0.5746     0.57458

          NET CHARGE ON RESIDUES

      Residue         Charge  Anion or
                              Cation?
      HET A   1       +0.203
      HOH B   2       +0.797  CATION
 


 DIPOLE           X         Y         Z       TOTAL
 POINT-CHG.     4.965     0.242     1.659     5.241
 HYBRID         0.337    -0.311    -0.436     0.632
 SUM            5.302    -0.069     1.223     5.442


          ATOMIC ORBITAL ELECTRON POPULATIONS

                   Atom                  s        px        py        pz   
   C(HETATM    1  C1  HET A   1)   1.05944   1.06001   1.21091   1.21210
   C(HETATM    2  C2  HET A   1)   1.10518   0.84615   0.84041   0.69609
   C(HETATM    3  C3  HET A   1)   1.06393   1.17682   1.10928   1.31925
   O(HETATM    4  O   HET A   1)   1.82852   1.58185   1.41078   1.72547
   H(HETATM    5 1H1  HET A   1)   0.78684
   H(HETATM    6 2H1  HET A   1)   0.79995
   H(HETATM    7 3H1  HET A   1)   0.79496
   H(HETATM    8 1H   HET A   1)   0.54702
   H(HETATM    9 1H3  HET A   1)   0.79558
   H(HETATM   10 2H3  HET A   1)   0.78078
   O(HETATM   11  O   HOH B   2)   1.80692   1.51048   1.65904   1.52832
   H(HETATM   12 2H   HOH B   2)   0.57626
   H(HETATM   13  H   HOH B   2)   0.59309
   H(HETATM   14 2H   HOH B   2)   0.57458
 BEST ESTIMATE GEOMETRY OF THE TRANSITION STATE


           C1=   0.627     C2=   0.373

 -------------------------------------------------------------------------------
 html eps=78.4 charge=1
 Locating Keto-Enol transition state for acetone using SADDLE



     TRANSITION STATE LOCATED USING THE "SADDLE" TECHNIQUE    
     SCF FIELD WAS ACHIEVED                                   


                              PM7 CALCULATION
                                                       MOPAC2016 (Version: 21.158W)
                                                       Mon Jun 14 10:21:30 2021
                                                       No. of days remaining = 358




          FINAL H.O.F PLUS STRESS =          7.76024 KCAL/MOL =      32.46883 KJ/MOL
          FINAL STRESS            =          0.00000 KCAL/MOL =       0.00000 KJ/MOL
          FINAL HEAT OF FORMATION =          7.76024 KCAL/MOL =      32.46883 KJ/MOL
          TOTAL DISTORTION        =          0.15445 Angstroms
          AVERAGE DISTORTION      =          0.01103 Angstroms per atom (all atoms)
          RMS DISTORTION          =          0.01681 Angstroms per atom (all atoms)
          VAN DER WAALS AREA      =        125.61 SQUARE ANGSTROMS


          TOTAL ENERGY            =      -1075.92753 EV
          ELECTRONIC ENERGY       =      -1180.92347 EV  POINT GROUP:     C1  
          CORE-CORE REPULSION     =        104.99594 EV

          DIELECTRIC ENERGY       =         -2.90930 EV
          COSMO AREA              =        125.61 SQUARE ANGSTROMS
          COSMO VOLUME            =        109.62 CUBIC ANGSTROMS

          GRADIENT NORM           =          3.81037 = 1.01836 PER ATOM
          IONIZATION POTENTIAL    =         10.572073 EV
          HOMO LUMO ENERGIES (EV) =        -10.572 -0.188
          NO. OF FILLED LEVELS    =         16
          MOLECULAR WEIGHT        =         77.1029

          MOLECULAR DIMENSIONS (Angstroms)

            Atom       Atom       Distance
            H    14    H     5     5.95501
            H    13    H     9     4.05927
            H     7    H    10     2.88070


          SCF CALCULATIONS        =          1
 
          WALL-CLOCK TIME         =         24.375 SECONDS
          COMPUTATION TIME        =  1 MINUTE AND 36.891 SECONDS



       FINAL  POINT  AND  DERIVATIVES

   PARAMETER     ATOM    TYPE            VALUE        GRADIENT
      1          1  C    CARTESIAN X     0.102879      0.160887  KCAL/ANGSTROM
      2          1  C    CARTESIAN Y    -0.236595     -0.467182  KCAL/ANGSTROM
      3          1  C    CARTESIAN Z     0.088065     -0.103780  KCAL/ANGSTROM
      4          2  C    CARTESIAN X     1.445023     -0.366678  KCAL/ANGSTROM
      5          2  C    CARTESIAN Y     0.198567      0.707234  KCAL/ANGSTROM
      6          2  C    CARTESIAN Z    -0.326771      0.580263  KCAL/ANGSTROM
      7          3  C    CARTESIAN X     2.058630     -0.879007  KCAL/ANGSTROM
      8          3  C    CARTESIAN Y     1.391267      1.153066  KCAL/ANGSTROM
      9          3  C    CARTESIAN Z    -0.074922     -0.374263  KCAL/ANGSTROM
     10          4  O    CARTESIAN X     2.186792      0.176009  KCAL/ANGSTROM
     11          4  O    CARTESIAN Y    -0.671172      0.431975  KCAL/ANGSTROM
     12          4  O    CARTESIAN Z    -1.023359      1.073497  KCAL/ANGSTROM
     13          5  H    CARTESIAN X    -0.662612     -0.232789  KCAL/ANGSTROM
     14          5  H    CARTESIAN Y     0.068062      0.080041  KCAL/ANGSTROM
     15          5  H    CARTESIAN Z    -0.657075     -0.391993  KCAL/ANGSTROM
     16          6  H    CARTESIAN X     0.007048      0.123113  KCAL/ANGSTROM
     17          6  H    CARTESIAN Y    -1.332847      0.056982  KCAL/ANGSTROM
     18          6  H    CARTESIAN Z     0.196107     -0.230516  KCAL/ANGSTROM
     19          7  H    CARTESIAN X    -0.217435     -0.305279  KCAL/ANGSTROM
     20          7  H    CARTESIAN Y     0.202188     -0.271534  KCAL/ANGSTROM
     21          7  H    CARTESIAN Z     1.050730      0.032977  KCAL/ANGSTROM
     22          8  H    CARTESIAN X     3.455993      0.818188  KCAL/ANGSTROM
     23          8  H    CARTESIAN Y     1.012307     -0.018942  KCAL/ANGSTROM
     24          8  H    CARTESIAN Z     0.385237      0.366997  KCAL/ANGSTROM
     25          9  H    CARTESIAN X     1.577860     -0.583091  KCAL/ANGSTROM
     26          9  H    CARTESIAN Y     2.169364      0.511225  KCAL/ANGSTROM
     27          9  H    CARTESIAN Z     0.500863     -0.457700  KCAL/ANGSTROM
     28         10  H    CARTESIAN X     2.929179     -0.610465  KCAL/ANGSTROM
     29         10  H    CARTESIAN Y     1.769259      0.253872  KCAL/ANGSTROM
     30         10  H    CARTESIAN Z    -0.643337     -0.136326  KCAL/ANGSTROM
     31         11  O    CARTESIAN X     4.215810      0.860034  KCAL/ANGSTROM
     32         11  O    CARTESIAN Y     0.089670     -1.471582  KCAL/ANGSTROM
     33         11  O    CARTESIAN Z     0.665473     -0.754153  KCAL/ANGSTROM
     34         12  H    CARTESIAN X     4.580592      0.189515  KCAL/ANGSTROM
     35         12  H    CARTESIAN Y    -0.214632      0.205588  KCAL/ANGSTROM
     36         12  H    CARTESIAN Z    -0.218587     -1.014394  KCAL/ANGSTROM
     37         13  H    CARTESIAN X     1.773959      0.651638  KCAL/ANGSTROM
     38         13  H    CARTESIAN Y    -1.579129     -0.243602  KCAL/ANGSTROM
     39         13  H    CARTESIAN Z    -1.151775      1.049396  KCAL/ANGSTROM
     40         14  H    CARTESIAN X     5.012255     -0.002076  KCAL/ANGSTROM
     41         14  H    CARTESIAN Y     0.525895     -0.927145  KCAL/ANGSTROM
     42         14  H    CARTESIAN Z     1.088905      0.359991  KCAL/ANGSTROM




   ATOM                 CHEMICAL                   X               Y               Z
  NUMBER                 SYMBOL               (ANGSTROMS)     (ANGSTROMS)     (ANGSTROMS)
 
     1       C(HETATM    1  C1  HET A   1)    0.10287900  *  -0.23659504  *   0.08806493  *
     2       C(HETATM    2  C2  HET A   1)    1.44502287  *   0.19856700  *  -0.32677126  *
     3       C(HETATM    3  C3  HET A   1)    2.05862968  *   1.39126731  *  -0.07492225  *
     4       O(HETATM    4  O   HET A   1)    2.18679243  *  -0.67117226  *  -1.02335918  *
     5       H(HETATM    5 1H1  HET A   1)   -0.66261209  *   0.06806226  *  -0.65707465  *
     6       H(HETATM    6 2H1  HET A   1)    0.00704768  *  -1.33284742  *   0.19610686  *
     7       H(HETATM    7 3H1  HET A   1)   -0.21743523  *   0.20218789  *   1.05072985  *
     8       H(HETATM    8 1H   HET A   1)    3.45599314  *   1.01230734  *   0.38523700  *
     9       H(HETATM    9 1H3  HET A   1)    1.57785975  *   2.16936368  *   0.50086329  *
    10       H(HETATM   10 2H3  HET A   1)    2.92917925  *   1.76925854  *  -0.64333681  *
    11       O(HETATM   11  O   HOH B   2)    4.21580995  *   0.08966983  *   0.66547323  *
    12       H(HETATM   12 2H   HOH B   2)    4.58059214  *  -0.21463154  *  -0.21858685  *
    13       H(HETATM   13  H   HOH B   2)    1.77395946  *  -1.57912939  *  -1.15177528  *
    14       H(HETATM   14 2H   HOH B   2)    5.01225520  *   0.52589477  *   1.08890542  *

                             CARTESIAN COORDINATES

   1    C        0.102879004    -0.236595036     0.088064930
   2    C        1.445022867     0.198567002    -0.326771255
   3    C        2.058629676     1.391267308    -0.074922250
   4    O        2.186792426    -0.671172263    -1.023359179
   5    H       -0.662612094     0.068062260    -0.657074649
   6    H        0.007047678    -1.332847418     0.196106857
   7    H       -0.217435234     0.202187892     1.050729855
   8    H        3.455993136     1.012307339     0.385237002
   9    H        1.577859751     2.169363684     0.500863294
  10    H        2.929179247     1.769258542    -0.643336813
  11    O        4.215809946     0.089669829     0.665473234
  12    H        4.580592139    -0.214631535    -0.218586853
  13    H        1.773959455    -1.579129387    -1.151775283
  14    H        5.012255198     0.525894769     1.088905416


           Empirical Formula: C3 H9 O2  =    14 atoms



      MOLECULAR POINT GROUP   :   C1  


                  EIGENVALUES  
 -31.70274 -31.02222 -27.94749 -25.28966 -20.78173 -18.63024 -18.39931 -17.35194
 -16.39728 -15.71994 -15.13052 -14.35548 -13.68549 -13.59315 -13.19768 -10.57207
  -0.18807   1.86972   1.93981   3.10523   4.07183   4.43997   4.91573   5.05576
   5.13788   5.19291   5.42310   6.18188   6.30190


              NET ATOMIC CHARGES AND DIPOLE CONTRIBUTIONS

  ATOM NO.                 TYPE                        CHARGE      No. of ELECS.   s-Pop       p-Pop       
    1          C(HETATM    1  C1  HET A   1)          -0.547678        4.5477     1.06010     3.48758
    2          C(HETATM    2  C2  HET A   1)           0.542599        3.4574     1.11006     2.34734
    3          C(HETATM    3  C3  HET A   1)          -0.684163        4.6842     1.06160     3.62256
    4          O(HETATM    4  O   HET A   1)          -0.532586        6.5326     1.82798     4.70461
    5          H(HETATM    5 1H1  HET A   1)           0.217739        0.7823     0.78226
    6          H(HETATM    6 2H1  HET A   1)           0.203653        0.7963     0.79635
    7          H(HETATM    7 3H1  HET A   1)           0.208484        0.7915     0.79152
    8          H(HETATM    8 1H   HET A   1)           0.453783        0.5462     0.54622
    9          H(HETATM    9 1H3  HET A   1)           0.208474        0.7915     0.79153
   10          H(HETATM   10 2H3  HET A   1)           0.233080        0.7669     0.76692
   11          O(HETATM   11  O   HOH B   2)          -0.549327        6.5493     1.81020     4.73913
   12          H(HETATM   12 2H   HOH B   2)           0.417661        0.5823     0.58234
   13          H(HETATM   13  H   HOH B   2)           0.409857        0.5901     0.59014
   14          H(HETATM   14 2H   HOH B   2)           0.418425        0.5816     0.58158

          NET CHARGE ON RESIDUES

      Residue         Charge  Anion or
                              Cation?
      HET A   1       +0.259
      HOH B   2       +0.741  CATION
 


 DIPOLE           X         Y         Z       TOTAL
 POINT-CHG.     4.017     0.298     1.242     4.215
 HYBRID         0.359    -0.326    -0.451     0.662
 SUM            4.376    -0.028     0.791     4.447


          ATOMIC ORBITAL ELECTRON POPULATIONS

                   Atom                  s        px        py        pz   
   C(HETATM    1  C1  HET A   1)   1.06010   1.05842   1.21453   1.21462
   C(HETATM    2  C2  HET A   1)   1.11006   0.84190   0.83475   0.67070
   C(HETATM    3  C3  HET A   1)   1.06160   1.17309   1.11507   1.33440
   O(HETATM    4  O   HET A   1)   1.82798   1.57991   1.41146   1.71324
   H(HETATM    5 1H1  HET A   1)   0.78226
   H(HETATM    6 2H1  HET A   1)   0.79635
   H(HETATM    7 3H1  HET A   1)   0.79152
   H(HETATM    8 1H   HET A   1)   0.54622
   H(HETATM    9 1H3  HET A   1)   0.79153
   H(HETATM   10 2H3  HET A   1)   0.76692
   O(HETATM   11  O   HOH B   2)   1.81020   1.51615   1.69272   1.53025
   H(HETATM   12 2H   HOH B   2)   0.58234
   H(HETATM   13  H   HOH B   2)   0.59014
   H(HETATM   14 2H   HOH B   2)   0.58158

 **********************
 *                    *
 * JOB ENDED NORMALLY *
 *                    *
 **********************



 TOTAL JOB TIME:            24.38 SECONDS

 == MOPAC DONE ==
