 *******************************************************************************
 ** Site#: 37037        For non-commercial use only           Version 21.157W **
 *******************************************************************************
 ** Cite this program as: MOPAC2016, Version: 21.157W, James J. P. Stewart,   **
 ** Stewart Computational Chemistry, web: HTTP://OpenMOPAC.net. Days left: 364**
 *******************************************************************************
 **                                                                           **
 **                                MOPAC2016                                  **
 **                                                                           **
 *******************************************************************************

                              PM7 CALCULATION RESULTS

 *******************************************************************************
 *  CALCULATION DONE:                                Mon Jun  7 08:56:16 2021  *
 *  RESIDUES   - DETERMINE THE SEQUENCE OF RESIDUES
 *
 *
 *
 *                 CHARGE ON SYSTEM = -1
 *
 *
 *
 *  T=         - A TIME OF 172800.0 SECONDS REQUESTED
 *  DUMP=N     - RESTART FILE WRITTEN EVERY 7200.0 SECONDS REQUESTED
 *  HTML       - WRITE HTML SCRIPT TO READ PDB FILE USING JSMOL
 *******************************************************************************
      charge=-1 HTML
     CH3F + Cl(-)

  ATOM    CHEMICAL      BOND LENGTH      BOND ANGLE     TWIST ANGLE 
 NUMBER    SYMBOL       (ANGSTROMS)      (DEGREES)       (DEGREES) 
   (I)                     NA:I           NB:NA:I       NC:NB:NA:I       NA    NB    NC 
     1      Cl          0.00000000       0.0000000       0.0000000        0     0     0
     2       C          2.97550000  *    0.0000000       0.0000000        1     0     0
     3       H          1.09982600  *   97.7808850  *    0.0000000        2     1     0
     4       H          1.09986700  *   97.7753390  *  119.9953020  *     2     1     3
     5       H          1.09980800  *   97.7810140  *  119.9950320  *     2     1     4
     6       F          1.12410000  *   82.2206970  * -179.9915660  *     2     5     1
 


          CARTESIAN COORDINATES 

    NO.       ATOM           X           Y           Z

     1        Cl          0.0000      0.0000      0.0000
     2         C          2.9755      0.0000      0.0000
     3         H          3.1244      1.0897      0.0000
     4         H          3.1243     -0.5448      0.9438
     5         H          3.1244     -0.5450     -0.9436
     6         F          4.0996      0.0002     -0.0001

 General Reference for PM7:
 "Optimization of Parameters for Semiempirical Methods VI: More Modifications to the 
 NDDO Approximations and Re-optimization of Parameters", J. J. P. Stewart, J. Mol. Mod., 1:32, 19 (2013)
 https://link.springer.com/article/10.1007/s00894-012-1667-x

           Empirical Formula: C H3 Cl F  =     6 atoms



      MOLECULAR POINT GROUP   :   C3v 


      RHF CALCULATION, NO. OF DOUBLY OCCUPIED LEVELS = 11


          Geometry optimization using EF

          DIAGONAL MATRIX USED AS START HESSIAN

 CYCLE:     1 TIME:   0.000 TIME LEFT:  2.00D  GRAD.:   831.659 HEAT:  49.86421
 CYCLE:     2 TIME:   0.000 TIME LEFT:  2.00D  GRAD.:   274.452 HEAT: -51.96636
 CYCLE:     3 TIME:   0.016 TIME LEFT:  2.00D  GRAD.:   121.594 HEAT: -90.55753
 CYCLE:     4 TIME:   0.000 TIME LEFT:  2.00D  GRAD.:    42.625 HEAT: -109.7006
 CYCLE:     5 TIME:   0.016 TIME LEFT:  2.00D  GRAD.:    46.176 HEAT: -115.4058
 CYCLE:     6 TIME:   0.000 TIME LEFT:  2.00D  GRAD.:    43.507 HEAT: -117.1390
 CYCLE:     7 TIME:   0.000 TIME LEFT:  2.00D  GRAD.:    10.722 HEAT: -118.4553
 CYCLE:     8 TIME:   0.016 TIME LEFT:  2.00D  GRAD.:     6.995 HEAT: -118.6216
 CYCLE:     9 TIME:   0.000 TIME LEFT:  2.00D  GRAD.:     2.761 HEAT: -118.6508
 CYCLE:    10 TIME:   0.000 TIME LEFT:  2.00D  GRAD.:     1.705 HEAT: -118.6579
 CYCLE:    11 TIME:   0.000 TIME LEFT:  2.00D  GRAD.:     1.563 HEAT: -118.6633
 CYCLE:    12 TIME:   0.000 TIME LEFT:  2.00D  GRAD.:     1.827 HEAT: -118.6720
 CYCLE:    13 TIME:   0.016 TIME LEFT:  2.00D  GRAD.:     2.117 HEAT: -118.6839
 CYCLE:    14 TIME:   0.000 TIME LEFT:  2.00D  GRAD.:     1.838 HEAT: -118.6997
 CYCLE:    15 TIME:   0.000 TIME LEFT:  2.00D  GRAD.:     1.023 HEAT: -118.7051
 CYCLE:    16 TIME:   0.000 TIME LEFT:  2.00D  GRAD.:     0.649 HEAT: -118.7075

     GRADIENT =  0.64916 IS LESS THAN CUTOFF =  1.00000



 -------------------------------------------------------------------------------
 charge=-1 HTML
     CH3F + Cl(-)



     GEOMETRY OPTIMISED USING EIGENVECTOR FOLLOWING (EF).     
     SCF FIELD WAS ACHIEVED                                   


                              PM7 CALCULATION
                                                       MOPAC2016 (Version: 21.157W)
                                                       Mon Jun  7 08:56:16 2021
                                                       No. of days remaining = 364




          FINAL HEAT OF FORMATION =       -118.70755 KCAL/MOL =    -496.67238 KJ/MOL


          TOTAL ENERGY            =       -898.24343 EV
          ELECTRONIC ENERGY       =      -1792.97434 EV  POINT GROUP:     C3v 
          CORE-CORE REPULSION     =        894.73090 EV
          COSMO AREA              =         99.83 SQUARE ANGSTROMS
          COSMO VOLUME            =         79.45 CUBIC ANGSTROMS

          GRADIENT NORM           =          0.64916 = 0.26502 PER ATOM
          IONIZATION POTENTIAL    =          4.290280 EV
          HOMO LUMO ENERGIES (EV) =         -4.290  7.043
          NO. OF FILLED LEVELS    =         11
          MOLECULAR WEIGHT        =         69.4861

          MOLECULAR DIMENSIONS (Angstroms)

            Atom       Atom       Distance
            F     6   Cl     1     4.40342
            H     3    H     4     1.79938
            H     5    H     3     1.55582


          SCF CALCULATIONS        =         17
 
          WALL-CLOCK TIME         =          0.156 SECONDS
          COMPUTATION TIME        =          0.094 SECONDS




  ATOM               CHEMICAL                 BOND LENGTH      BOND ANGLE     TWIST ANGLE 
 NUMBER               SYMBOL                  (ANGSTROMS)      (DEGREES)       (DEGREES) 
   (I)                                           NA:I           NB:NA:I       NC:NB:NA:I       NA    NB    NC 
     1      Cl(HETATM    1 CL    CL A   1)    0.00000000       0.0000000       0.0000000   
     2       C(HETATM    2  C   CH3 B   2)    3.03540855  *    0.0000000       0.0000000        1     0     0
     3       H(HETATM    3 1H   CH3 B   2)    1.10457175  *   70.0339795  *    0.0000000        2     1     0
     4       H(HETATM    4 2H   CH3 B   2)    1.10448358  *   69.9981782  *  120.1625981  *     2     1     3
     5       H(HETATM    5 3H   CH3 B   2)    1.10393799  *   70.1102385  *  119.8692200  *     2     1     4
     6       F(HETATM    6  F   CH3 B   2)    1.36801598  *  110.0262484  *  179.9814042  *     2     5     1

                             CARTESIAN COORDINATES

   1   Cl        0.000000000     0.000000000     0.000000000
   2    C        3.035408550     0.000000000     0.000000000
   3    H        2.658238395     1.038181786     0.000000000
   4    H        2.657619917    -0.521480162     0.897339498
   5    H        2.659836129    -0.518544130    -0.899297742
   6    F        4.403420589     0.001266466     0.003031514


           Empirical Formula: C H3 Cl F  =     6 atoms



      MOLECULAR POINT GROUP   :   C3v 


                  EIGENVALUES  
 -36.45699 -20.52952 -18.53927 -12.99209 -12.98968 -12.11773  -9.03371  -9.02843
  -4.30059  -4.29031  -4.29028   7.04281   9.49942   9.50246  10.22479  84.49601
  84.51753  84.51768  84.65458  84.65458


              NET ATOMIC CHARGES AND DIPOLE CONTRIBUTIONS

  ATOM NO.                 TYPE                        CHARGE      No. of ELECS.   s-Pop       p-Pop       d-Pop       
    1         Cl(HETATM    1 CL    CL A   1)          -0.998388        7.9984     1.99993     5.99735     0.00110
    2          C(HETATM    2  C   CH3 B   2)          -0.183998        4.1840     1.10447     3.07953
    3          H(HETATM    3 1H   CH3 B   2)           0.152763        0.8472     0.84724
    4          H(HETATM    4 2H   CH3 B   2)           0.152731        0.8473     0.84727
    5          H(HETATM    5 3H   CH3 B   2)           0.152471        0.8475     0.84753
    6          F(HETATM    6  F   CH3 B   2)          -0.275579        7.2756     1.96887     5.30671
 DIPOLE           X         Y         Z       TOTAL
 POINT-CHG.     6.195    -0.001    -0.000     6.195
 HYBRID         0.218    -0.001    -0.000     0.218
 SUM            6.414    -0.002    -0.001     6.414


          ATOMIC ORBITAL ELECTRON POPULATIONS

                   Atom                  s        px        py        pz      x^2-y^2     xz        z^2       yz        xy
  Cl(HETATM    1 CL    CL A   1)   1.99993   1.99766   1.99985   1.99985   0.00065   0.00012   0.00022   0.00000   0.00012
   C(HETATM    2  C   CH3 B   2)   1.10447   0.72865   1.17524   1.17564
   H(HETATM    3 1H   CH3 B   2)   0.84724
   H(HETATM    4 2H   CH3 B   2)   0.84727
   H(HETATM    5 3H   CH3 B   2)   0.84753
   F(HETATM    6  F   CH3 B   2)   1.96887   1.31855   1.99409   1.99408

 **********************
 *                    *
 * JOB ENDED NORMALLY *
 *                    *
 **********************



 TOTAL JOB TIME:             0.16 SECONDS

 == MOPAC DONE ==
