 *******************************************************************************
 ** Site#: 37037        For non-commercial use only           Version 21.157W **
 *******************************************************************************
 ** Cite this program as: MOPAC2016, Version: 21.157W, James J. P. Stewart,   **
 ** Stewart Computational Chemistry, web: HTTP://OpenMOPAC.net. Days left: 364**
 *******************************************************************************
 **                                                                           **
 **                                MOPAC2016                                  **
 **                                                                           **
 *******************************************************************************

                              PM7 CALCULATION RESULTS

 *******************************************************************************
 *  CALCULATION DONE:                                Mon Jun  7 08:56:19 2021  *
 *  GEO_DAT    - DATA SET GEOMETRY IS IN FILE "Locate the transition state for the SN2 reaction Cl-CH3-F (-) using (LOCATE-TS).arc"
 *  OPT        - OPTIMIZE COORDINATES OF ALL ATOMS
 *
 *
 *
 *                 CHARGE ON SYSTEM = -1
 *
 *
 *
 *  TS         - USE EF ROUTINE FOR TS SEARCH
 *  T=         - A TIME OF 172800.0 SECONDS REQUESTED
 *  DUMP=N     - RESTART FILE WRITTEN EVERY 7200.0 SECONDS REQUESTED
 *  GNORM      - EXIT WHEN GRADIENT NORM DROPS BELOW 2.000
 *******************************************************************************
geo_dat="Locate the transition state for the SN2 reaction Cl-CH3-F (-) using (LOCATE-TS).arc" TS  gnorm=2  charge=-1 opt
 Refine transition state for F(-) --- CH3Cl <=> CH3F --- Cl(-)

   ATOM                 CHEMICAL                   X               Y               Z
  NUMBER                 SYMBOL               (ANGSTROMS)     (ANGSTROMS)     (ANGSTROMS)
 
     1      Cl(HETATM    1 Cl   HET A   1)    0.40224882  *   0.03289123  *   0.01499592  *
     2       C(HETATM    2  C   HET A   1)    2.58433156  *  -0.00052406  *  -0.00291847  *
     3       H(HETATM    3  H   HET A   1)    2.60936325  *   1.08426094  *   0.00156977  *
     4       H(HETATM    4  H   HET A   1)    2.59413070  *  -0.54545068  *   0.93579981  *
     5       H(HETATM    5  H   HET A   1)    2.56672497  *  -0.54081130  *  -0.94683075  *
     6       F(HETATM    6  F   HET A   1)    4.49567963  *  -0.04122446  *  -0.04892344  *
 

 General Reference for PM7:
 "Optimization of Parameters for Semiempirical Methods VI: More Modifications to the 
 NDDO Approximations and Re-optimization of Parameters", J. J. P. Stewart, J. Mol. Mod., 1:32, 19 (2013)
 https://link.springer.com/article/10.1007/s00894-012-1667-x

           Empirical Formula: C H3 Cl F  =     6 atoms



      MOLECULAR POINT GROUP   :   C3v 


      RHF CALCULATION, NO. OF DOUBLY OCCUPIED LEVELS = 11


          Transition state refinement using EF

          HESSIAN CALCULATED NUMERICALLY

 CYCLE:     1 TIME:   0.047 TIME LEFT:  2.00D  GRAD.:    21.527 HEAT: -81.96313
 CYCLE:     2 TIME:   0.000 TIME LEFT:  2.00D  GRAD.:     2.342 HEAT: -81.54073
 CYCLE:     3 TIME:   0.016 TIME LEFT:  2.00D  GRAD.:     0.393 HEAT: -81.53762

     GRADIENT =  0.39317 IS LESS THAN CUTOFF =  2.00000



 -------------------------------------------------------------------------------
 TS  gnorm=2  charge=-1 opt
 Refine transition state for F(-) --- CH3Cl <=> CH3F --- Cl(-)



     GEOMETRY OPTIMISED USING EIGENVECTOR FOLLOWING (TS).     
     SCF FIELD WAS ACHIEVED                                   


                              PM7 CALCULATION
                                                       MOPAC2016 (Version: 21.157W)
                                                       Mon Jun  7 08:56:19 2021
                                                       No. of days remaining = 364




          FINAL HEAT OF FORMATION =        -81.53762 KCAL/MOL =    -341.15340 KJ/MOL


          TOTAL ENERGY            =       -896.63205 EV
          ELECTRONIC ENERGY       =      -1798.66930 EV  POINT GROUP:     C3v 
          CORE-CORE REPULSION     =        902.03725 EV
          COSMO AREA              =         96.84 SQUARE ANGSTROMS
          COSMO VOLUME            =         77.16 CUBIC ANGSTROMS

          GRADIENT NORM           =          0.39317 = 0.16051 PER ATOM
          IONIZATION POTENTIAL    =          5.372306 EV
          HOMO LUMO ENERGIES (EV) =         -5.372  4.877
          NO. OF FILLED LEVELS    =         11
          MOLECULAR WEIGHT        =         69.4861

          MOLECULAR DIMENSIONS (Angstroms)

            Atom       Atom       Distance
            F     6   Cl     1     4.07540
            H     4    H     3     1.87210
            H     3    H     5     1.62125


          SCF CALCULATIONS        =         22
 
          WALL-CLOCK TIME         =          0.094 SECONDS
          COMPUTATION TIME        =          0.078 SECONDS




   ATOM                 CHEMICAL                   X               Y               Z
  NUMBER                 SYMBOL               (ANGSTROMS)     (ANGSTROMS)     (ANGSTROMS)
 
     1      Cl(HETATM    1 Cl   HET A   1)    0.42936602  *   0.03418866  *   0.01943213  *
     2       C(HETATM    2  C   HET A   1)    2.52909169  *  -0.00293195  *  -0.01142758  *
     3       H(HETATM    3  H   HET A   1)    2.60754814  *   1.07669522  *  -0.00874154  *
     4       H(HETATM    4  H   HET A   1)    2.59256957  *  -0.54766089  *   0.92184775  *
     5       H(HETATM    5  H   HET A   1)    2.56534973  *  -0.54097055  *  -0.95001099  *
     6       F(HETATM    6  F   HET A   1)    4.50365264  *  -0.03879390  *  -0.04189672  *

                             CARTESIAN COORDINATES

   1   Cl        0.429366018     0.034188660     0.019432126
   2    C        2.529091687    -0.002931945    -0.011427584
   3    H        2.607548140     1.076695223    -0.008741535
   4    H        2.592569567    -0.547660894     0.921847751
   5    H        2.565349729    -0.540970553    -0.950010989
   6    F        4.503652637    -0.038793900    -0.041896717


           Empirical Formula: C H3 Cl F  =     6 atoms



      MOLECULAR POINT GROUP   :   C3v 


                  EIGENVALUES  
 -28.44396 -21.75672 -19.23105 -10.43471 -10.43416  -7.90130  -6.64957  -6.64950
  -6.30004  -6.30000  -5.37231   4.87735   9.85449  10.03428  10.03497  79.43805
  79.57837  79.57838  80.20520  80.20520


              NET ATOMIC CHARGES AND DIPOLE CONTRIBUTIONS

  ATOM NO.                 TYPE                        CHARGE      No. of ELECS.   s-Pop       p-Pop       d-Pop       
    1         Cl(HETATM    1 Cl   HET A   1)          -0.715082        7.7151     1.99438     5.71728     0.00342
    2          C(HETATM    2  C   HET A   1)           0.137807        3.8622     1.17977     2.68243
    3          H(HETATM    3  H   HET A   1)           0.135210        0.8648     0.86479
    4          H(HETATM    4  H   HET A   1)           0.135221        0.8648     0.86478
    5          H(HETATM    5  H   HET A   1)           0.135322        0.8647     0.86468
    6          F(HETATM    6  F   HET A   1)          -0.828478        7.8285     1.99782     5.83065

          NET CHARGE ON RESIDUES

      Residue         Charge  Anion or
                              Cation?
      HET A   1       -1.000  ANION
 


 DIPOLE           X         Y         Z       TOTAL
 POINT-CHG.    -3.070     0.057     0.049     3.071
 HYBRID         0.000     0.000     0.000     0.000
 SUM           -3.070     0.057     0.049     3.071


          ATOMIC ORBITAL ELECTRON POPULATIONS

                   Atom                  s        px        py        pz      x^2-y^2     xz        z^2       yz        xy
  Cl(HETATM    1 Cl   HET A   1)   1.99438   1.71757   1.99984   1.99987   0.00174   0.00054   0.00058   0.00001   0.00055
   C(HETATM    2  C   HET A   1)   1.17977   0.45662   1.11284   1.11297
   H(HETATM    3  H   HET A   1)   0.86479
   H(HETATM    4  H   HET A   1)   0.86478
   H(HETATM    5  H   HET A   1)   0.86468
   F(HETATM    6  F   HET A   1)   1.99782   1.83076   1.99994   1.99996
 *******************************************************************************
 ** Site#: 37037        For non-commercial use only           Version 21.157W **
 *******************************************************************************
 ** Cite this program as: MOPAC2016, Version: 21.157W, James J. P. Stewart,   **
 ** Stewart Computational Chemistry, web: HTTP://OpenMOPAC.net. Days left: 364**
 *******************************************************************************
 **                                                                           **
 **                                MOPAC2016                                  **
 **                                                                           **
 *******************************************************************************

                              PM7 CALCULATION RESULTS

 *******************************************************************************
 *  CALCULATION DONE:                                Mon Jun  7 08:56:19 2021  *
 *
 *
 *
 *                 CHARGE ON SYSTEM = -1
 *
 *
 *
 *  IRC=N      - INTRINSIC REACTION COORDINATE -1 DEFINED
 *  DRC        - DYNAMIC REACTION COORDINATE CALCULATION
 *  OLDGEO     - PREVIOUS GEOMETRY TO BE USED
 *  T=         - A TIME OF 172800.0 SECONDS REQUESTED
 *  DUMP=N     - RESTART FILE WRITTEN EVERY 7200.0 SECONDS REQUESTED
 *  CYCLES=    - DO A MAXIMUM OF 100 STEPS
 *  HTML       - WRITE HTML SCRIPT TO GENERATE ANIMATION USING JSMOL
 *             - TO DISPLAY IN PDB FORMAT, ADD "PDBOUT"
 *  T-PRIOR    - TIME TAKES PRIORITY IN DRC
 *******************************************************************************
oldgeo  charge=-1 IRC=-1* HTML DRC T-priority=1 cycles=100
 Reaction path for F(-) --- CH3Cl <=> CH3F --- Cl(-)

   ATOM                 CHEMICAL                   X               Y               Z
  NUMBER                 SYMBOL               (ANGSTROMS)     (ANGSTROMS)     (ANGSTROMS)
 
     1      Cl(HETATM    1 Cl   HET A   1)    0.42936602  *   0.03418866  *   0.01943213  *
     2       C(HETATM    2  C   HET A   1)    2.52909169  *  -0.00293195  *  -0.01142758  *
     3       H(HETATM    3  H   HET A   1)    2.60754814  *   1.07669522  *  -0.00874154  *
     4       H(HETATM    4  H   HET A   1)    2.59256957  *  -0.54766089  *   0.92184775  *
     5       H(HETATM    5  H   HET A   1)    2.56534973  *  -0.54097055  *  -0.95001099  *
     6       F(HETATM    6  F   HET A   1)    4.50365264  *  -0.03879390  *  -0.04189672  *
 

 General Reference for PM7:
 "Optimization of Parameters for Semiempirical Methods VI: More Modifications to the 
 NDDO Approximations and Re-optimization of Parameters", J. J. P. Stewart, J. Mol. Mod., 1:32, 19 (2013)
 https://link.springer.com/article/10.1007/s00894-012-1667-x

           Empirical Formula: C H3 Cl F  =     6 atoms



      MOLECULAR POINT GROUP   :   C3v 


      RHF CALCULATION, NO. OF DOUBLY OCCUPIED LEVELS = 11



          HEAT OF FORMATION =     -81.537619 KCALS/MOLE


          GRADIENT NORM =   0.39406


          TIME FOR SCF CALCULATION =    0.02

          TIME FOR DERIVATIVES     =    0.00

          MOLECULAR WEIGHT =   69.49


          ESTIMATED TIME TO COMPLETE CALCULATION =        0.56 SECONDS

    FOR POINT-GROUP C3v  THERE ARE   6 UNIQUE SYMMETRY FUNCTIONS.

 STEP:   1 TIME =     0.00 SECS, INTEGRAL =      0.00 TIME LEFT: 172799.98
 STEP:   2 TIME =     0.00 SECS, INTEGRAL =      0.00 TIME LEFT: 172799.98
 STEP:   3 TIME =     0.02 SECS, INTEGRAL =      0.02 TIME LEFT: 172799.97
 STEP:   4 TIME =     0.00 SECS, INTEGRAL =      0.02 TIME LEFT: 172799.97
 STEP:   5 TIME =     0.00 SECS, INTEGRAL =      0.02 TIME LEFT: 172799.97
 STEP:   6 TIME =     0.02 SECS, INTEGRAL =      0.03 TIME LEFT: 172799.95
 STEP:   7 TIME =     0.00 SECS, INTEGRAL =      0.03 TIME LEFT: 172799.95
 STEP:   8 TIME =     0.00 SECS, INTEGRAL =      0.03 TIME LEFT: 172799.95
 STEP:   9 TIME =     0.00 SECS, INTEGRAL =      0.03 TIME LEFT: 172799.95
 STEP:  10                       INTEGRAL =      0.03 TIME LEFT: 172799.95
 STEP:  11                       INTEGRAL =      0.03 TIME LEFT: 172799.95
 STEP:  12                       INTEGRAL =      0.03 TIME LEFT: 172799.95
 STEP:  13                       INTEGRAL =      0.03 TIME LEFT: 172799.95
 STEP:  14                       INTEGRAL =      0.03 TIME LEFT: 172799.95
 STEP:  15                       INTEGRAL =      0.03 TIME LEFT: 172799.95
 STEP:  16 TIME =     0.00 SECS, INTEGRAL =      0.03 TIME LEFT: 172799.95
 STEP:  17 TIME =     0.00 SECS, INTEGRAL =      0.03 TIME LEFT: 172799.95
 STEP:  18 TIME =     0.02 SECS, INTEGRAL =      0.05 TIME LEFT: 172799.94
           INITIAL VELOCITY IN DRC (Angstroms/Femtosecond)
        -0.06100        -0.00001        -0.00002
         0.59126        -0.00012        -0.00018
        -0.00550         0.02904         0.00002
        -0.00550        -0.01450         0.02516
        -0.00547        -0.01450        -0.02512
        -0.25910         0.00010         0.00015
 THE VIBRATIONAL FREQUENCY (  -505.00CM(-1)) IS TOO SMALL
 FOR ONE QUANTUM TO BE USED
 INSTEAD 0.3KCAL/MOLE WILL BE USED TO START THE IRC

 TIME PRIORITY, INTERVAL = 1.00 FEMTOSECONDS



 FEMTOSECONDS  POINT  POTENTIAL + KINETIC  =   TOTAL     ERROR    REF%   MOVEMENT
     0.000       1   -81.53762    0.30000   -81.23762   0.00000     1   %  0.0000
     1.000       2   -81.53906    0.30069   -81.23836  -0.00075     2   %  0.0067
     2.000       2   -81.54582    0.30748   -81.23835  -0.00073     3   %  0.0136
     3.000       6   -81.55798    0.31978   -81.23820  -0.00058     4   %  0.0207
     4.000       7   -81.57574    0.33815   -81.23758   0.00004     5   %  0.0279
     5.000       8   -81.59952    0.36193   -81.23759   0.00003     6   %  0.0354
     6.000      10   -81.62979    0.39221   -81.23758   0.00004     7   %  0.0432
     7.000      11   -81.66724    0.42966   -81.23758   0.00004     8   %  0.0512
     8.000      12   -81.71265    0.47508   -81.23757   0.00005     9   %  0.0596
     9.000      13   -81.76693    0.52937   -81.23756   0.00006    10   %  0.0685
    10.000      14   -81.83108    0.59354   -81.23754   0.00008    11   %  0.0779
    11.000      15   -81.90621    0.66870   -81.23752   0.00010    12   %  0.0880
    12.000      16   -81.99350    0.75602   -81.23748   0.00014    13   %  0.0988
    13.000      17   -82.09413    0.85672   -81.23742   0.00020    14   %  0.1106
    14.000      18   -82.20929    0.97195   -81.23734   0.00028    15   %  0.1232
    15.000      19   -82.34000    1.10277   -81.23723   0.00040    16   %  0.1368
    16.000      19   -82.48702    1.24994   -81.23708   0.00054    17   %  0.1514
    17.000      20   -82.65107    1.41419   -81.23688   0.00074    18   %  0.1670
    18.000      21   -82.83235    1.59574   -81.23661   0.00102    19   %  0.1836
    19.000      22   -83.03002    1.79378   -81.23624   0.00139    20   %  0.2013
    20.000      22   -83.24400    2.00830   -81.23570   0.00193    21   %  0.2202
    21.000      23   -83.47197    2.23642   -81.23555   0.00209    22   %  0.2404
    22.000      23   -83.70940    2.47426   -81.23514   0.00249    23   %  0.2619
    23.000      24   -83.95645    2.72255   -81.23390   0.00374    24   %  0.2850
    24.000      25   -84.20458    2.97186   -81.23272   0.00491    25   %  0.3097
    25.000      25   -84.44808    3.21648   -81.23161   0.00603    26   %  0.3359
    26.000      26   -84.68158    3.45354   -81.22804   0.00960    27   %  0.3636
    27.000      26   -84.89401    3.66516   -81.22885   0.00880    28   %  0.3926
    28.000      28   -85.08073    3.84480   -81.23593   0.00172    29   %  0.4228
    29.000      29   -85.23211    3.99587   -81.23624   0.00141    30   %  0.4538
    30.000      30   -85.34064    4.10394   -81.23671   0.00094    31   %  0.4856
    31.000      32   -85.40057    4.16354   -81.23703   0.00063    32   %  0.5179
    32.000      33   -85.40834    4.17111   -81.23723   0.00042    33   %  0.5507
    33.000      35   -85.36345    4.12608   -81.23737   0.00029    34   %  0.5837
    34.000      37   -85.26935    4.03188   -81.23747   0.00019    35   %  0.6168
    35.000      39   -85.13373    3.89617   -81.23756   0.00011    36   %  0.6497
    36.000      41   -84.96856    3.73092   -81.23764   0.00003    37   %  0.6821
    37.000      42   -84.78963    3.55190   -81.23774  -0.00006    38   %  0.7134
    38.000      44   -84.61522    3.37737   -81.23785  -0.00018    39   %  0.7434
    39.000      46   -84.46591    3.22794   -81.23796  -0.00029    40   %  0.7714
    40.000      47   -84.36005    3.12202   -81.23803  -0.00035    41   %  0.7971
    41.000      48   -84.31438    3.07638   -81.23800  -0.00032    42   %  0.8202
    42.000      50   -84.33927    3.10142   -81.23785  -0.00017    43   %  0.8404
    43.000      51   -84.43915    3.20156   -81.23759   0.00009    44   %  0.8577
    44.000      52   -84.61074    3.37350   -81.23724   0.00045    45   %  0.8712
    45.000      53   -84.84353    3.60683   -81.23670   0.00099    46   %  0.8859
    46.000      54   -85.12141    3.88435   -81.23705   0.00064    47   %  0.9043
    47.000      56   -85.42586    4.18847   -81.23739   0.00031    48   %  0.9225
    48.000      58   -85.73506    4.49753   -81.23753   0.00017    49   %  0.9391
    49.000      60   -86.02819    4.79060   -81.23759   0.00011    50   %  0.9542
    50.000      62   -86.28664    5.04901   -81.23763   0.00007    51   %  0.9679
    51.000      64   -86.49545    5.25777   -81.23767   0.00004    52   %  0.9801
    52.000      66   -86.64402    5.40631   -81.23770   0.00001    53   %  0.9911
    53.000      69   -86.72626    5.48852   -81.23774  -0.00002    54   %  1.0010
    54.000      71   -86.74030    5.50253   -81.23778  -0.00006    55   %  1.0101
    55.000      73   -86.68810    5.45028   -81.23782  -0.00010    56   %  1.0188
    56.000      74   -86.57483    5.33696   -81.23787  -0.00015    57   %  1.0273
    57.000      76   -86.40795    5.17002   -81.23794  -0.00020    58   %  1.0362
    58.000      78   -86.19713    4.95913   -81.23800  -0.00027    59   %  1.0457
    59.000      79   -85.95300    4.71494   -81.23806  -0.00032    60   %  1.0561
    60.000      81   -85.68658    4.44847   -81.23811  -0.00037    61   %  1.0677
    61.000      82   -85.40859    4.17049   -81.23810  -0.00036    62   %  1.0807
    62.000      83   -85.13020    3.89206   -81.23814  -0.00040    63   %  1.0951
    63.000      84   -84.86129    3.62312   -81.23817  -0.00042    64   %  1.1111
    64.000      85   -84.61083    3.37267   -81.23816  -0.00041    65   %  1.1287
    65.000      86   -84.38672    3.14860   -81.23813  -0.00037    66   %  1.1480
    66.000      87   -84.19565    2.95757   -81.23807  -0.00032    67   %  1.1689
    67.000      88   -84.04293    2.80492   -81.23801  -0.00025    68   %  1.1916
    68.000      89   -83.93258    2.69467   -81.23791  -0.00015    69   %  1.2161
    69.000      90   -83.86732    2.62948   -81.23784  -0.00008    70   %  1.2425
    70.000      91   -83.84839    2.61073   -81.23766   0.00011    71   %  1.2708
    71.000      92   -83.87518    2.63782   -81.23736   0.00040    72   %  1.3008
    72.000      92   -83.94608    2.70908   -81.23700   0.00076    73   %  1.3325
    73.000      93   -84.05820    2.82160   -81.23660   0.00117    74   %  1.3656
    74.000      94   -84.20521    2.96907   -81.23614   0.00163    75   %  1.3998
    75.000      94   -84.37827    3.14263   -81.23565   0.00213    76   %  1.4350
    76.000      95   -84.57351    3.33915   -81.23437   0.00341    77   %  1.4710
    77.000      96   -84.77539    3.53913   -81.23627   0.00151    78   %  1.5076
    78.000      97   -84.97460    3.73746   -81.23714   0.00064    79   %  1.5447
    79.000      99   -85.15724    3.92007   -81.23717   0.00062    80   %  1.5825
    80.000     100   -85.30924    4.07193   -81.23731   0.00048    81   %  1.6208
    81.000     102   -85.41732    4.17991   -81.23741   0.00038    82   %  1.6596
    82.000     104   -85.46872    4.23123   -81.23749   0.00030    83   %  1.6989
    83.000     106   -85.45280    4.21524   -81.23756   0.00023    84   %  1.7386
    84.000     109   -85.36202    4.12439   -81.23763   0.00017    85   %  1.7784
    85.000     111   -85.19328    3.95558   -81.23769   0.00011    86   %  1.8179
    86.000     114   -84.94933    3.71159   -81.23774   0.00006    87   %  1.8568
    87.000     116   -84.63936    3.40157   -81.23779   0.00001    88   %  1.8948
    88.000     119   -84.27957    3.04173   -81.23784  -0.00003    89   %  1.9316
    89.000     121   -83.89212    2.65424   -81.23788  -0.00007    90   %  1.9667
    90.000     123   -83.50422    2.26628   -81.23795  -0.00013    91   %  1.9999
    91.000     125   -83.14528    1.90727   -81.23801  -0.00020    92   %  2.0310
    92.000     127   -82.84431    1.60626   -81.23805  -0.00024    93   %  2.0599
    93.000     129   -82.62650    1.38848   -81.23802  -0.00021    94   %  2.0862
    94.000     131   -82.50959    1.27170   -81.23789  -0.00008    95   %  2.1098
    95.000     132   -82.50095    1.26327   -81.23768   0.00014    96   %  2.1304
    96.000     133   -82.59662    1.35925   -81.23737   0.00044    97   %  2.1478
    97.000     135   -82.78358    1.54659   -81.23699   0.00083    98   %  2.1619
    98.000     136   -83.03791    1.80051   -81.23741   0.00041    99   %  2.1724
    99.000     138   -83.33299    2.09542   -81.23758   0.00024   100   %  2.1795


           INITIAL VELOCITY IN DRC (Angstroms/Femtosecond)
         0.06100         0.00001         0.00002
        -0.59126         0.00012         0.00018
         0.00550        -0.02904        -0.00002
         0.00550         0.01450        -0.02516
         0.00547         0.01450         0.02512
         0.25910        -0.00010        -0.00015
 THE VIBRATIONAL FREQUENCY (  -505.00CM(-1)) IS TOO SMALL
 FOR ONE QUANTUM TO BE USED
 INSTEAD 0.3KCAL/MOLE WILL BE USED TO START THE IRC

 TIME PRIORITY, INTERVAL = 1.00 FEMTOSECONDS



 FEMTOSECONDS  POINT  POTENTIAL + KINETIC  =   TOTAL     ERROR    REF%   MOVEMENT
     0.000       1   -81.53762    0.30000   -81.23762   0.00000     1   %  0.0000
     1.000       2   -81.54164    0.30324   -81.23840  -0.00078     2   %  0.0067
     2.000       2   -81.55139    0.31298   -81.23841  -0.00080     3   %  0.0133
     3.000       6   -81.56752    0.32992   -81.23760   0.00002     4   %  0.0200
     4.000       7   -81.59076    0.35313   -81.23763  -0.00001     5   %  0.0269
     5.000       8   -81.62231    0.38467   -81.23764  -0.00002     6   %  0.0341
     6.000      10   -81.66361    0.42595   -81.23766  -0.00004     7   %  0.0417
     7.000      11   -81.71673    0.47904   -81.23769  -0.00007     8   %  0.0498
     8.000      12   -81.78432    0.54659   -81.23773  -0.00011     9   %  0.0584
     9.000      13   -81.86977    0.63198   -81.23780  -0.00018    10   %  0.0677
    10.000      14   -81.97747    0.73957   -81.23789  -0.00027    11   %  0.0776
    11.000      15   -82.11309    0.87504   -81.23805  -0.00043    12   %  0.0882
    12.000      16   -82.28425    1.04599   -81.23825  -0.00063    13   %  0.0996
    13.000      17   -82.50066    1.26254   -81.23811  -0.00049    14   %  0.1120
    14.000      18   -82.77449    1.53634   -81.23815  -0.00052    15   %  0.1255
    15.000      20   -83.12148    1.88349   -81.23800  -0.00037    16   %  0.1403
    16.000      21   -83.56371    2.32585   -81.23787  -0.00024    17   %  0.1568
    17.000      23   -84.12754    2.88973   -81.23781  -0.00018    18   %  0.1751
    18.000      26   -84.84912    3.61136   -81.23776  -0.00013    19   %  0.1955
    19.000      28   -85.77387    4.53612   -81.23775  -0.00011    20   %  0.2185
    20.000      31   -86.96059    5.72292   -81.23768  -0.00004    21   %  0.2445
    21.000      34   -88.48130    7.24368   -81.23762   0.00003    22   %  0.2741
    22.000      37   -90.42213    9.18463   -81.23750   0.00015    23   %  0.3078
    23.000      41   -92.87648   11.63917   -81.23730   0.00035    24   %  0.3466
    24.000      44   -95.92877   14.69213   -81.23665   0.00102    25   %  0.3915
    25.000      47   -99.61431   18.37965   -81.23466   0.00302    26   %  0.4434
    26.000      49  -103.83988   22.61031   -81.22957   0.00812    27   %  0.5030
    27.000      53  -108.25625   27.01983   -81.23642   0.00129    28   %  0.5709
    28.000      62  -112.09241   30.85516   -81.23725   0.00048    29   %  0.6470
    29.000      72  -114.04728   32.81014   -81.23714   0.00061    30   %  0.7302
    30.000      82  -112.50013   31.26295   -81.23718   0.00060    31   %  0.8178
    31.000      92  -106.39021   25.15273   -81.23748   0.00032    32   %  0.9053
    32.000     102   -96.72648   15.48856   -81.23792  -0.00011    33   %  0.9856
    33.000     112   -87.48710    6.24898   -81.23811  -0.00030    34   %  1.0506
    34.000     122   -83.88354    2.64573   -81.23781   0.00001    35   %  1.0924
    35.000     131   -88.29155    7.05402   -81.23752   0.00030    36   %  1.1059
    36.000     141   -98.07253   16.83496   -81.23757   0.00026    37   %  1.0907
    37.000     151  -108.04082   26.80294   -81.23787  -0.00003    38   %  1.0512
    38.000     161  -114.40150   33.16339   -81.23811  -0.00024    39   %  0.9959
    39.000     171  -116.21133   34.97313   -81.23820  -0.00031    40   %  0.9357
    40.000     181  -114.45543   33.21725   -81.23819  -0.00027    41   %  0.8799
    41.000     191  -110.70541   29.46724   -81.23818  -0.00024    42   %  0.8332
    42.000     199  -106.33350   25.09512   -81.23838  -0.00042    43   %  0.7943
    43.000     204  -102.22579   20.98747   -81.23832  -0.00035    44   %  0.7600
    44.000     208   -98.75188   17.51400   -81.23788   0.00010    45   %  0.7332
    45.000     212   -95.88708   14.64978   -81.23730   0.00069    46   %  0.7496
    46.000     216   -93.43618   12.19838   -81.23780   0.00020    47   %  0.7686
    47.000     220   -91.27299   10.03475   -81.23823  -0.00022    48   %  0.7898
    48.000     223   -89.44573    8.20716   -81.23856  -0.00054    49   %  0.8103
    49.000     226   -88.08575    6.84785   -81.23790   0.00012    50   %  0.8264
    50.000     228   -87.21688    5.98078   -81.23610   0.00193    51   %  0.8369
    51.000     231   -86.68434    5.44697   -81.23737   0.00066    52   %  0.8448
    52.000     235   -86.28526    5.04717   -81.23809  -0.00005    53   %  0.8559
    53.000     239   -85.96178    4.72320   -81.23858  -0.00054    54   %  0.8754
    54.000     242   -85.85391    4.61514   -81.23878  -0.00073    55   %  0.9044
    55.000     245   -86.17374    4.93582   -81.23792   0.00012    56   %  0.9419
    56.000     247   -87.03106    5.79505   -81.23601   0.00204    57   %  0.9881
    57.000     250   -88.36355    7.12622   -81.23733   0.00072    58   %  1.0443
    58.000     254   -90.03352    8.79563   -81.23788   0.00018    59   %  1.1110
    59.000     259   -92.00833   10.77014   -81.23819  -0.00013    60   %  1.1852
    60.000     263   -94.45504   13.21661   -81.23843  -0.00036    61   %  1.2622
    61.000     267   -97.63597   16.39802   -81.23795   0.00014    62   %  1.3377
    62.000     269  -101.67147   20.43560   -81.23586   0.00223    63   %  1.4101
    63.000     272  -106.37064   25.13482   -81.23582   0.00229    64   %  1.4806
    64.000     278  -111.22961   29.99192   -81.23769   0.00044    65   %  1.5522
    65.000     288  -115.48393   34.24610   -81.23784   0.00032    66   %  1.6272
    66.000     298  -118.04456   36.80686   -81.23770   0.00048    67   %  1.7070
    67.000     308  -117.46761   36.22996   -81.23765   0.00056    68   %  1.7916
    68.000     318  -112.44112   31.20330   -81.23783   0.00040    69   %  1.8803
    69.000     328  -103.12699   21.88876   -81.23823   0.00002    70   %  1.9708
    70.000     338   -92.58622   11.34767   -81.23854  -0.00029    71   %  2.0588
    71.000     348   -86.13800    4.89960   -81.23840  -0.00013    72   %  2.1377
    72.000     357   -87.67053    6.43250   -81.23803   0.00023    73   %  2.2001
    73.000     367   -96.20529   14.96733   -81.23796   0.00031    74   %  2.2406
    74.000     377  -106.87223   25.63399   -81.23824   0.00005    75   %  2.2578
    75.000     387  -114.88470   33.64615   -81.23855  -0.00024    76   %  2.2555
    76.000     397  -118.09380   36.85508   -81.23872  -0.00039    77   %  2.2404
    77.000     407  -116.88681   35.64805   -81.23876  -0.00040    78   %  2.2198
    78.000     417  -112.93294   31.69425   -81.23869  -0.00030    79   %  2.1992
    79.000     426  -108.02775   26.78895   -81.23880  -0.00040    80   %  2.1810
    80.000     432  -103.39669   22.15804   -81.23865  -0.00023    81   %  2.1666
    81.000     437   -99.46926   18.23130   -81.23796   0.00047    82   %  2.1572
    82.000     441   -96.06822   14.83016   -81.23806   0.00039    83   %  2.1546
    83.000     447   -92.87451   11.63608   -81.23843   0.00002    84   %  2.1593
    84.000     452   -89.87320    8.63432   -81.23888  -0.00042    85   %  2.1692
    85.000     456   -87.43239    6.19336   -81.23904  -0.00057    86   %  2.1803
    86.000     460   -85.93150    4.69389   -81.23761   0.00086    87   %  2.1895
    87.000     463   -85.33135    4.09395   -81.23739   0.00108    88   %  2.1977
    88.000     469   -85.19721    3.95883   -81.23838   0.00010    89   %  2.2095
    89.000     474   -85.15131    3.91261   -81.23871  -0.00023    90   %  2.2311
    90.000     479   -85.24204    4.00296   -81.23907  -0.00059    91   %  2.2663
    91.000     483   -85.87181    4.63288   -81.23893  -0.00044    92   %  2.3159
    92.000     487   -87.42129    6.18376   -81.23753   0.00096    93   %  2.3791
    93.000     490   -89.92369    8.68648   -81.23720   0.00129    94   %  2.4550
    94.000     496   -93.05353   11.81541   -81.23812   0.00038    95   %  2.5421
    95.000     502   -96.43479   15.19639   -81.23840   0.00011    96   %  2.6377
    96.000     508  -100.00637   18.76779   -81.23858  -0.00006    97   %  2.7367
    97.000     513  -104.05995   22.82171   -81.23824   0.00029    98   %  2.8328
    98.000     518  -108.77385   27.53613   -81.23772   0.00083    99   %  2.9209
    99.000     527  -113.56247   32.32424   -81.23823   0.00034   100   %  2.9994



 **********************
 *                    *
 * JOB ENDED NORMALLY *
 *                    *
 **********************



 TOTAL JOB TIME:             4.02 SECONDS

 == MOPAC DONE ==
