 *******************************************************************************
 ** Site#: 37037        For non-commercial use only           Version 21.157W **
 *******************************************************************************
 ** Cite this program as: MOPAC2016, Version: 21.157W, James J. P. Stewart,   **
 ** Stewart Computational Chemistry, web: HTTP://OpenMOPAC.net. Days left: 364**
 *******************************************************************************
 **                                                                           **
 **                                MOPAC2016                                  **
 **                                                                           **
 *******************************************************************************

                              PM7 CALCULATION RESULTS

 *******************************************************************************
 *  CALCULATION DONE:                                Mon Jun  7 08:56:13 2021  *
 *  GEO_DAT    - DATA SET GEOMETRY IS IN FILE "CH3Cl -- F(-).arc"
 *  GEO_REF    - REFERENCE GEOMETRY IS IN FILE "CH3F -- Cl(-).arc"
 *               (NO BIAS TOWARDS THE REFERENCE GEOMETRY WILL BE APPLIED)
 *  OPT        - OPTIMIZE COORDINATES OF ALL ATOMS
 *
 *
 *
 *                 CHARGE ON SYSTEM = -1
 *
 *
 *
 *  EPS=78.4   - USE ANDREAS KLAMT'S COSMO IMPLICIT SOLVATION MODEL
 *  LOCATE-TS  - LOCATE A TRANSITION STATE USING REACTANTS AND PRODUCTS
 *  T=         - A TIME OF 172800.0 SECONDS REQUESTED
 *  DUMP=N     - RESTART FILE WRITTEN EVERY 7200.0 SECONDS REQUESTED
 *  GNORM      - EXIT WHEN GRADIENT NORM DROPS BELOW 2.000
 *  HTML       - WRITE HTML SCRIPT TO READ PDB FILE USING JSMOL
 *******************************************************************************
geo_ref="CH3F -- Cl(-).arc" geo_dat="CH3Cl -- F(-).arc" locate-ts(C:10,30,120,120,140;SET:1) opt charge=-1 eps=78.4 gnorm=2   HTML
 Transition state for CH3Cl --- F(-) <=> Cl(-) --- CH3F

   ATOM                 CHEMICAL                   X               Y               Z
  NUMBER                 SYMBOL               (ANGSTROMS)     (ANGSTROMS)     (ANGSTROMS)
 
     1      Cl(HETATM    1 Cl   HET A   1)    0.00000000  *   0.00000000  *   0.00000000  *
     2       C(HETATM    2  C   HET A   1)    1.82380532  *   0.00000000  *   0.00000000  *
     3       H(HETATM    3  H   HET A   1)    2.14387924  *   1.04249511  *   0.00000000  *
     4       H(HETATM    4  H   HET A   1)    2.14404611  *  -0.51709641  *   0.90493875  *
     5       H(HETATM    5  H   HET A   1)    2.14875990  *  -0.52090013  *  -0.90036699  *
     6       F(HETATM    6  F   HET A   1)    4.44407834  *   0.00940136  *   0.01403903  *
 

                        After docking

                     Atoms that move a lot

                     Atom Label             GEO_REF Coordinates       Movement    Integral

            (HETATM    2  C   HET A   1)   3.032   0.000   0.000        0.76         0.76
            (HETATM    6  F   HET A   1)   4.399  -0.002  -0.002        0.49         1.25
            (HETATM    1 Cl   HET A   1)   0.000   0.000   0.000        0.45         1.70
            (HETATM    3  H   HET A   1)   2.653   1.037   0.000        0.0600       1.76
            (HETATM    4  H   HET A   1)   2.652  -0.524   0.895        0.0596       1.82
            (HETATM    5  H   HET A   1)   2.650  -0.519  -0.899        0.0594       1.88

     Residues that move a lot and their (Movement in Angstroms, per atom)


   Difference between GEO_DAT and GEO_REF: 1.879 = total,  0.3132 = Average,  0.4147 = RMS, in Angstroms

 General Reference for PM7:
 "Optimization of Parameters for Semiempirical Methods VI: More Modifications to the 
 NDDO Approximations and Re-optimization of Parameters", J. J. P. Stewart, J. Mol. Mod., 1:32, 19 (2013)
 https://link.springer.com/article/10.1007/s00894-012-1667-x

           Empirical Formula: C H3 Cl F  =     6 atoms



      MOLECULAR POINT GROUP   :   C3v 

   Ion                PDB Label        Charge     Distance        PDB label for Salt Bridge   Charge
 

                 All other ions

    1     (HETATM    6  F   HET A   1)   -1

          COMPUTED CHARGE ON SYSTEM: -1, THIS IS THE SAME AS THE CHARGE DEFINED IN THE DATA-SET.

 Set 1: Atoms involved in covalent bond-breaking and bond-making                  Connectivity of atoms

                                                                             Data-set                  Reference
                                     (PDB labels from GEO-REF)
   1    Atom:  Cl     1  PDB Label: (HETATM    1 Cl   HET A   1)           2
   2    Atom:   C     2  PDB Label: (HETATM    2  C   HET A   1)           1     3     4     5        3     4     5     6
   3    Atom:   F     6  PDB Label: (HETATM    6  F   HET A   1)                                      2

 Set 2 : Atoms involved in covalent bond-breaking and bond-making, plus nearest neighbors

   1    Atom:  Cl     1  PDB Label: (HETATM    1 Cl   HET A   1)
   2    Atom:   C     2  PDB Label: (HETATM    2  C   HET A   1)
   3    Atom:   F     6  PDB Label: (HETATM    6  F   HET A   1)
   4    Atom:   H     3  PDB Label: (HETATM    3  H   HET A   1)
   5    Atom:   H     4  PDB Label: (HETATM    4  H   HET A   1)
   6    Atom:   H     5  PDB Label: (HETATM    5  H   HET A   1)

          Set 1 selected by keywork 'SET' within keyword 'LOCATE-TS'

          Current value of GEO_REF constraint:                 10.00  Kcal/mol/Angstrom^2
          Distance between the geometries:                      1.88  Angstroms

          Heat of formation of the first geometry:           -167.978 Kcal/mol
          Heat of formation of the second geometry:          -190.997 Kcal/mol
          Contribution to heat of formation due to stress:     20.632  Kcal/mol
          Gradient arising from first geometry:                24.268  Kcal/mol/Angstrom
          Gradient arising from second geometry:               36.131  Kcal/mol/Angstrom
          Angle between gradient vectors:                     167.37  degrees

 CYCLE:     1 TIME:   0.016 TIME LEFT:  2.00D  GRAD.:    17.538 HEAT: -338.3427
 CYCLE:     2 TIME:   0.016 TIME LEFT:  2.00D  GRAD.:    17.118 HEAT: -338.4293
 CYCLE:     3 TIME:   0.016 TIME LEFT:  2.00D  GRAD.:     9.499 HEAT: -338.5869
 CYCLE:     4 TIME:   0.016 TIME LEFT:  2.00D  GRAD.:    17.094 HEAT: -338.5827
 CYCLE:     5 TIME:   0.016 TIME LEFT:  2.00D  GRAD.:    15.201 HEAT: -338.4465
 CYCLE:     6 TIME:   0.016 TIME LEFT:  2.00D  GRAD.:    24.570 HEAT: -338.6423
 CYCLE:     7 TIME:   0.000 TIME LEFT:  2.00D  GRAD.:    10.966 HEAT: -339.1705
 CYCLE:     8 TIME:   0.016 TIME LEFT:  2.00D  GRAD.:     6.296 HEAT: -339.2679
 CYCLE:     9 TIME:   0.016 TIME LEFT:  2.00D  GRAD.:     6.539 HEAT: -339.6208
 CYCLE:    10 TIME:   0.016 TIME LEFT:  2.00D  GRAD.:     6.917 HEAT: -339.7964
 CYCLE:    11 TIME:   0.016 TIME LEFT:  2.00D  GRAD.:    27.203 HEAT: -339.9366
 CYCLE:    12 TIME:   0.016 TIME LEFT:  2.00D  GRAD.:     4.103 HEAT: -340.3798
 CYCLE:    13 TIME:   0.016 TIME LEFT:  2.00D  GRAD.:     3.747 HEAT: -340.3112
 CYCLE:    14 TIME:   0.016 TIME LEFT:  2.00D  GRAD.:     3.577 HEAT: -340.3161
 CYCLE:    15 TIME:   0.000 TIME LEFT:  2.00D  GRAD.:     3.510 HEAT: -340.3221
 CYCLE:    16 TIME:   0.016 TIME LEFT:  2.00D  GRAD.:     3.488 HEAT: -340.3231
 CYCLE:    17 TIME:   0.016 TIME LEFT:  2.00D  GRAD.:     3.123 HEAT: -340.3785
 CYCLE:    18 TIME:   0.016 TIME LEFT:  2.00D  GRAD.:     0.412 HEAT: -340.3773

     GRADIENT =  0.41220 IS LESS THAN CUTOFF =  2.00000



          First geometry (derived from data-set) after optimization subject to 
          GEO_REF constraint of 10.0 Kcal/mol/Angstrom^2 towards the reference geometry written to file:
          'M:/OpenMOPAC_NET/Manual/Individual JSmol paths/Cl-CH3-F/Locate the transition state for the SN2 reaction Cl-CH3-F (-) using (LOCATE-TS) bias=10.0 first.mop'


          Second geometry (derived from reference geometry)after optimization subject to 
          GEO_REF constraint of 10.0 Kcal/mol/Angstrom^2 towards the data-set geometry written to file:
          'M:/OpenMOPAC_NET/Manual/Individual JSmol paths/Cl-CH3-F/Locate the transition state for the SN2 reaction Cl-CH3-F (-) using (LOCATE-TS) bias=10.0 second.mop'


          Job name: 'M:/OpenMOPAC_NET/Manual/Individual JSmol paths/Cl-CH3-F/Locate the transition state for the SN2 reaction Cl-CH3-F (-) using (LOCATE-TS)'

          Current value of GEO_REF constraint:                 10.00  Kcal/mol/Angstrom^2
          Distance between the geometries:                    1.68  Angstroms

                     Atoms that move a lot

                     Atom Label             GEO_REF Coordinates       Movement    Integral

            (HETATM    2  C   HET A   1)   3.005  -0.001  -0.001        0.72         0.72
            (HETATM    6  F   HET A   1)   4.376  -0.003  -0.003        0.47         1.19
            (HETATM    1 Cl   HET A   1)   0.096  -0.002   0.003        0.37         1.56
            (HETATM    5  H   HET A   1)   2.636  -0.520  -0.905        0.0417       1.60
            (HETATM    4  H   HET A   1)   2.637  -0.525   0.899        0.0396       1.64
            (HETATM    3  H   HET A   1)   2.637   1.041  -0.000        0.0392       1.68

     Residues that move a lot and their (Movement in Angstroms, per atom)


          Heat of formation of the first geometry:           -167.703 Kcal/mol
          Heat of formation of the second geometry:          -190.315 Kcal/mol
          Contribution to heat of formation due to stress:     17.641  Kcal/mol
          Gradient arising from first geometry:                18.816  Kcal/mol/Angstrom
          Gradient arising from second geometry:               19.005  Kcal/mol/Angstrom
          Angle between gradient vectors:                     178.90  degrees


          Average of first and second geometries after optimization subject to 
          GEO_REF constraint of 10.0 Kcal/mol/Angstrom^2 towards the data-set geometry written to file:
          'M:/OpenMOPAC_NET/Manual/Individual JSmol paths/Cl-CH3-F/Locate the transition state for the SN2 reaction Cl-CH3-F (-) using (LOCATE-TS) bias=10.0 average.mop'

 CYCLE:     1 TIME:   0.016 TIME LEFT:  2.00D  GRAD.:    58.352 HEAT: -305.0886
 CYCLE:     2 TIME:   0.016 TIME LEFT:  2.00D  GRAD.:    57.150 HEAT: -305.2164
 CYCLE:     3 TIME:   0.016 TIME LEFT:  2.00D  GRAD.:    25.237 HEAT: -308.0736
 CYCLE:     4 TIME:   0.016 TIME LEFT:  2.00D  GRAD.:    56.310 HEAT: -306.3616
 CYCLE:     5 TIME:   0.016 TIME LEFT:  2.00D  GRAD.:    53.759 HEAT: -305.2868
 CYCLE:     6 TIME:   0.000 TIME LEFT:  2.00D  GRAD.:    42.097 HEAT: -305.8482
 CYCLE:     7 TIME:   0.016 TIME LEFT:  2.00D  GRAD.:    43.928 HEAT: -307.2103
 CYCLE:     8 TIME:   0.016 TIME LEFT:  2.00D  GRAD.:    50.773 HEAT: -309.3185
 CYCLE:     9 TIME:   0.016 TIME LEFT:  2.00D  GRAD.:    50.278 HEAT: -311.1071
 CYCLE:    10 TIME:   0.016 TIME LEFT:  2.00D  GRAD.:    44.329 HEAT: -311.9475
 CYCLE:    11 TIME:   0.000 TIME LEFT:  2.00D  GRAD.:    44.194 HEAT: -311.9674
 CYCLE:    12 TIME:   0.016 TIME LEFT:  2.00D  GRAD.:    44.144 HEAT: -312.0068
 CYCLE:    13 TIME:   0.016 TIME LEFT:  2.00D  GRAD.:    43.695 HEAT: -312.0614
 CYCLE:    14 TIME:   0.016 TIME LEFT:  2.00D  GRAD.:    42.979 HEAT: -312.0990
 CYCLE:    15 TIME:   0.016 TIME LEFT:  2.00D  GRAD.:    42.302 HEAT: -312.1197
 CYCLE:    16 TIME:   0.016 TIME LEFT:  2.00D  GRAD.:    41.219 HEAT: -312.1345
 CYCLE:    17 TIME:   0.000 TIME LEFT:  2.00D  GRAD.:    17.345 HEAT: -314.5441
 CYCLE:    18 TIME:   0.016 TIME LEFT:  2.00D  GRAD.:    10.957 HEAT: -315.9059
 CYCLE:    19 TIME:   0.016 TIME LEFT:  2.00D  GRAD.:    11.072 HEAT: -315.9624
 CYCLE:    20 TIME:   0.016 TIME LEFT:  2.00D  GRAD.:     2.648 HEAT: -315.8057
 CYCLE:    21 TIME:   0.016 TIME LEFT:  2.00D  GRAD.:     1.258 HEAT: -315.9853

     GRADIENT =  1.25841 IS LESS THAN CUTOFF =  2.00000



          First geometry (derived from data-set) after optimization subject to 
          GEO_REF constraint of 30.0 Kcal/mol/Angstrom^2 towards the reference geometry written to file:
          'M:/OpenMOPAC_NET/Manual/Individual JSmol paths/Cl-CH3-F/Locate the transition state for the SN2 reaction Cl-CH3-F (-) using (LOCATE-TS) bias=30.0 first.mop'


          Second geometry (derived from reference geometry)after optimization subject to 
          GEO_REF constraint of 30.0 Kcal/mol/Angstrom^2 towards the data-set geometry written to file:
          'M:/OpenMOPAC_NET/Manual/Individual JSmol paths/Cl-CH3-F/Locate the transition state for the SN2 reaction Cl-CH3-F (-) using (LOCATE-TS) bias=30.0 second.mop'


          Job name: 'M:/OpenMOPAC_NET/Manual/Individual JSmol paths/Cl-CH3-F/Locate the transition state for the SN2 reaction Cl-CH3-F (-) using (LOCATE-TS)'

          Current value of GEO_REF constraint:                 30.00  Kcal/mol/Angstrom^2
          Distance between the geometries:                    1.29  Angstroms

                     Atoms that move a lot

                     Atom Label             GEO_REF Coordinates       Movement    Integral

            (HETATM    2  C   HET A   1)   2.967  -0.001  -0.002        0.64         0.64
            (HETATM    6  F   HET A   1)   4.350  -0.002  -0.002        0.36         1.01
            (HETATM    1 Cl   HET A   1)   0.222   0.001   0.005        0.26         1.27
            (HETATM    4  H   HET A   1)   2.616  -0.528   0.903        0.0061       1.28
            (HETATM    3  H   HET A   1)   2.616   1.045  -0.001        0.0051       1.28
            (HETATM    5  H   HET A   1)   2.615  -0.523  -0.910        0.0046       1.29

     Residues that move a lot and their (Movement in Angstroms, per atom)


          Heat of formation of the first geometry:           -164.580 Kcal/mol
          Heat of formation of the second geometry:          -188.219 Kcal/mol
          Contribution to heat of formation due to stress:     36.814  Kcal/mol
          Gradient arising from first geometry:                46.669  Kcal/mol/Angstrom
          Gradient arising from second geometry:               47.189  Kcal/mol/Angstrom
          Angle between gradient vectors:                     178.43  degrees


          Average of first and second geometries after optimization subject to 
          GEO_REF constraint of 30.0 Kcal/mol/Angstrom^2 towards the data-set geometry written to file:
          'M:/OpenMOPAC_NET/Manual/Individual JSmol paths/Cl-CH3-F/Locate the transition state for the SN2 reaction Cl-CH3-F (-) using (LOCATE-TS) bias=30.0 average.mop'

 CYCLE:     1 TIME:   0.016 TIME LEFT:  2.00D  GRAD.:   216.923 HEAT: -206.0556
 CYCLE:     2 TIME:   0.016 TIME LEFT:  2.00D  GRAD.:   212.101 HEAT: -206.8707
 CYCLE:     3 TIME:   0.016 TIME LEFT:  2.00D  GRAD.:    57.423 HEAT: -237.7431
 CYCLE:     4 TIME:   0.016 TIME LEFT:  2.00D  GRAD.:   201.746 HEAT: -217.9943
 CYCLE:     5 TIME:   0.016 TIME LEFT:  2.00D  GRAD.:   201.318 HEAT: -207.7040
 CYCLE:     6 TIME:   0.000 TIME LEFT:  2.00D  GRAD.:   158.326 HEAT: -212.5348
 CYCLE:     7 TIME:   0.016 TIME LEFT:  2.00D  GRAD.:   144.833 HEAT: -224.0111
 CYCLE:     8 TIME:   0.016 TIME LEFT:  2.00D  GRAD.:   141.332 HEAT: -235.7836
 CYCLE:     9 TIME:   0.016 TIME LEFT:  2.00D  GRAD.:   121.670 HEAT: -243.7316
 CYCLE:    10 TIME:   0.016 TIME LEFT:  2.00D  GRAD.:   116.353 HEAT: -244.8990
 CYCLE:    11 TIME:   0.016 TIME LEFT:  2.00D  GRAD.:   131.117 HEAT: -246.3407
 CYCLE:    12 TIME:   0.000 TIME LEFT:  2.00D  GRAD.:   115.904 HEAT: -244.2441
 CYCLE:    13 TIME:   0.016 TIME LEFT:  2.00D  GRAD.:   117.160 HEAT: -245.3103
 CYCLE:    14 TIME:   0.016 TIME LEFT:  2.00D  GRAD.:   116.621 HEAT: -245.5612
 CYCLE:    15 TIME:   0.016 TIME LEFT:  2.00D  GRAD.:   116.812 HEAT: -246.1464
 CYCLE:    16 TIME:   0.016 TIME LEFT:  2.00D  GRAD.:   116.497 HEAT: -246.4821
 CYCLE:    17 TIME:   0.000 TIME LEFT:  2.00D  GRAD.:    52.270 HEAT: -256.6328
 CYCLE:    18 TIME:   0.016 TIME LEFT:  2.00D  GRAD.:    31.750 HEAT: -263.5519
 CYCLE:    19 TIME:   0.016 TIME LEFT:  2.00D  GRAD.:    13.753 HEAT: -259.9823
 CYCLE:    20 TIME:   0.016 TIME LEFT:  2.00D  GRAD.:    10.076 HEAT: -259.8634
 CYCLE:    21 TIME:   0.016 TIME LEFT:  2.00D  GRAD.:     3.313 HEAT: -260.4280
 CYCLE:    22 TIME:   0.000 TIME LEFT:  2.00D  GRAD.:     3.514 HEAT: -260.1594
 CYCLE:    23 TIME:   0.016 TIME LEFT:  2.00D  GRAD.:     1.657 HEAT: -260.2905

     GRADIENT =  1.65743 IS LESS THAN CUTOFF =  2.00000



          First geometry (derived from data-set) after optimization subject to 
          GEO_REF constraint of 120.0 Kcal/mol/Angstrom^2 towards the reference geometry written to file:
          'M:/OpenMOPAC_NET/Manual/Individual JSmol paths/Cl-CH3-F/Locate the transition state for the SN2 reaction Cl-CH3-F (-) using (LOCATE-TS) bias=120.0 first.mop'


          Second geometry (derived from reference geometry)after optimization subject to 
          GEO_REF constraint of 120.0 Kcal/mol/Angstrom^2 towards the data-set geometry written to file:
          'M:/OpenMOPAC_NET/Manual/Individual JSmol paths/Cl-CH3-F/Locate the transition state for the SN2 reaction Cl-CH3-F (-) using (LOCATE-TS) bias=120.0 second.mop'


          Job name: 'M:/OpenMOPAC_NET/Manual/Individual JSmol paths/Cl-CH3-F/Locate the transition state for the SN2 reaction Cl-CH3-F (-) using (LOCATE-TS)'

          Current value of GEO_REF constraint:                120.00  Kcal/mol/Angstrom^2
          Distance between the geometries:                    0.96  Angstroms

                     Atoms that move a lot

                     Atom Label             GEO_REF Coordinates       Movement    Integral

            (HETATM    2  C   HET A   1)   2.893  -0.000  -0.002        0.48         0.48
            (HETATM    6  F   HET A   1)   4.314   0.000  -0.002        0.24         0.71
            (HETATM    1 Cl   HET A   1)   0.372  -0.006   0.005        0.15         0.86
            (HETATM    3  H   HET A   1)   2.602   1.061  -0.001        0.0332       0.89
            (HETATM    4  H   HET A   1)   2.604  -0.534   0.916        0.0332       0.92
            (HETATM    5  H   HET A   1)   2.601  -0.529  -0.922        0.0313       0.96

     Residues that move a lot and their (Movement in Angstroms, per atom)


          Heat of formation of the first geometry:           -153.304 Kcal/mol
          Heat of formation of the second geometry:          -180.837 Kcal/mol
          Contribution to heat of formation due to stress:     73.851  Kcal/mol
          Gradient arising from first geometry:               133.271  Kcal/mol/Angstrom
          Gradient arising from second geometry:              133.122  Kcal/mol/Angstrom
          Angle between gradient vectors:                     179.39  degrees


          Average of first and second geometries after optimization subject to 
          GEO_REF constraint of 120.0 Kcal/mol/Angstrom^2 towards the data-set geometry written to file:
          'M:/OpenMOPAC_NET/Manual/Individual JSmol paths/Cl-CH3-F/Locate the transition state for the SN2 reaction Cl-CH3-F (-) using (LOCATE-TS) bias=120.0 average.mop'

 CYCLE:     1 TIME:   0.016 TIME LEFT:  2.00D  GRAD.:    86.587 HEAT: -265.8613
 CYCLE:     2 TIME:   0.016 TIME LEFT:  2.00D  GRAD.:    84.877 HEAT: -266.0706
 CYCLE:     3 TIME:   0.016 TIME LEFT:  2.00D  GRAD.:     7.430 HEAT: -273.7200
 CYCLE:     4 TIME:   0.000 TIME LEFT:  2.00D  GRAD.:     6.198 HEAT: -275.6543
 CYCLE:     5 TIME:   0.016 TIME LEFT:  2.00D  GRAD.:     5.643 HEAT: -275.4922
 CYCLE:     6 TIME:   0.016 TIME LEFT:  2.00D  GRAD.:     1.389 HEAT: -275.5767

     GRADIENT =  1.38919 IS LESS THAN CUTOFF =  2.00000



          First geometry (derived from data-set) after optimization subject to 
          GEO_REF constraint of 120.0 Kcal/mol/Angstrom^2 towards the reference geometry written to file:
          'M:/OpenMOPAC_NET/Manual/Individual JSmol paths/Cl-CH3-F/Locate the transition state for the SN2 reaction Cl-CH3-F (-) using (LOCATE-TS) bias=120.0 first.mop'


          Second geometry (derived from reference geometry)after optimization subject to 
          GEO_REF constraint of 120.0 Kcal/mol/Angstrom^2 towards the data-set geometry written to file:
          'M:/OpenMOPAC_NET/Manual/Individual JSmol paths/Cl-CH3-F/Locate the transition state for the SN2 reaction Cl-CH3-F (-) using (LOCATE-TS) bias=120.0 second.mop'


          Job name: 'M:/OpenMOPAC_NET/Manual/Individual JSmol paths/Cl-CH3-F/Locate the transition state for the SN2 reaction Cl-CH3-F (-) using (LOCATE-TS)'

          Current value of GEO_REF constraint:                120.00  Kcal/mol/Angstrom^2
          Distance between the geometries:                    0.84  Angstroms

                     Atoms that move a lot

                     Atom Label             GEO_REF Coordinates       Movement    Integral

            (HETATM    2  C   HET A   1)   2.878  -0.000  -0.002        0.42         0.42
            (HETATM    6  F   HET A   1)   4.317   0.001  -0.002        0.22         0.64
            (HETATM    1 Cl   HET A   1)   0.374  -0.006   0.005        0.13         0.77
            (HETATM    3  H   HET A   1)   2.605   1.065  -0.001        0.0265       0.79
            (HETATM    4  H   HET A   1)   2.608  -0.536   0.919        0.0259       0.82
            (HETATM    5  H   HET A   1)   2.604  -0.532  -0.925        0.0249       0.84

     Residues that move a lot and their (Movement in Angstroms, per atom)


          Heat of formation of the first geometry:           -152.798 Kcal/mol
          Heat of formation of the second geometry:          -181.042 Kcal/mol
          Contribution to heat of formation due to stress:     58.263  Kcal/mol
          Gradient arising from first geometry:               118.007  Kcal/mol/Angstrom
          Gradient arising from second geometry:              118.506  Kcal/mol/Angstrom
          Angle between gradient vectors:                     179.37  degrees


          Average of first and second geometries after optimization subject to 
          GEO_REF constraint of 120.0 Kcal/mol/Angstrom^2 towards the data-set geometry written to file:
          'M:/OpenMOPAC_NET/Manual/Individual JSmol paths/Cl-CH3-F/Locate the transition state for the SN2 reaction Cl-CH3-F (-) using (LOCATE-TS) bias=120.0 average.mop'

 CYCLE:     1 TIME:   0.016 TIME LEFT:  2.00D  GRAD.:    78.813 HEAT: -267.8775
 CYCLE:     2 TIME:   0.016 TIME LEFT:  2.00D  GRAD.:    77.377 HEAT: -267.9138
 CYCLE:     3 TIME:   0.016 TIME LEFT:  2.00D  GRAD.:     7.449 HEAT: -275.7417
 CYCLE:     4 TIME:   0.016 TIME LEFT:  2.00D  GRAD.:     5.641 HEAT: -277.0804
 CYCLE:     5 TIME:   0.016 TIME LEFT:  2.00D  GRAD.:     6.733 HEAT: -276.8955
 CYCLE:     6 TIME:   0.016 TIME LEFT:  2.00D  GRAD.:     1.800 HEAT: -277.1949

     GRADIENT =  1.79970 IS LESS THAN CUTOFF =  2.00000



          First geometry (derived from data-set) after optimization subject to 
          GEO_REF constraint of 140.0 Kcal/mol/Angstrom^2 towards the reference geometry written to file:
          'M:/OpenMOPAC_NET/Manual/Individual JSmol paths/Cl-CH3-F/Locate the transition state for the SN2 reaction Cl-CH3-F (-) using (LOCATE-TS) bias=140.0 first.mop'


          Second geometry (derived from reference geometry)after optimization subject to 
          GEO_REF constraint of 140.0 Kcal/mol/Angstrom^2 towards the data-set geometry written to file:
          'M:/OpenMOPAC_NET/Manual/Individual JSmol paths/Cl-CH3-F/Locate the transition state for the SN2 reaction Cl-CH3-F (-) using (LOCATE-TS) bias=140.0 second.mop'


          Job name: 'M:/OpenMOPAC_NET/Manual/Individual JSmol paths/Cl-CH3-F/Locate the transition state for the SN2 reaction Cl-CH3-F (-) using (LOCATE-TS)'

          Current value of GEO_REF constraint:                140.00  Kcal/mol/Angstrom^2
          Distance between the geometries:                    0.74  Angstroms

                     Atoms that move a lot

                     Atom Label             GEO_REF Coordinates       Movement    Integral

            (HETATM    2  C   HET A   1)   2.869  -0.000  -0.002        0.37         0.37
            (HETATM    6  F   HET A   1)   4.318   0.001  -0.003        0.19         0.56
            (HETATM    1 Cl   HET A   1)   0.378  -0.005   0.005        0.11         0.67
            (HETATM    3  H   HET A   1)   2.607   1.068  -0.001        0.0241       0.70
            (HETATM    4  H   HET A   1)   2.610  -0.538   0.922        0.0230       0.72
            (HETATM    5  H   HET A   1)   2.605  -0.533  -0.928        0.0215       0.74

     Residues that move a lot and their (Movement in Angstroms, per atom)


          Heat of formation of the first geometry:           -149.745 Kcal/mol
          Heat of formation of the second geometry:          -180.156 Kcal/mol
          Contribution to heat of formation due to stress:     52.706  Kcal/mol
          Gradient arising from first geometry:               121.324  Kcal/mol/Angstrom
          Gradient arising from second geometry:              121.997  Kcal/mol/Angstrom
          Angle between gradient vectors:                     179.46  degrees


          Average of first and second geometries after optimization subject to 
          GEO_REF constraint of 140.0 Kcal/mol/Angstrom^2 towards the data-set geometry written to file:
          'M:/OpenMOPAC_NET/Manual/Individual JSmol paths/Cl-CH3-F/Locate the transition state for the SN2 reaction Cl-CH3-F (-) using (LOCATE-TS) bias=140.0 average.mop'

  Loop:   1  Energy minimization, excluding active site, using L-BFGS

 CYCLE:     1 TIME:   0.062 TIME LEFT:  2.00D  GRAD.:    18.846 HEAT: -153.8727
 CYCLE:     2 TIME:   0.016 TIME LEFT:  2.00D  GRAD.:    18.681 HEAT: -153.8827
 CYCLE:     3 TIME:   0.016 TIME LEFT:  2.00D  GRAD.:     9.622 HEAT: -154.1750
 CYCLE:     4 TIME:   0.000 TIME LEFT:  2.00D  GRAD.:    18.690 HEAT: -153.8836
 CYCLE:     5 TIME:   0.016 TIME LEFT:  2.00D  GRAD.:     9.637 HEAT: -154.1743
 CYCLE:     6 TIME:   0.016 TIME LEFT:  2.00D  GRAD.:     6.753 HEAT: -154.1744
 CYCLE:     7 TIME:   0.016 TIME LEFT:  2.00D  GRAD.:     5.446 HEAT: -154.2280
 CYCLE:     8 TIME:   0.016 TIME LEFT:  2.00D  GRAD.:     4.016 HEAT: -154.2873
 CYCLE:     9 TIME:   0.016 TIME LEFT:  2.00D  GRAD.:     1.601 HEAT: -154.3086

     GRADIENT =  1.60068 IS LESS THAN CUTOFF =  2.00000


  Loop:   1  Gradient minimization of atoms in the active site using TS

          Transition state on cycle 1 written to file:
          'M:/OpenMOPAC_NET/Manual/Individual JSmol paths/Cl-CH3-F/Locate the transition state for the SN2 reaction Cl-CH3-F (-) using (LOCATE-TS) Loop1.mop'


          HESSIAN CALCULATED NUMERICALLY

 CYCLE:     1 TIME:   0.094 TIME LEFT:  2.00D  GRAD.:    84.122 HEAT: -154.3093
 CYCLE:     2 TIME:   0.016 TIME LEFT:  2.00D  GRAD.:    78.933 HEAT: -153.0525
 CYCLE:     3 TIME:   0.016 TIME LEFT:  2.00D  GRAD.:    61.207 HEAT: -150.4119
 CYCLE:     4 TIME:   0.016 TIME LEFT:  2.00D  GRAD.:    12.640 HEAT: -149.6709
 CYCLE:     5 TIME:   0.016 TIME LEFT:  2.00D  GRAD.:     4.323 HEAT: -149.8002
 CYCLE:     6 TIME:   0.016 TIME LEFT:  2.00D  GRAD.:     4.153 HEAT: -149.8368
 CYCLE:     7 TIME:   0.016 TIME LEFT:  2.00D  GRAD.:     2.900 HEAT: -149.8457

     GRADIENT =  2.89989 IS LESS THAN CUTOFF =  3.00000


  Loop:   2  Energy minimization, excluding active site, using L-BFGS

 CYCLE:     1 TIME:   0.000 TIME LEFT:  2.00D  GRAD.:     4.524 HEAT: -149.8488
 CYCLE:     2 TIME:   0.016 TIME LEFT:  2.00D  GRAD.:     4.529 HEAT: -149.8490
 CYCLE:     3 TIME:   0.016 TIME LEFT:  2.00D  GRAD.:   192.108 HEAT: -96.47911
 CYCLE:     4 TIME:   0.031 TIME LEFT:  2.00D  GRAD.:     4.940 HEAT: -149.8446
 CYCLE:     5 TIME:   0.016 TIME LEFT:  2.00D  GRAD.:   192.830 HEAT: -95.78799
 CYCLE:     6 TIME:   0.016 TIME LEFT:  2.00D  GRAD.:     4.983 HEAT: -149.8433
 CYCLE:     7 TIME:   0.016 TIME LEFT:  2.00D  GRAD.:    55.985 HEAT: -146.0364
 CYCLE:     8 TIME:   0.016 TIME LEFT:  2.00D  GRAD.:     1.411 HEAT: -149.9280

     GRADIENT =  1.41113 IS LESS THAN CUTOFF =  2.00000


  Loop:   2  Gradient minimization of atoms in the active site using TS

          Transition state on cycle 2 written to file:
          'M:/OpenMOPAC_NET/Manual/Individual JSmol paths/Cl-CH3-F/Locate the transition state for the SN2 reaction Cl-CH3-F (-) using (LOCATE-TS) Loop2.mop'


     GRADIENT =  2.06945 IS LESS THAN CUTOFF =  3.00000


  Loop:   3  Energy minimization, excluding active site, using L-BFGS

 CYCLE:     1 TIME:   0.016 TIME LEFT:  2.00D  GRAD.:     1.157 HEAT: -149.9318

     GRADIENT =  1.15684 IS LESS THAN CUTOFF =  2.00000


  Loop:   3  Gradient minimization of atoms in the active site using TS

          Transition state on cycle 3 written to file:
          'M:/OpenMOPAC_NET/Manual/Individual JSmol paths/Cl-CH3-F/Locate the transition state for the SN2 reaction Cl-CH3-F (-) using (LOCATE-TS) Loop3.mop'


     GRADIENT =  2.07121 IS LESS THAN CUTOFF =  3.00000



 -------------------------------------------------------------------------------
 charge=-1 eps=78.4 gnorm=2   HTML MOZYME
 Transition state for CH3Cl --- F(-) <=> Cl(-) --- CH3F



     GRADIENTS WERE INITIALLY ACCEPTABLY SMALL                
     SCF FIELD WAS ACHIEVED                                   


                              PM7 CALCULATION
                                                       MOPAC2016 (Version: 21.157W)
                                                       Mon Jun  7 08:56:15 2021
                                                       No. of days remaining = 364




          FINAL HEAT OF FORMATION =       -149.93188 KCAL/MOL =    -627.31498 KJ/MOL
          VAN DER WAALS AREA      =         97.11 SQUARE ANGSTROMS


          TOTAL ENERGY            =       -899.59786 EV
          ELECTRONIC ENERGY       =      -1851.78560 EV
          CORE-CORE REPULSION     =        899.60024 EV
          SOLVATION ENERGY        =         52.58749 EV

          DIELECTRIC ENERGY       =         -2.98587 EV
          COSMO AREA              =         97.11 SQUARE ANGSTROMS
          COSMO VOLUME            =         77.35 CUBIC ANGSTROMS

          GRADIENT NORM           =          2.07121 = 0.84557 PER ATOM
          NO. OF FILLED LEVELS    =         11
          MOLECULAR WEIGHT        =         69.4861

          MOLECULAR DIMENSIONS (Angstroms)

            Atom       Atom       Distance
            F     6   Cl     1     4.09460
            H     5    H     4     1.88283
            H     5    H     3     1.62766


          SCF CALCULATIONS        =         49
 



       FINAL  POINT  AND  DERIVATIVES

                                         Cartesian Gradients         Cartesian Coordinates          |Gradient|
  Atom                                   X        Y        Z        X          Y          Z
 
    1 Cl(HETATM    1 Cl   HET A   1)    0.155   -0.160   -0.313    0.40225    0.03289    0.01500       0.384
    2  C(HETATM    2  C   HET A   1)   -0.059    0.987    1.655    2.58433   -0.00052   -0.00292       1.928
    6  F(HETATM    6  F   HET A   1)   -0.359   -0.275   -0.471    4.49568   -0.04122   -0.04892       0.653
 

              GRADIENTS FOR ALL GROUPS

                Group       Gradient
 
              HET    1        2.071




   ATOM                 CHEMICAL                   X               Y               Z
  NUMBER                 SYMBOL               (ANGSTROMS)     (ANGSTROMS)     (ANGSTROMS)
 
     1      Cl(HETATM    1 Cl   HET A   1)    0.40224882  *   0.03289123  *   0.01499592  *
     2       C(HETATM    2  C   HET A   1)    2.58433156  *  -0.00052406  *  -0.00291847  *
     3       H(HETATM    3  H   HET A   1)    2.60936325      1.08426094      0.00156977   
     4       H(HETATM    4  H   HET A   1)    2.59413070     -0.54545068      0.93579981   
     5       H(HETATM    5  H   HET A   1)    2.56672497     -0.54081130     -0.94683075   
     6       F(HETATM    6  F   HET A   1)    4.49567963  *  -0.04122446  *  -0.04892344  *

                             CARTESIAN COORDINATES

   1   Cl        0.402248816     0.032891229     0.014995917
   2    C        2.584331558    -0.000524056    -0.002918467
   3    H        2.609363250     1.084260943     0.001569772
   4    H        2.594130702    -0.545450684     0.935799807
   5    H        2.566724975    -0.540811299    -0.946830749
   6    F        4.495679634    -0.041224462    -0.048923436


           Empirical Formula: C H3 Cl F  =     6 atoms



              NET ATOMIC CHARGES AND DIPOLE CONTRIBUTIONS

  ATOM NO.                 TYPE                        CHARGE      No. of ELECS.   s-Pop       p-Pop       d-Pop       
    1         Cl(HETATM    1 Cl   HET A   1)          -0.799582        7.7996     1.99566     5.80074     0.00318
    2          C(HETATM    2  C   HET A   1)           0.169580        3.8304     1.20373     2.62669
    3          H(HETATM    3  H   HET A   1)           0.151554        0.8484     0.84845
    4          H(HETATM    4  H   HET A   1)           0.152497        0.8475     0.84750
    5          H(HETATM    5  H   HET A   1)           0.152835        0.8472     0.84717
    6          F(HETATM    6  F   HET A   1)          -0.826884        7.8269     1.99688     5.83001

          NET CHARGE ON RESIDUES

      Residue         Charge  Anion or
                              Cation?
      HET A   1       -1.000  ANION
 


 DIPOLE           X         Y         Z       TOTAL
 POINT-CHG.    -2.035     0.056     0.095     2.038
 HYBRID         0.010     0.003     0.002     0.011
 SUM           -2.024     0.058     0.097     2.028


          ATOMIC ORBITAL ELECTRON POPULATIONS

                   Atom                  s        px        py        pz      x^2-y^2     xz        z^2       yz        xy
    1 Cl(HETATM    1 Cl   HET A   1)   1.99566   1.80083   1.99994   1.99997   0.00163   0.00049   0.00055   0.00001   0.00049
    2  C(HETATM    2  C   HET A   1)   1.20373   0.37500   1.12564   1.12605
    3  H(HETATM    3  H   HET A   1)   0.84845
    4  H(HETATM    4  H   HET A   1)   0.84750
    5  H(HETATM    5  H   HET A   1)   0.84717
    6  F(HETATM    6  F   HET A   1)   1.99688   1.83025   1.99990   1.99986

 **********************
 *                    *
 * JOB ENDED NORMALLY *
 *                    *
 **********************



 TOTAL JOB TIME:             1.97 SECONDS

 == MOPAC DONE ==
