 *******************************************************************************
 ** Site#: 37037        For non-commercial use only           Version 21.158W **
 *******************************************************************************
 ** Cite this program as: MOPAC2016, Version: 21.158W, James J. P. Stewart,   **
 ** Stewart Computational Chemistry, web: HTTP://OpenMOPAC.net. Days left: 363**
 *******************************************************************************
 **                                                                           **
 **                                MOPAC2016                                  **
 **                                                                           **
 *******************************************************************************

                              PM7 CALCULATION RESULTS

 *******************************************************************************
 *  CALCULATION DONE:                                Wed Jun  9 10:06:09 2021  *
 *  DRC=       - HALF-LIFE FOR KINETIC ENERGY LOSS =   -10.00 *10**(-15) SECONDS
 *  T=         - A TIME OF 172800.0 SECONDS REQUESTED
 *  DUMP=N     - RESTART FILE WRITTEN EVERY 7200.0 SECONDS REQUESTED
 *  CYCLES=    - DO A MAXIMUM OF 420 STEPS
 *  GNORM      - EXIT WHEN GRADIENT NORM DROPS BELOW 0.000
 *  HTML       - WRITE HTML SCRIPT TO GENERATE ANIMATION USING JSMOL
 *             - TO DISPLAY IN PDB FORMAT, ADD "PDBOUT"
 *  T-PRIOR    - TIME TAKES PRIORITY IN DRC
 *******************************************************************************
HTML DRC=-10 cycles=420 t-priority=0.5 gnorm=0 HTML
     Heating Ethylene

   ATOM                 CHEMICAL                   X               Y               Z
  NUMBER                 SYMBOL               (ANGSTROMS)     (ANGSTROMS)     (ANGSTROMS)
 
     1       C(HETATM    1  C   HET A   1)    0.00000000      0.00000000      0.00000000   
     2       C(HETATM    2  C   HET A   1)    1.30000000      0.00000000      0.00000000   
     3       H(HETATM    6  H   HET A   1)   -0.59856589      0.89897638      0.00000000   
     4       H(HETATM    7  H   HET A   1)   -0.59756105     -0.89969484      0.00288279   
     5       H(HETATM    8  H   HET A   1)    1.89870346      0.89886127     -0.00249814   
     6       H(HETATM    9  H   HET A   1)    1.89870346     -0.89886127      0.00249814   
 

 General Reference for PM7:
 "Optimization of Parameters for Semiempirical Methods VI: More Modifications to the 
 NDDO Approximations and Re-optimization of Parameters", J. J. P. Stewart, J. Mol. Mod., 1:32, 19 (2013)
 https://link.springer.com/article/10.1007/s00894-012-1667-x

           Empirical Formula: C2 H4  =     6 atoms



      MOLECULAR POINT GROUP   :   D2h 


      RHF CALCULATION, NO. OF DOUBLY OCCUPIED LEVELS = 6



           DAMPING FACTOR FOR KINETIC ENERGY =  -10.000000

 TIME PRIORITY, INTERVAL = 0.50 FEMTOSECONDS



 FEMTOSECONDS  POINT  POTENTIAL + KINETIC  =   TOTAL     ERROR    REF%   MOVEMENT
     0.000       1    14.73914    0.00000    14.73914   0.00000     1   %  0.0000
     0.500       5    14.71076    0.02884    14.73960   0.00001     2   %  0.0011
     1.000       5    14.62810    0.11407    14.74217   0.00002     3   %  0.0044
     1.500      12    14.50405    0.24513    14.74918   0.00005     4   %  0.0098
     2.000      14    14.35249    0.40891    14.76140   0.00006     5   %  0.0173
     2.500      18    14.19426    0.58516    14.77942   0.00003     6   %  0.0266
     3.000      22    14.05037    0.75292    14.80329   0.00002     7   %  0.0376
     3.500      26    13.93977    0.89258    14.83236   0.00001     8   %  0.0499
     4.000      30    13.87705    0.98828    14.86533   0.00001     9   %  0.0634
     4.500      35    13.87065    1.02983    14.90047  -0.00000    10   %  0.0775
     5.000      39    13.92225    1.01358    14.93582  -0.00001    11   %  0.0921
     5.500      43    14.02683    0.94257    14.96940  -0.00001    12   %  0.1067
     6.000      46    14.17365    0.82579    14.99945  -0.00003    13   %  0.1210
     6.500      50    14.34772    0.67689    15.02461  -0.00004    14   %  0.1347
     7.000      53    14.53134    0.51276    15.04410  -0.00006    15   %  0.1475
     7.500      55    14.70634    0.35147    15.05781  -0.00009    16   %  0.1590
     8.000      57    14.85534    0.21098    15.06632  -0.00011    17   %  0.1691
     8.500      59    14.96383    0.10696    15.07079  -0.00011    18   %  0.1775
     9.000      61    15.02106    0.05186    15.07292  -0.00007    19   %  0.1840
     9.500      63    15.02103    0.05371    15.07474   0.00003    20   %  0.1886
    10.000      64    14.96346    0.11484    15.07831   0.00011    21   %  0.1912
    10.500      66    14.85331    0.23251    15.08582   0.00030    22   %  0.1918
    11.000      68    14.70168    0.39628    15.09796   0.00015    23   %  0.1903
    11.500      70    14.52365    0.59261    15.11627   0.00009    24   %  0.1868
    12.000      73    14.33888    0.80254    15.14143   0.00006    25   %  0.1815
    12.500      77    14.16890    1.00468    15.17359   0.00004    26   %  0.1746
    13.000      81    14.03540    1.17663    15.21203   0.00003    27   %  0.1662
    13.500      86    13.95773    1.29763    15.25536   0.00002    28   %  0.1565
    14.000      91    13.95035    1.35113    15.30148   0.00001    29   %  0.1458
    14.500      96    14.02034    1.32753    15.34787   0.00001    30   %  0.1343
    15.000     101    14.16547    1.22635    15.39182  -0.00000    31   %  0.1224
    15.500     106    14.37324    1.05760    15.43084  -0.00001    32   %  0.1102
    16.000     111    14.62130    0.84165    15.46294  -0.00002    33   %  0.0980
    16.500     115    14.87960    0.60739    15.48699  -0.00003    34   %  0.0907
    17.000     118    15.11403    0.38899    15.50302  -0.00005    35   %  0.0864
    17.500     121    15.29166    0.22074    15.51240  -0.00007    36   %  0.0804
    18.000     124    15.38596    0.13172    15.51768  -0.00004    37   %  0.0726
    18.500     126    15.38150    0.14079    15.52229   0.00004    38   %  0.0629
    19.000     129    15.27722    0.25264    15.52986   0.00015    39   %  0.0515
    19.500     131    15.08709    0.45627    15.54336   0.00012    40   %  0.0383
    20.000     134    14.83810    0.72680    15.56490   0.00005    41   %  0.0238
    20.500     139    14.56625    1.03010    15.59635   0.00003    42   %  0.0149
    21.000     144    14.31092    1.32723    15.63815   0.00002    43   %  0.0178
    21.500     149    14.10877    1.58063    15.68940   0.00002    44   %  0.0333
    22.000     154    13.98876    1.75917    15.74793   0.00001    45   %  0.0517
    22.500     159    13.96861    1.84207    15.81068   0.00000    46   %  0.0706
    23.000     164    14.05321    1.82093    15.87414  -0.00001    47   %  0.0892
    23.500     169    14.23476    1.70001    15.93478  -0.00001    48   %  0.1069
    24.000     174    14.49449    1.49494    15.98943  -0.00002    49   %  0.1232
    24.500     178    14.80539    1.23017    16.03555  -0.00003    50   %  0.1376
    25.000     182    15.13559    0.93603    16.07162  -0.00005    51   %  0.1497
    25.500     185    15.45179    0.64549    16.09728  -0.00007    52   %  0.1593
    26.000     188    15.72274    0.39067    16.11342  -0.00009    53   %  0.1659
    26.500     191    15.92166    0.20042    16.12208  -0.00010    54   %  0.1696
    27.000     193    16.02881    0.09740    16.12622  -0.00005    55   %  0.1703
    27.500     195    16.03273    0.09669    16.12942   0.00005    56   %  0.1682
    28.000     197    15.93148    0.20400    16.13548   0.00015    57   %  0.1636
    28.500     198    15.73300    0.41526    16.14826   0.00031    58   %  0.1572
    29.000     200    15.45427    0.71615    16.17042   0.00025    59   %  0.1498
    29.500     203    15.12079    1.08270    16.20348   0.00012    60   %  0.1425
    30.000     206    14.76600    1.48358    16.24958   0.00006    61   %  0.1363
    30.500     211    14.42801    1.88127    16.30928   0.00004    62   %  0.1322
    31.000     216    14.14724    2.23452    16.38176   0.00004    63   %  0.1304
    31.500     221    13.96226    2.50251    16.46477   0.00004    64   %  0.1306
    32.000     226    13.90543    2.64918    16.55461   0.00003    65   %  0.1321
    32.500     231    13.99795    2.64857    16.64652   0.00002    66   %  0.1344
    33.000     236    14.24508    2.49005    16.73513   0.00001    67   %  0.1371
    33.500     241    14.63244    2.18269    16.81513  -0.00000    68   %  0.1397
    34.000     246    15.12456    1.75739    16.88195  -0.00002    69   %  0.1495
    34.500     251    15.66673    1.26582    16.93254  -0.00003    70   %  0.1655
    35.000     256    16.19085    0.77513    16.96599  -0.00003    71   %  0.1786
    35.500     260    16.62489    0.35877    16.98366  -0.00006    72   %  0.1885
    36.000     264    16.90486    0.08469    16.98955  -0.00008    73   %  0.1946
    36.500     267    16.98664    0.00358    16.99022   0.00005    74   %  0.1967
    37.000     270    16.85457    0.13838    16.99295   0.00003    75   %  0.1947
    37.500     273    16.52652    0.47868    17.00520   0.00006    76   %  0.1886
    38.000     277    16.04931    0.98262    17.03194   0.00004    77   %  0.1784
    38.500     282    15.49236    1.58585    17.07821   0.00005    78   %  0.1645
    39.000     287    14.93466    2.21133    17.14599   0.00004    79   %  0.1477
    39.500     292    14.45224    2.78219    17.23443   0.00003    80   %  0.1446
    40.000     297    14.10758    3.23267    17.34025   0.00002    81   %  0.1420
    40.500     302    13.94244    3.51583    17.45826   0.00001    82   %  0.1395
    41.000     307    13.97485    3.60726    17.58212  -0.00000    83   %  0.1377
    41.500     312    14.19979    3.50530    17.70510  -0.00001    84   %  0.1377
    42.000     317    14.59239    3.22847    17.82086  -0.00002    85   %  0.1408
    42.500     322    15.11261    2.81144    17.92404  -0.00003    86   %  0.1483
    43.000     327    15.71038    2.30033    18.01071  -0.00003    87   %  0.1601
    43.500     332    16.33042    1.74789    18.07832  -0.00006    88   %  0.1748
    44.000     335    16.91700    1.20951    18.12651  -0.00010    89   %  0.1903
    44.500     338    17.41810    0.73899    18.15709  -0.00015    90   %  0.2049
    45.000     341    17.78906    0.38467    18.17373  -0.00018    91   %  0.2170
    45.500     343    17.99568    0.18601    18.18170  -0.00015    92   %  0.2258
    46.000     345    18.01699    0.17044    18.18744   0.00001    93   %  0.2304
    46.500     347    17.84739    0.35037    18.19776   0.00018    94   %  0.2305
    47.000     349    17.49863    0.72092    18.21956   0.00037    95   %  0.2260
    47.500     352    16.99876    1.25779    18.25655   0.00017    96   %  0.2168
    48.000     355    16.39308    1.92104    18.31413   0.00009    97   %  0.2032
    48.500     360    15.74182    2.65384    18.39566   0.00006    98   %  0.1857
    49.000     365    15.11564    3.38698    18.50262   0.00007    99   %  0.1648
    49.500     370    14.59020    4.04332    18.63353   0.00007   100   %  0.1412
    50.000     375    14.23906    4.54504    18.78410   0.00007   101   %  0.1159
    50.500     380    14.12471    4.82281    18.94752   0.00006   102   %  0.0898
    51.000     385    14.28842    4.82654    19.11495   0.00005   103   %  0.0643
    51.500     390    14.73997    4.53645    19.27642   0.00002   104   %  0.0414
    52.000     395    15.44948    3.97259    19.42207  -0.00001   105   %  0.0425
    52.500     400    16.34384    3.19984    19.54368  -0.00003   106   %  0.0555
    53.000     405    17.31077    2.32539    19.63616  -0.00006   107   %  0.0732
    53.500     410    18.21224    1.48653    19.69878  -0.00006   108   %  0.0923
    54.000     415    18.90675    0.82905    19.73580  -0.00005   109   %  0.1107
    54.500     419    19.27649    0.47955    19.75604  -0.00004   110   %  0.1274
    55.000     423    19.25354    0.51894    19.77248   0.00006   111   %  0.1418
    55.500     426    18.83702    0.96245    19.79947   0.00013   112   %  0.1537
    56.000     431    18.09442    1.75384    19.84826   0.00007   113   %  0.1630
    56.500     436    17.15040    2.77923    19.92964   0.00008   114   %  0.1695
    57.000     441    16.15937    3.88923    20.04860   0.00007   115   %  0.1735
    57.500     446    15.27655    4.92828    20.20483   0.00004   116   %  0.1749
    58.000     451    14.63163    5.76137    20.39300   0.00001   117   %  0.1916
    58.500     456    14.31103    6.29286    20.60389  -0.00002   118   %  0.2169
    59.000     461    14.35089    6.47508    20.82597  -0.00004   119   %  0.2412
    59.500     466    14.73969    6.30735    21.04704  -0.00006   120   %  0.2640
    60.000     471    15.42730    5.82843    21.25573  -0.00006   121   %  0.2848
    60.500     476    16.33710    5.10551    21.44261  -0.00006   122   %  0.3031
    61.000     481    17.37829    4.22269    21.60098  -0.00006   123   %  0.3184
    61.500     486    18.45640    3.27076    21.72716  -0.00005   124   %  0.3304
    62.000     491    19.48124    2.33914    21.82038  -0.00006   125   %  0.3389
    62.500     494    20.37230    1.51034    21.88264  -0.00009   126   %  0.3434
    63.000     498    21.06306    0.85631    21.91937  -0.00010   127   %  0.3440
    63.500     500    21.50218    0.43624    21.93842  -0.00009   128   %  0.3403
    64.000     503    21.65560    0.29371    21.94931  -0.00002   129   %  0.3324
    64.500     505    21.50673    0.45616    21.96289   0.00010   130   %  0.3201
    65.000     507    21.05829    0.93210    21.99039   0.00028   131   %  0.3035
    65.500     509    20.33353    1.70836    22.04190   0.00031   132   %  0.2828
    66.000     512    19.37563    2.74805    22.12367   0.00016   133   %  0.2581
    66.500     517    18.25314    3.99120    22.24433   0.00009   134   %  0.2298
    67.000     522    17.05798    5.35223    22.41021   0.00010   135   %  0.1986
    67.500     527    15.90342    6.72018    22.62359   0.00013   136   %  0.1655
    68.000     532    14.91957    7.96243    22.88200   0.00015   137   %  0.1323
    68.500     537    14.24453    8.93356    23.17810   0.00016   138   %  0.1021
    69.000     542    14.00935    9.49015    23.49950   0.00016   139   %  0.0799
    69.500     547    14.31676    9.51255    23.82931   0.00014   140   %  0.0685
    70.000     552    15.21523    8.93224    24.14747   0.00009   141   %  0.0730
    70.500     557    16.67271    7.76044    24.43315   0.00002   142   %  0.1055
    71.000     562    18.55784    6.11012    24.66796  -0.00007   143   %  0.1366
    71.500     567    20.63850    4.20119    24.83969  -0.00014   144   %  0.1640
    72.000     572    22.60640    2.33917    24.94557  -0.00017   145   %  0.1861
    72.500     577    24.12985    0.86443    24.99428  -0.00016   146   %  0.2016
    73.000     582    24.92596    0.07965    25.00561  -0.00013   147   %  0.2096
    73.500     586    24.83155    0.17602    25.00758  -0.00056   148   %  0.2096
    74.000     590    23.85061    1.18262    25.03323   0.00010   149   %  0.2013
    74.500     595    22.15734    2.95169    25.10903   0.00017   150   %  0.1848
    75.000     600    20.05355    5.20322    25.25677   0.00018   151   %  0.1606
    75.500     605    17.89678    7.58922    25.48600   0.00013   152   %  0.1297
    76.000     610    16.02457    9.76964    25.79421   0.00006   153   %  0.0934
    76.500     615    14.69575   11.47270    26.16845  -0.00002   154   %  0.0646
    77.000     620    14.06038   12.52804    26.58842  -0.00009   155   %  0.0673
    77.500     625    14.15769   12.87248    27.03016  -0.00014   156   %  0.0870
    78.000     630    14.93402   12.53550    27.46951  -0.00016   157   %  0.1261
    78.500     635    16.27009   11.61472    27.88481  -0.00016   158   %  0.1732
    79.000     640    18.00921   10.24947    28.25869  -0.00015   159   %  0.2217
    79.500     645    19.98109    8.59795    28.57904  -0.00013   160   %  0.2691
    80.000     650    22.01941    6.81989    28.83930  -0.00011   161   %  0.3138
    80.500     655    23.97319    5.06475    29.03794  -0.00012   162   %  0.3547
    81.000     659    25.71278    3.46472    29.17749  -0.00016   163   %  0.3908
    81.500     662    27.13404    2.13215    29.26620  -0.00018   164   %  0.4217
    82.000     665    28.15851    1.15748    29.31599  -0.00017   165   %  0.4469
    82.500     667    28.73264    0.60904    29.34168  -0.00008   166   %  0.4661
    83.000     670    28.82694    0.53281    29.35976   0.00010   167   %  0.4793
    83.500     672    28.43453    0.95346    29.38798   0.00029   168   %  0.4863
    84.000     673    27.57187    1.87272    29.44459   0.00062   169   %  0.4873
    84.500     676    26.27598    3.26562    29.54160   0.00033   170   %  0.4825
    85.000     680    24.61321    5.07982    29.69303   0.00016   171   %  0.4721
    85.500     684    22.68012    7.23248    29.91259   0.00013   172   %  0.4562
    86.000     689    20.60938    9.60176    30.21114   0.00018   173   %  0.4352
    86.500     694    18.57212   12.02097    30.59309   0.00024   174   %  0.4093
    87.000     699    16.77891   14.27696    31.05586   0.00031   175   %  0.3789
    87.500     704    15.47177   16.11688    31.58866   0.00036   176   %  0.3445
    88.000     709    14.90259   17.26888    32.17146   0.00038   177   %  0.3065
    88.500     714    15.29355   17.48161    32.77516   0.00036   178   %  0.2659
    89.000     719    16.77951   16.58392    33.36343   0.00027   179   %  0.2572
    89.500     724    19.33982   14.55718    33.89700   0.00011   180   %  0.2591
    90.000     729    22.73938   11.60102    34.34039  -0.00009   181   %  0.2576
    90.500     734    26.50894    8.16119    34.67012  -0.00027   182   %  0.2524
    91.000     739    29.99604    4.88655    34.88259  -0.00034   183   %  0.2436
    91.500     744    32.49866    2.49993    34.99859  -0.00026   184   %  0.2319
    92.000     749    33.45502    1.60686    35.06188  -0.00003   185   %  0.2185
    92.500     754    32.62278    2.50907    35.13185   0.00023   186   %  0.2055
    93.000     759    30.16861    5.09952    35.26813   0.00034   187   %  0.1950
    93.500     764    26.62333    8.89723    35.52057   0.00038   188   %  0.1877
    94.000     769    22.71990   13.19662    35.91653   0.00029   189   %  0.1828
    94.500     774    19.19376   17.26424    36.45800   0.00013   190   %  0.1790
    95.000     779    16.61933   20.50481    37.12415  -0.00006   191   %  0.1756
    95.500     784    15.32727   22.55091    37.87818  -0.00021   192   %  0.1992
    96.000     789    15.40194   23.27362    38.67556  -0.00030   193   %  0.2502
    96.500     794    16.73135   22.74018    39.47153  -0.00034   194   %  0.3013
    97.000     799    19.07623   21.15032    40.22654  -0.00033   195   %  0.3509
    97.500     804    22.13438   18.77521    40.90960  -0.00030   196   %  0.3974
    98.000     809    25.58943   15.91024    41.49967  -0.00026   197   %  0.4391
    98.500     814    29.14272   12.84311    41.98584  -0.00021   198   %  0.4747
    99.000     819    32.53212    9.83450    42.36662  -0.00016   199   %  0.5029
    99.500     823    35.54133    7.10615    42.64748  -0.00019   200   %  0.5225
   100.000     827    38.00444    4.83698    42.84142  -0.00019   201   %  0.5328
   100.500     830    39.80820    3.16021    42.96841  -0.00008   202   %  0.5334
   101.000     833    40.88807    2.16426    43.05232   0.00015   203   %  0.5245
   101.500     835    41.22333    1.89538    43.11872   0.00049   204   %  0.5068
   102.000     837    40.82969    2.36470    43.19439   0.00081   205   %  0.4816
   102.500     839    39.75020    3.55569    43.30589   0.00125   206   %  0.4518
   103.000     841    38.04522    5.42816    43.47338   0.00079   207   %  0.4216
   103.500     844    35.78824    7.92937    43.71761   0.00044   208   %  0.3969
   104.000     847    33.06711   10.99083    44.05794   0.00026   209   %  0.3836
   104.500     852    29.99012   14.52052    44.51064   0.00017   210   %  0.3839
   105.000     857    26.70278   18.38890    45.09168   0.00025   211   %  0.3945
   105.500     862    23.40610   22.40395    45.81004   0.00037   212   %  0.4100
   106.000     867    20.37734   26.28796    46.66530   0.00054   213   %  0.4262
   106.500     872    17.98224   29.66312    47.64536   0.00071   214   %  0.4402
   107.000     877    16.66441   32.05864    48.72306   0.00087   215   %  0.4502
   107.500     882    16.89806   32.95574    49.85380   0.00094   216   %  0.4554
   108.000     887    19.09069   31.88501    50.97571   0.00088   217   %  0.4797
   108.500     892    23.43437   28.58007    52.01444   0.00062   218   %  0.5384
   109.000     897    29.72892   23.16517    52.89409   0.00019   219   %  0.5886
   109.500     902    37.24099   16.31319    53.55418  -0.00031   220   %  0.6281
   110.000     907    44.69955    9.27012    53.96968  -0.00068   221   %  0.6555
   110.500     912    50.52203    3.64503    54.16706  -0.00070   222   %  0.6692
   111.000     917    53.27208    0.95587    54.22795  -0.00018   223   %  0.6683
   111.500     921    52.18825    2.08603    54.27428   0.00038   224   %  0.6524
   112.000     926    47.51203    6.92575    54.43778   0.00073   225   %  0.6216
   112.500     931    40.40698   14.42007    54.82705   0.00078   226   %  0.5761
   113.000     936    32.50686   22.99491    55.50177   0.00049   227   %  0.5167
   113.500     941    25.35650   31.11026    56.46676   0.00004   228   %  0.4442
   114.000     946    20.01674   37.66528    57.68202  -0.00033   229   %  0.3594
   114.500     951    16.95432   42.12693    59.08124  -0.00050   230   %  0.2833
   115.000     956    16.16295   44.42673    60.58967  -0.00047   231   %  0.2493
   115.500     961    17.37832   44.75779    62.13612  -0.00034   232   %  0.2073
   116.000     966    20.26403   43.39409    63.65812  -0.00021   233   %  0.1628
   116.500     971    24.50831   40.59420    65.10252  -0.00016   234   %  0.2146
   117.000     976    29.83418   36.59036    66.42455  -0.00019   235   %  0.3359
   117.500     981    35.96125   31.62636    67.58761  -0.00028   236   %  0.4572
   118.000     986    42.56339   26.00120    68.56459  -0.00037   237   %  0.5720
   118.500     991    49.25159   20.08866    69.34024  -0.00043   238   %  0.6761
   119.000     996    55.59008   14.32203    69.91211  -0.00061   239   %  0.7660
   119.500    1000    61.13747    9.15410    70.29158  -0.00093   240   %  0.8385
   120.000    1003    65.50438    5.00615    70.51052  -0.00106   241   %  0.8913
   120.500    1006    68.40401    2.21035    70.61436  -0.00065   242   %  0.9228
   121.000    1009    69.68688    0.97143    70.65831   0.00099   243   %  0.9323
   121.500    1011    69.36244    1.33515    70.69760   0.00162   244   %  0.9199
   122.000    1014    67.59305    3.18717    70.78023   0.00070   245   %  0.8867
   122.500    1019    64.66014    6.29171    70.95184   0.00041   246   %  0.8347
   123.000    1024    60.90905   10.34183    71.25089   0.00040   247   %  0.7670
   123.500    1029    56.66730   15.03652    71.70382   0.00028   248   %  0.6874
   124.000    1034    52.16465   20.16353    72.32818   0.00010   249   %  0.6005
   124.500    1039    47.47618   25.66105    73.13723  -0.00009   250   %  0.5117
   125.000    1044    42.52411   31.62134    74.14544  -0.00015   251   %  0.4271
   125.500    1049    37.16519   38.20712    75.37231   0.00004   252   %  0.3543
   126.000    1054    31.36332   45.47801    76.84133   0.00056   253   %  0.3007
   126.500    1059    25.40497   53.16681    78.57178   0.00135   254   %  0.2685
   127.000    1064    20.07367   60.48960    80.56328   0.00224   255   %  0.2515
   127.500    1069    16.68046   66.09589    82.77635   0.00294   256   %  0.2443
   128.000    1074    16.86374   68.25233    85.11608   0.00318   257   %  0.2569
   128.500    1079    22.12343   65.30425    87.42768   0.00270   258   %  0.3560
   129.000    1084    33.13677   56.37663    89.51340   0.00142   259   %  0.4583
   129.500    1089    49.02928   42.14648    91.17576  -0.00041   260   %  0.5571
   130.000    1094    66.95031   25.33258    92.28289  -0.00211   261   %  0.6462
   130.500    1099    82.43319   10.40246    92.83565  -0.00269   262   %  0.7196
   131.000    1104    90.82711    2.17446    93.00157  -0.00136   263   %  0.7728
   131.500    1109    89.35420    3.72864    93.08284   0.00096   264   %  0.8031
   132.000    1114    78.56247   14.85775    93.42023   0.00205   265   %  0.8098
   132.500    1119    62.06514   32.21704    94.28219   0.00191   266   %  0.7944
   133.000    1124    44.77549   51.01024    95.78573   0.00069   267   %  0.7596
   133.500    1129    30.93427   66.95460    97.88887  -0.00079   268   %  0.7090
   134.000    1134    22.96231   77.47263   100.43494  -0.00194   269   %  0.6463
   134.500    1139    21.31008   81.90813   103.21821  -0.00254   270   %  0.6420
   135.000    1144    24.92733   81.11566   106.04299  -0.00257   271   %  0.6653
   135.500    1149    31.95156   76.81124   108.76280  -0.00210   272   %  0.6776
   136.000    1154    40.38324   70.91301   111.29625  -0.00124   273   %  0.6756
   136.500    1159    48.63006   64.99212   113.62218  -0.00022   274   %  0.6577
   137.000    1164    55.83705   59.92278   115.75982   0.00066   275   %  0.6255
   137.500    1169    61.94622   55.79603   117.74225   0.00114   276   %  0.5879
   138.000    1174    67.49654   52.09593   119.59247   0.00112   277   %  0.5701
   138.500    1179    73.26208   48.04734   121.30942   0.00068   278   %  0.6144
   139.000    1184    79.87750   42.98932   122.86681   0.00005   279   %  0.7219
   139.500    1189    87.58197   36.64097   124.22294  -0.00055   280   %  0.8555
   140.000    1194    96.14178   29.19433   125.33611  -0.00094   281   %  0.9903
   140.500    1199   104.93264   21.24725   126.17989  -0.00107   282   %  1.1132
   141.000    1204   113.11422   13.63975   126.75397  -0.00098   283   %  1.2163
   141.500    1209   119.82297    7.26445   127.08742  -0.00099   284   %  1.2940
   142.000    1213   124.33327    2.90425   127.23752  -0.00103   285   %  1.3424
   142.500    1216   126.17627    1.11519   127.29146   0.00005   286   %  1.3593
   143.000    1219   125.20643    2.14274   127.34918   0.00212   287   %  1.3435
   143.500    1223   121.63509    5.86138   127.49647   0.00089   288   %  1.2958
   144.000    1228   116.01895   11.79797   127.81692   0.00107   289   %  1.2180
   144.500    1233   109.20181   19.17299   128.37480   0.00134   290   %  1.1138
   145.000    1238   102.17088   27.02895   129.19983   0.00137   291   %  0.9887
   145.500    1243    95.83653   34.45254   130.28907   0.00101   292   %  0.8505
   146.000    1248    90.74508   40.86921   131.61429   0.00027   293   %  0.7112
   146.500    1253    86.80976   46.33016   133.13992  -0.00068   294   %  0.5928
   147.000    1258    83.19307   51.65520   134.84827  -0.00142   295   %  0.5353
   147.500    1263    78.47432   58.28953   136.76385  -0.00146   296   %  0.5371
   148.000    1268    71.15343   67.81241   138.96584  -0.00053   297   %  0.5440
   148.500    1272    60.38323   81.19713   141.58036   0.00151   298   %  0.5304
   149.000    1277    46.65686   98.07222   144.72908   0.00385   299   %  0.4926
   149.500    1282    32.15446  116.34306   148.49752   0.00595   300   %  0.4379
   150.000    1287    20.53883  132.32190   152.86073   0.00736   301   %  0.3813
   150.500    1292    16.27388  141.37074   157.64462   0.00787   302   %  0.3372
   151.000    1297    23.56806  138.94536   162.51341   0.00725   303   %  0.4262
   151.500    1302    44.95661  122.04480   167.00140   0.00497   304   %  0.5506
   152.000    1307    79.45894   91.14650   170.60544   0.00055   305   %  0.6721
   152.500    1312   120.70235   52.24756   172.94991  -0.00509   306   %  0.7757
   153.000    1317   156.69370   17.30228   173.99598  -0.00827   307   %  0.8493
   153.500    1322   173.74385    0.43348   174.17734  -0.00830   308   %  0.8850
   154.000    1327   164.18377   10.15057   174.33433   0.00761   309   %  0.8790
   154.500    1332   131.94439   43.37657   175.32096   0.00610   310   %  0.8325
   155.000    1337    89.85889   87.86827   177.72716   0.00312   311   %  0.7515
   155.500    1342    51.75192  129.89888   181.65081  -0.00163   312   %  0.6464
   156.000    1347    26.63230  160.16891   186.80120  -0.00499   313   %  0.5311
   156.500    1352    17.50752  175.17748   192.68500  -0.00662   314   %  0.4447
   157.000    1357    22.81671  175.96934   198.78605  -0.00715   315   %  0.4976
   157.500    1362    38.29187  166.39556   204.68743  -0.00677   316   %  0.5629
   158.000    1367    58.54702  151.58910   210.13612  -0.00526   317   %  0.6258
   158.500    1372    78.48662  136.57101   215.05763  -0.00263   318   %  0.6696
   159.000    1377    94.55939  124.96281   219.52220   0.00056   319   %  0.6824
   159.500    1382   105.56635  118.11583   223.68218   0.00291   320   %  0.6604
   160.000    1387   112.63975  115.05172   227.69147   0.00373   321   %  0.6174
   160.500    1392   118.35256  113.27527   231.62783   0.00287   322   %  0.6680
   161.000    1397   125.44043  110.03798   235.47841   0.00097   323   %  0.8638
   161.500    1402   135.73040  103.42013   239.15053  -0.00105   324   %  1.0898
   162.000    1407   149.64888   92.86377   242.51265  -0.00248   325   %  1.3167
   162.500    1412   166.32958   79.11177   245.44134  -0.00301   326   %  1.5309
   163.000    1417   184.09380   63.76386   247.85766  -0.00277   327   %  1.7223
   163.500    1422   201.00944   48.73653   249.74597  -0.00177   328   %  1.8830
   164.000    1427   215.32711   35.82697   251.15407  -0.00133   329   %  2.0072
   164.500    1431   225.73188   26.44917   252.18105  -0.00109   330   %  2.0908
   165.000    1434   231.45919   21.51465   252.97384   0.00024   331   %  2.1317
   165.500    1438   232.34678   21.35593   253.70271   0.00319   332   %  2.1292
   166.000    1442   228.86157   25.65454   254.51611  -0.00109   333   %  2.0849
   166.500    1447   222.13203   33.41460   255.54664  -0.00984   334   %  2.0029
   167.000    1452   213.65908   43.06645   256.72553  -0.18170   335   %  1.8907
   167.500    1457   205.95586   52.63576   258.59162  -0.00972   336   %  1.7612
   168.000    1462   202.09562   58.45597   260.55159  -0.00123   337   %  1.6381
   168.500    1467   203.89990   58.69337   262.59327  -0.00079   338   %  1.5580
   169.000    1472   211.90493   52.60449   264.50942  -0.00234   339   %  1.5587
   169.500    1477   224.50556   41.59998   266.10555  -0.00456   340   %  1.6389
   170.000    1482   237.97239   29.31057   267.28296  -0.00626   341   %  1.7593
   170.500    1487   247.46257   20.63870   268.10128  -0.00376   342   %  1.8855
   171.000    1492   248.92969   19.84618   268.77586   0.00002   343   %  2.0026
   171.500    1496   241.18468   28.43390   269.61859   0.00276   344   %  2.1104
   172.000    1501   226.68248   44.23205   270.91453   0.00341   345   %  2.2183
   172.500    1506   210.39271   62.42525   272.81797   0.00111   346   %  2.3380
   173.000    1511   197.60485   77.69551   275.30036  -0.00346   347   %  2.4770
   173.500    1516   191.97028   86.20665   278.17693  -0.00854   348   %  2.6354
   174.000    1521   194.55955   86.62212   281.18166  -0.01176   349   %  2.8065
   174.500    1526   204.11343   79.93831   284.05174  -0.01163   350   %  2.9799
   175.000    1531   218.04431   68.54422   286.58853  -0.00877   351   %  3.1447
   175.500    1536   233.47979   55.20489   288.68468  -0.00524   352   %  3.2917
   176.000    1541   247.91060   42.41416   290.32476  -0.00222   353   %  3.4135
   176.500    1546   259.42706   32.14185   291.56891  -0.00089   354   %  3.5048
   177.000    1551   266.71761   25.81842   292.53603  -0.00037   355   %  3.5621
   177.500    1556   268.97439   24.40974   293.38413  -0.00010   356   %  3.5834
   178.000    1561   265.80546   28.49099   294.29646   0.00010   357   %  3.5681
   178.500    1566   257.20939   38.25798   295.46737   0.00022   358   %  3.5172
   179.000    1571   243.63933   53.45049   297.08982   0.00065   359   %  3.4328
   179.500    1576   226.16524   73.16976   299.33501   0.00171   360   %  3.3197
   180.000    1581   206.70046   95.62420   302.32466   0.00310   361   %  3.1849
   180.500    1586   188.17258  117.92393   306.09650   0.00481   362   %  3.0384
   181.000    1591   174.39632  136.16916   310.56548   0.00575   363   %  2.8934
   181.500    1596   169.32037  146.18229   315.50266   0.00459   364   %  2.7638
   182.000    1601   175.46828  145.08859   320.55686   0.00048   365   %  2.6609
   182.500    1606   191.91087  133.43337   325.34424  -0.00586   366   %  2.5876
   183.000    1611   212.84755  116.75528   329.60282  -0.01188   367   %  2.5351
   183.500    1616   228.37964  104.98346   333.36310  -0.01098   368   %  2.4862
   184.000    1621   228.55590  108.46047   337.01638  -0.00264   369   %  2.4232
   184.500    1626   209.20795  131.99596   341.20391   0.00563   370   %  2.3371
   185.000    1631   174.76151  171.79446   346.55597   0.00739   371   %  2.2322
   185.500    1636   135.21671  218.22840   353.44511   0.00424   372   %  2.1251
   186.000    1641   100.89305  260.99371   361.88676   0.00014   373   %  2.0390
   186.500    1646    79.13272  292.45576   371.58848  -0.00282   374   %  1.9953
   187.000    1651    73.61809  308.44810   382.06619  -0.00313   375   %  2.0077
   187.500    1656    85.46624  307.28030   392.74654  -0.00025   376   %  2.0797
   188.000    1661   114.87494  288.14277   403.01770   0.00412   377   %  2.2040
   188.500    1666   161.72104  250.52196   412.24300   0.00646   378   %  2.3608
   189.000    1671   223.78562  196.01722   419.80284   0.00317   379   %  2.5252
   189.500    1676   292.78684  132.46643   425.25328  -0.00547   380   %  2.6755
   190.000    1681   351.66422   76.95614   428.62037  -0.01047   381   %  2.7955
   190.500    1686   379.63630   51.00631   430.64261  -0.00136   382   %  2.8738
   191.000    1691   366.19243   66.42855   432.62098   0.00927   383   %  2.9037
   191.500    1696   320.48346  115.37846   435.86192   0.00846   384   %  2.8832
   192.000    1701   263.52401  177.59556   441.11957  -0.00025   385   %  2.8142
   192.500    1706   213.13186  235.33889   448.47075  -0.00792   386   %  2.7015
   193.000    1711   176.97177  280.59983   457.57160  -0.01044   387   %  2.5549
   193.500    1716   154.62328  313.35093   467.97422  -0.00827   388   %  2.4223
   194.000    1721   142.34966  336.96237   479.31203  -0.00222   389   %  2.3655
   194.500    1726   136.70233  354.62958   491.33191   0.00027   390   %  2.3129
   195.000    1731   136.23493  367.62958   503.86451   0.00230   391   %  2.2597
   195.500    1736   141.62527  375.10726   516.73254   0.00059   392   %  2.2219
   196.000    1741   154.55434  375.15621   529.71055  -0.00068   393   %  2.2204
   196.500    1746   175.88105  366.63061   542.51166  -0.00331   394   %  2.2736
   197.000    1751   204.04701  350.80859   554.85560  -0.00973   395   %  2.3904
   197.500    1756   234.70514  331.85923   566.56437  -0.02518   396   %  2.5668
   198.000    1761   261.23376  316.34041   577.57417  -0.13348   397   %  2.7912
   198.500    1766   268.94664  320.01917   588.96581   0.39583   398   %  3.0546
   199.000    1771   258.98646  341.03030   600.01676  -0.02062   399   %  3.3583
   199.500    1776   247.20309  365.11698   612.32006   0.00202   400   %  3.6973
   200.000    1781   240.78800  384.56406   625.35207  -0.00089   401   %  4.0651
   200.500    1786   244.68451  394.17260   638.85712  -0.00797   402   %  4.4523
   201.000    1791   259.80994  392.65400   652.46394  -0.01239   403   %  4.8482
   201.500    1796   283.48828  382.33976   665.82804  -0.01482   404   %  5.2419
   202.000    1801   311.38615  367.34909   678.73523  -0.00896   405   %  5.6247
   202.500    1806   339.33160  351.76700   691.09861  -0.00668   406   %  5.9904
   203.000    1811   364.18513  338.78510   702.97023  -0.00453   407   %  6.3360
   203.500    1816   383.87412  330.61316   714.48728  -0.00327   408   %  6.6609
   204.000    1821   397.04360  328.80624   725.84984  -0.00243   409   %  6.9670
   204.500    1826   402.74137  334.56365   737.30502  -0.00044   410   %  7.2581
   205.000    1831   400.57741  348.55673   749.13414   0.00633   411   %  7.5396
   205.500    1836   392.09030  369.51924   761.60954   0.02307   412   %  7.8176
   206.000    1841   383.80353  391.05474   774.85827   0.04941   413   %  8.0967
   206.500    1846   387.78956  400.81919   788.60875   0.04332   414   %  8.3762
   207.000    1851   403.02557  399.31798   802.34356  -0.02848   415   %  8.6464
   207.500    1856   393.81729  422.77101   816.58830   0.05511   416   %  8.8946
   208.000    1861   360.24934  471.92240   832.17174   0.02134   417   %  9.1256
   208.500    1866   347.10525  502.03259   849.13784  -0.02479   418   %  9.3608
   209.000    1871   366.23682  500.29986   866.53668  -0.00851   419   %  9.6139
   209.500    1876   403.69527  479.68611   883.38139  -0.03167   420   %  9.8820



 **********************
 *                    *
 * JOB ENDED NORMALLY *
 *                    *
 **********************



 TOTAL JOB TIME:             4.94 SECONDS

 == MOPAC DONE ==
