 *******************************************************************************
 ** Site#: 29054        For non-commercial use only    Version 18.021W 64BITS **
 *******************************************************************************
 ** Cite this program as: MOPAC2016, Version: 18.021W, James J. P. Stewart,   **
 ** Stewart Computational Chemistry, web: HTTP://OpenMOPAC.net. Days left: 364**
 *******************************************************************************
 **                                                                           **
 **                                MOPAC2016                                  **
 **                                                                           **
 *******************************************************************************

                              PM7 CALCULATION RESULTS


 *******************************************************************************
 *  CALCULATION DONE:                                Mon Jan 22 09:00:17 2018  *
 *  SYMMETRY   - SYMMETRY CONDITIONS TO BE IMPOSED
 *
 *
 *
 *                 CHARGE ON SYSTEM =    +1
 *
 *
 *
 *  EPS= 78.40 - USE ANDREAS KLAMT'S COSMO IMPLICIT SOLVATION MODEL
 *  PRECISE    - CRITERIA TO BE INCREASED BY 100 TIMES
 *  T=         - A TIME OF 172800.0 SECONDS REQUESTED
 *  DUMP=N     - RESTART FILE WRITTEN EVERY  7200.000 SECONDS
 *******************************************************************************



                    PARAMETER DEPENDENCE DATA

        REFERENCE ATOM      FUNCTION NO.    DEPENDENT ATOM(S)
            2                  1               3

             DESCRIPTIONS OF THE FUNCTIONS USED
   1      BOND LENGTH    IS SET EQUAL TO THE REFERENCE BOND LENGTH   
 
 symmetry eps=78.4 charge=1 precise
 [NH4](+) + NH3 <=> NH3 + [NH4](+)

  ATOM    CHEMICAL      BOND LENGTH      BOND ANGLE     TWIST ANGLE 
 NUMBER    SYMBOL       (ANGSTROMS)      (DEGREES)       (DEGREES) 
   (I)                     NA:I           NB:NA:I       NC:NB:NA:I       NA    NB    NC 
     1       H          0.00000000       0.0000000       0.0000000        0     0     0
     2       N          1.52935199  *    0.0000000  *    0.0000000  *     1     0     0
     3       N          1.52935199     111.2204676  *    0.0000000  *     1     2     0
     4       H          1.09534441  *  111.2971548  *  180.0000000  *     2     1     3
     5       H          1.09534441  *  111.2971548  *  180.0000000  *     3     1     2
     6       H          1.09525991  *  111.3978555  *  -59.9798968  *     2     1     3
     7       H          1.09525991  *  111.3978555  *   59.9798968  *     2     1     3
     8       H          1.09525991  *  111.3978555  *   59.9798968  *     3     1     2
     9       H          1.09525991  *  111.3978555  *  -59.9798968  *     3     1     2
 


          CARTESIAN COORDINATES 

    NO.       ATOM           X           Y           Z

     1         H          0.0000      0.0000      0.0000
     2         N          1.5294      0.0000      0.0000
     3         N         -0.5536      1.4257      0.0000
     4         H          1.9272     -1.0205      0.0000
     5         H         -1.6489      1.4271     -0.0000
     6         H          1.9289      0.5102     -0.8830
     7         H          1.9289      0.5102      0.8830
     8         H         -0.2226      1.9828     -0.8830
     9         H         -0.2226      1.9828      0.8830

 General Reference for PM7:
 "Optimization of Parameters for Semiempirical Methods VI: More Modifications to the 
 NDDO Approximations and Re-optimization of Parameters", J. J. P. Stewart, J. Mol. Mod., 1:32, 19 (2013)
 http://www.springerlink.com/openurl.asp?genre=article&id=doi:10.1007/s00894-012-1667-x

           Empirical Formula: H7 N2  =     9 atoms



      MOLECULAR POINT GROUP   :   C2v 


      RHF CALCULATION, NO. OF DOUBLY OCCUPIED LEVELS = 8


          Geometry optimization using EF

          DIAGONAL MATRIX USED AS START HESSIAN

 CYCLE:     1 TIME:   0.016 TIME LEFT:  2.00D  GRAD.:   143.009 HEAT:  97.87135
 CYCLE:     2 TIME:   0.033 TIME LEFT:  2.00D  GRAD.:    70.597 HEAT:  82.24609
 CYCLE:     3 TIME:   0.000 TIME LEFT:  2.00D  GRAD.:    55.234 HEAT:  76.21053
 CYCLE:     4 TIME:   0.014 TIME LEFT:  2.00D  GRAD.:    39.325 HEAT:  73.07171
 CYCLE:     5 TIME:   0.000 TIME LEFT:  2.00D  GRAD.:    29.351 HEAT:  67.02833
 CYCLE:     6 TIME:   0.016 TIME LEFT:  2.00D  GRAD.:    14.547 HEAT:  62.98952
 CYCLE:     7 TIME:   0.000 TIME LEFT:  2.00D  GRAD.:    18.153 HEAT:  62.29347
 CYCLE:     8 TIME:   0.016 TIME LEFT:  2.00D  GRAD.:    13.489 HEAT:  61.89510
 CYCLE:     9 TIME:   0.016 TIME LEFT:  2.00D  GRAD.:     3.099 HEAT:  61.70441
 CYCLE:    10 TIME:   0.000 TIME LEFT:  2.00D  GRAD.:     0.276 HEAT:  61.67959
 CYCLE:    11 TIME:   0.016 TIME LEFT:  2.00D  GRAD.:     0.201 HEAT:  61.67787
 CYCLE:    12 TIME:   0.016 TIME LEFT:  2.00D  GRAD.:     0.218 HEAT:  61.67643
 CYCLE:    13 TIME:   0.000 TIME LEFT:  2.00D  GRAD.:     0.221 HEAT:  61.67807
 CYCLE:    14 TIME:   0.016 TIME LEFT:  2.00D  GRAD.:     0.368 HEAT:  61.65340
 CYCLE:    15 TIME:   0.031 TIME LEFT:  2.00D  GRAD.:     0.266 HEAT:  61.65691
 CYCLE:    16 TIME:   0.047 TIME LEFT:  2.00D  GRAD.:     0.204 HEAT:  61.65652

     TRUST RADIUS NOW LESS THAN  0.00010 OPTIMIZATION TERMINATING
      THE GEOMETRY MAY NOT BE COMPLETELY OPTIMIZED
      (TO CONTINUE, ADD 'LET DDMIN=0.0' TO THE KEYWORD LINE)

 -------------------------------------------------------------------------------
 symmetry eps=78.4 charge=1 precise
 [NH4](+) + NH3 <=> NH3 + [NH4](+)



     GEOMETRY OPTIMISED USING EIGENVECTOR FOLLOWING (EF).     
     SCF FIELD WAS ACHIEVED                                   


                              PM7 CALCULATION
                                                       MOPAC2016 (Version: 18.021W)
                                                       Mon Jan 22 09:00:18 2018
                                                       No. of days remaining = 364




          FINAL HEAT OF FORMATION =         61.65340 KCAL/MOL =     257.95783 KJ/MOL
          VAN DER WAALS AREA      =         82.70 SQUARE ANGSTROMS


          TOTAL ENERGY            =       -463.59366 EV
          ELECTRONIC ENERGY       =       -410.47720 EV  POINT GROUP:     D3h 
          CORE-CORE REPULSION     =        -53.11647 EV
          DIELECTRIC ENERGY       =         -2.81508 EV
          COSMO AREA              =         82.70 SQUARE ANGSTROMS
          COSMO VOLUME            =         59.42 CUBIC ANGSTROMS

          GRADIENT NORM           =          0.36846
          IONIZATION POTENTIAL    =         11.337341 EV
          HOMO LUMO ENERGIES (EV) =        -11.337  3.153
          NO. OF FILLED LEVELS    =          8
          MOLECULAR WEIGHT        =         35.0687

          MOLECULAR DIMENSIONS (Angstroms)

            Atom       Atom       Distance
            H     8    H     7     3.70770
            H     6    H     9     2.94510
            H     9    H     5     1.42352


          SCF CALCULATIONS        =         29
 
          WALL-CLOCK TIME         =          0.312 SECONDS
          COMPUTATION TIME        =          1.139 SECONDS




  ATOM    CHEMICAL      BOND LENGTH      BOND ANGLE     TWIST ANGLE 
 NUMBER    SYMBOL       (ANGSTROMS)      (DEGREES)       (DEGREES) 
   (I)                     NA:I           NB:NA:I       NC:NB:NA:I       NA    NB    NC 
     1       H          0.00000000       0.0000000       0.0000000        0     0     0
     2       N          1.31011296  *    0.0000000  *    0.0000000  *     1     0     0
     3       N          1.31011296     179.8353393  *  180.0000000  *     1     2     0
     4       H          1.01146373  *  110.0417924  *  179.9672032  *     2     1     3
     5       H          1.01105393  *  110.2655542  * -179.8235575  *     3     1     2
     6       H          1.01123709  *  110.3797228  *  -60.1873683  *     2     1     3
     7       H          1.01132252  *  110.4301147  *   60.0186366  *     2     1     3
     8       H          1.01169983  *  110.3236513  *   60.1883334  *     3     1     2
     9       H          1.01133705  *  110.3298290  *  -59.8057252  *     3     1     2

                             CARTESIAN COORDINATES

   1    H        0.000000000     0.000000000     0.000000000
   2    N        1.310112959     0.000000000     0.000000000
   3    N       -1.310107549    -0.003765091     0.000000000
   4    H        1.656747122     0.950212264    -0.000543913
   5    H       -1.663032363     0.943687066    -0.002920802
   6    H        1.662266483    -0.471282339     0.822484834
   7    H        1.663129885    -0.473587495    -0.820894126
   8    H       -1.660137015    -0.476428302     0.823167906
   9    H       -1.660098048    -0.481724440    -0.819673195


           Empirical Formula: H7 N2  =     9 atoms



      MOLECULAR POINT GROUP   :   D3h 


                  EIGENVALUES  
 -37.83955 -36.00581 -16.92918 -16.92681 -16.69694 -16.69506 -16.62238 -11.33734
   3.15334   4.39138   6.10029   6.21109   6.21621   6.21751   6.22896


              NET ATOMIC CHARGES AND DIPOLE CONTRIBUTIONS

  ATOM NO.   TYPE          CHARGE      No. of ELECS.   s-Pop       p-Pop       
    1          H           0.381965        0.6180     0.61803
    2          N          -0.539138        5.5391     1.54836     3.99077
    3          N          -0.538868        5.5389     1.54848     3.99038
    4          H           0.283203        0.7168     0.71680
    5          H           0.282244        0.7178     0.71776
    6          H           0.281803        0.7182     0.71820
    7          H           0.283343        0.7167     0.71666
    8          H           0.283306        0.7167     0.71669
    9          H           0.282141        0.7179     0.71786
 DIPOLE           X         Y         Z       TOTAL
 POINT-CHG.     0.002     0.007     0.001     0.007
 HYBRID        -0.001     0.002     0.001     0.002
 SUM            0.001     0.009     0.001     0.009


          ATOMIC ORBITAL ELECTRON POPULATIONS

     Atom    s        px        py        pz   
    1  H   0.61803
    2  N   1.54836   1.50240   1.24463   1.24375
    3  N   1.54848   1.50239   1.24383   1.24416
    4  H   0.71680
    5  H   0.71776
    6  H   0.71820
    7  H   0.71666
    8  H   0.71669
    9  H   0.71786
 *******************************************************************************
 ** Site#: 29054        For non-commercial use only    Version 18.021W 64BITS **
 *******************************************************************************
 ** Cite this program as: MOPAC2016, Version: 18.021W, James J. P. Stewart,   **
 ** Stewart Computational Chemistry, web: HTTP://OpenMOPAC.net. Days left: 364**
 *******************************************************************************
 **                                                                           **
 **                                MOPAC2016                                  **
 **                                                                           **
 *******************************************************************************

                              PM7 CALCULATION RESULTS


 *******************************************************************************
 *  CALCULATION DONE:                                Mon Jan 22 09:00:18 2018  *
 *
 *
 *
 *                 CHARGE ON SYSTEM =    +1
 *
 *
 *
 *  EPS= 78.40 - USE ANDREAS KLAMT'S COSMO IMPLICIT SOLVATION MODEL
 *  OLDGEO     - PREVIOUS GEOMETRY TO BE USED
 *  FORCE      - FORCE CALCULATION SPECIFIED
 *  T=         - A TIME OF 172800.0 SECONDS REQUESTED
 *  DUMP=N     - RESTART FILE WRITTEN EVERY  7200.000 SECONDS
 *  ISOTOPE    - FORCE MATRIX WRITTEN TO DISK (CHAN. 9 )
 *******************************************************************************
oldgeo force eps=78.4 charge=1 isotope
 [NH4](+) + NH3 <=> NH3 + [NH4](+)

  ATOM    CHEMICAL      BOND LENGTH      BOND ANGLE     TWIST ANGLE 
 NUMBER    SYMBOL       (ANGSTROMS)      (DEGREES)       (DEGREES) 
   (I)                     NA:I           NB:NA:I       NC:NB:NA:I       NA    NB    NC 
     1       H          0.00000000       0.0000000       0.0000000        0     0     0
     2       N          1.31011296  *    0.0000000  *    0.0000000  *     1     0     0
     3       N          1.31011296     179.8353393  *  180.0000000  *     1     2     0
     4       H          1.01146373  *  110.0417924  *  179.9672032  *     2     1     3
     5       H          1.01105393  *  110.2655542  * -179.8235575  *     3     1     2
     6       H          1.01123709  *  110.3797228  *  -60.1873683  *     2     1     3
     7       H          1.01132252  *  110.4301147  *   60.0186366  *     2     1     3
     8       H          1.01169983  *  110.3236513  *   60.1883334  *     3     1     2
     9       H          1.01133705  *  110.3298290  *  -59.8057252  *     3     1     2
 


          CARTESIAN COORDINATES 

    NO.       ATOM           X           Y           Z

     1         H          0.0000      0.0000      0.0000
     2         N          1.3101      0.0000      0.0000
     3         N         -1.3101     -0.0038      0.0000
     4         H          1.6567      0.9502     -0.0005
     5         H         -1.6630      0.9437     -0.0029
     6         H          1.6623     -0.4713      0.8225
     7         H          1.6631     -0.4736     -0.8209
     8         H         -1.6601     -0.4764      0.8232
     9         H         -1.6601     -0.4817     -0.8197

 General Reference for PM7:
 "Optimization of Parameters for Semiempirical Methods VI: More Modifications to the 
 NDDO Approximations and Re-optimization of Parameters", J. J. P. Stewart, J. Mol. Mod., 1:32, 19 (2013)
 http://www.springerlink.com/openurl.asp?genre=article&id=doi:10.1007/s00894-012-1667-x

           Empirical Formula: H7 N2  =     9 atoms



      MOLECULAR POINT GROUP   :   D3h 


      RHF CALCULATION, NO. OF DOUBLY OCCUPIED LEVELS = 8



          HEAT OF FORMATION =      61.653400 KCALS/MOLE


          CARTESIAN COORDINATE DERIVATIVES

   NUMBER  ATOM         X            Y            Z

     1       H     -0.090994    -0.312602    -0.021543
     2       N      0.360341     0.295706     0.214774
     3       N      0.038644    -0.210484    -0.000666
     4       H     -0.219327     0.058096    -0.013246
     5       H      0.110265     0.135368    -0.017772
     6       H      0.003746    -0.044946    -0.134868
     7       H     -0.070316    -0.051665    -0.046504
     8       H     -0.086388     0.079839     0.034338
     9       H     -0.046001     0.050867    -0.014341
 


          GRADIENT NORM =   0.74031


          TIME FOR SCF CALCULATION =    0.02

          TIME FOR DERIVATIVES     =    0.00

          MOLECULAR WEIGHT =   35.07



          ROTATIONAL CONSTANTS IN CM(-1)

          A =    3.09808487   B =    0.24980081   C =    0.24979529



           PRINCIPAL MOMENTS OF INERTIA IN UNITS OF 10**(-40)*GRAM-CM**2

          A =        9.0355   B =      112.0604   C =      112.0629


          ORIENTATION OF MOLECULE IN FORCE CALCULATION

    NO.       ATOM         X         Y         Z

     1          H       0.0000   -0.0018    0.0000
     2          N       1.3101   -0.0018    0.0000
     3          N      -1.3101    0.0020    0.0000
     4          H       1.6568   -0.9520    0.0006
     5          H      -1.6630   -0.9455    0.0030
     6          H       1.6623    0.4695   -0.8224
     7          H       1.6632    0.4718    0.8209
     8          H      -1.6601    0.4747   -0.8231
     9          H      -1.6601    0.4800    0.8197


    FIRST DERIVATIVES WILL BE USED IN THE CALCULATION OF SECOND DERIVATIVES

          ESTIMATED TIME TO COMPLETE CALCULATION =        0.84 SECONDS

    FOR POINT-GROUP D3h  THERE ARE  12 UNIQUE SYMMETRY FUNCTIONS.

 STEP:   1 TIME =     0.02 SECS, INTEGRAL =      0.02 TIME LEFT: 172799.97
 STEP:   2 TIME =     0.03 SECS, INTEGRAL =      0.05 TIME LEFT: 172799.94
 STEP:   3 TIME =     0.02 SECS, INTEGRAL =      0.06 TIME LEFT: 172799.92
 STEP:   4 TIME =     0.02 SECS, INTEGRAL =      0.08 TIME LEFT: 172799.91
 STEP:   5 TIME =     0.02 SECS, INTEGRAL =      0.09 TIME LEFT: 172799.89
 STEP:   6 TIME =     0.02 SECS, INTEGRAL =      0.11 TIME LEFT: 172799.88
 STEP:   7                       INTEGRAL =      0.11 TIME LEFT: 172799.88
 STEP:   8                       INTEGRAL =      0.11 TIME LEFT: 172799.88
 STEP:   9                       INTEGRAL =      0.11 TIME LEFT: 172799.88
 STEP:  10 TIME =     0.02 SECS, INTEGRAL =      0.12 TIME LEFT: 172799.86
 STEP:  11 TIME =     0.02 SECS, INTEGRAL =      0.14 TIME LEFT: 172799.84
 STEP:  12 TIME =     0.02 SECS, INTEGRAL =      0.16 TIME LEFT: 172799.83
 STEP:  13                       INTEGRAL =      0.16 TIME LEFT: 172799.83
 STEP:  14                       INTEGRAL =      0.16 TIME LEFT: 172799.83
 STEP:  15                       INTEGRAL =      0.16 TIME LEFT: 172799.83
 STEP:  16                       INTEGRAL =      0.16 TIME LEFT: 172799.83
 STEP:  17                       INTEGRAL =      0.16 TIME LEFT: 172799.83
 STEP:  18                       INTEGRAL =      0.16 TIME LEFT: 172799.83
 STEP:  19                       INTEGRAL =      0.16 TIME LEFT: 172799.83
 STEP:  20                       INTEGRAL =      0.16 TIME LEFT: 172799.83
 STEP:  21                       INTEGRAL =      0.16 TIME LEFT: 172799.83
 STEP:  22                       INTEGRAL =      0.16 TIME LEFT: 172799.83
 STEP:  23                       INTEGRAL =      0.16 TIME LEFT: 172799.83
 STEP:  24                       INTEGRAL =      0.16 TIME LEFT: 172799.83
 STEP:  25                       INTEGRAL =      0.16 TIME LEFT: 172799.83
 STEP:  26                       INTEGRAL =      0.16 TIME LEFT: 172799.83
 STEP:  27                       INTEGRAL =      0.16 TIME LEFT: 172799.83

(To convert to Hartree/Bohr^2, multiply by (10^(-21) x N x a0^2)/(4.184 x 627.51) =  0.0642)


           FORCE MATRIX IN MILLIDYNES/ANGSTROM


                  H  1       N  2       N  3       H  4       H  5       H  6
 ------------------------------------------------------------------------------
     H    1   1.438622
     N    2   0.797606  10.322015
     N    3   0.704613   1.248306  10.322015
     H    4   0.298878   3.789140   0.054470   4.354460
     H    5   0.264581   0.084859   3.740817   0.163453   4.354460
     H    6   0.284333   3.774519   0.074801   0.654156   0.029422   4.354460
     H    7   0.285324   3.825572   0.068166   0.656036   0.021387   0.654156
     H    8   0.267339   0.068166   3.825572   0.021387   0.656036   0.163453
     H    9   0.256367   0.074801   3.774519   0.029422   0.654156   0.021387


                  H  7       H  8       H  9
 ------------------------------------------
     H    7   4.354460
     H    8   0.029422   4.354460
     H    9   0.163453   0.654156   4.354460


          HEAT OF FORMATION =      61.653400 KCALS/MOLE

          ZERO POINT ENERGY      45.567 KCAL/MOL

         NOTE: SYSTEM IS NOT A GROUND STATE, THEREFORE ZERO POINT
         ENERGY IS NOT MEANINGFULL. ZERO POINT ENERGY PRINTED
         DOES NOT INCLUDE THE  1 IMAGINARY FREQUENCIES


           NORMAL COORDINATE ANALYSIS (Total motion = 1 Angstrom)


   Root No.       1         2         3         4         5         6         7         8

                 1 A2"     1 A1"     1 E'      1 E'      1 A1'     1 E"      1 E"      2 A2" 

               -1044.3     160.5     533.6     533.6     565.8     736.7     736.7    1386.3
  
           1    0.7653   -0.0000    0.0001    0.0003    0.0000    0.0000   -0.0000    0.0120
           2   -0.0012    0.0000    0.0953    0.1764   -0.0000   -0.0000   -0.0000   -0.0000
           3   -0.0000    0.0000    0.1730   -0.0972    0.0000    0.0000   -0.0000   -0.0000
           4   -0.0217    0.0000    0.0000    0.0000   -0.1314    0.0000   -0.0000   -0.0320
           5    0.0000    0.0000    0.0030    0.0056    0.0002    0.0138   -0.0297    0.0000
           6    0.0000   -0.0000    0.0055   -0.0031    0.0000    0.0287    0.0143   -0.0000
           7   -0.0217   -0.0000    0.0000    0.0000    0.1314   -0.0000    0.0000   -0.0320
           8    0.0001   -0.0000    0.0031    0.0056   -0.0002   -0.0138    0.0297    0.0001
           9   -0.0000    0.0000    0.0055   -0.0031   -0.0000   -0.0287   -0.0143    0.0000
          10   -0.0270    0.0000   -0.0826   -0.1535   -0.1229   -0.0942    0.2033    0.1465
          11   -0.0171   -0.0003   -0.0292   -0.0539    0.0015   -0.0216    0.0464    0.0474
          12    0.0000   -0.1667   -0.0558    0.0313   -0.0000   -0.0526   -0.0262   -0.0000
          13   -0.0269    0.0000    0.0825    0.1533    0.1229   -0.0942    0.2032    0.1463
          14    0.0171    0.0003   -0.0294   -0.0544    0.0011    0.0219   -0.0471   -0.0479
          15   -0.0001    0.1667   -0.0558    0.0313   -0.0000    0.0527    0.0263    0.0001
          16   -0.0269    0.0002   -0.0891    0.1495   -0.1229   -0.1230   -0.1860    0.1464
          17    0.0085    0.1445   -0.0313   -0.0558   -0.0005   -0.0276    0.0512   -0.0240
          18   -0.0148    0.0830   -0.0544    0.0291    0.0011   -0.0486   -0.0201    0.0413
          19   -0.0269   -0.0002    0.1716    0.0037   -0.1229    0.2172   -0.0171    0.1464
          20    0.0086   -0.1442   -0.0295   -0.0568   -0.0005   -0.0215    0.0542   -0.0241
          21    0.0148    0.0836   -0.0531    0.0314   -0.0011   -0.0455   -0.0268   -0.0413
          22   -0.0269   -0.0002    0.0890   -0.1497    0.1229   -0.1229   -0.1861    0.1465
          23   -0.0084   -0.1445   -0.0316   -0.0553   -0.0008    0.0279   -0.0507    0.0235
          24    0.0148   -0.0831   -0.0544    0.0290    0.0011    0.0486    0.0201   -0.0413
          25   -0.0269    0.0002   -0.1717   -0.0039    0.1229    0.2172   -0.0173    0.1465
          26   -0.0085    0.1442   -0.0290   -0.0568   -0.0008    0.0209   -0.0541    0.0237
          27   -0.0148   -0.0836   -0.0532    0.0314   -0.0011    0.0455    0.0268    0.0412


   Root No.       9        10        11        12        13        14        15        16

                 2 E'      2 E'      2 A1'     2 E"      2 E"      3 E'      3 E'      4 E'  

                1402.1    1402.1    1468.1    1601.4    1601.4    1614.9    1614.9    2703.5
  
           1   -0.0001    0.0006   -0.0000   -0.0000   -0.0000   -0.0001   -0.0001    0.0000
           2   -0.0350    0.3921    0.0000    0.0000   -0.0000   -0.0419   -0.0456    0.0079
           3    0.3923    0.0350   -0.0000    0.0000   -0.0000   -0.0457    0.0418   -0.0078
           4    0.0000   -0.0000   -0.0298    0.0000    0.0000   -0.0000   -0.0000    0.0000
           5    0.0023   -0.0252    0.0000    0.0026    0.0199   -0.0103   -0.0112    0.0159
           6   -0.0253   -0.0023   -0.0000    0.0196   -0.0027   -0.0112    0.0103   -0.0159
           7    0.0000   -0.0000    0.0298   -0.0000   -0.0000   -0.0000   -0.0000    0.0000
           8    0.0022   -0.0252   -0.0000   -0.0026   -0.0199   -0.0103   -0.0112    0.0160
           9   -0.0253   -0.0022    0.0000   -0.0196    0.0027   -0.0112    0.0103   -0.0159
          10   -0.0095    0.1040    0.1484    0.0103    0.0793   -0.0605   -0.0661    0.0613
          11   -0.0024    0.0278    0.0503    0.0034    0.0291   -0.0238   -0.0265   -0.1618
          12    0.0751    0.0068   -0.0001   -0.2168    0.0289    0.1460   -0.1329   -0.0106
          13    0.0095   -0.1040   -0.1483    0.0103    0.0792    0.0604    0.0660   -0.0618
          14   -0.0024    0.0281    0.0508   -0.0034   -0.0294   -0.0239   -0.0267   -0.1616
          15    0.0751    0.0068   -0.0001    0.2169   -0.0289    0.1459   -0.1329   -0.0105
          16    0.0949   -0.0437    0.1483    0.0624   -0.0489   -0.0268    0.0853   -0.0838
          17    0.0148    0.0654   -0.0254   -0.1271   -0.1434    0.1687    0.0346   -0.1057
          18    0.0380    0.0240    0.0439   -0.0465   -0.1032    0.0845    0.0592    0.1924
          19   -0.0854   -0.0601    0.1483   -0.0727   -0.0308    0.0876   -0.0190    0.0221
          20   -0.0262    0.0616   -0.0256    0.0860   -0.1715    0.0191    0.1704    0.0418
          21    0.0418   -0.0170   -0.0437   -0.0188    0.1125   -0.0515   -0.0900    0.0426
          22   -0.0949    0.0439   -0.1484    0.0627   -0.0484    0.0274   -0.0852    0.0834
          23    0.0151    0.0653   -0.0250    0.1268    0.1436    0.1687    0.0348   -0.1060
          24    0.0380    0.0240    0.0439    0.0464    0.1032    0.0845    0.0592    0.1924
          25    0.0853    0.0603   -0.1484   -0.0730   -0.0303   -0.0875    0.0195   -0.0219
          26   -0.0265    0.0614   -0.0251   -0.0857    0.1716    0.0193    0.1704    0.0418
          27    0.0418   -0.0170   -0.0437    0.0187   -0.1125   -0.0516   -0.0899    0.0426


   Root No.      17        18        19        20        21

                 4 E'      3 E"      3 E"      3 A1'     3 A2" 

                2703.5    2744.5    2744.5    2797.4    2823.1
  
           1   -0.0000   -0.0000   -0.0000   -0.0000    0.0185
           2   -0.0078   -0.0000   -0.0000   -0.0000   -0.0000
           3   -0.0079    0.0000    0.0000   -0.0000    0.0000
           4   -0.0000   -0.0000   -0.0000    0.0094    0.0084
           5   -0.0158   -0.0018   -0.0224    0.0000   -0.0000
           6   -0.0159   -0.0244    0.0016    0.0000    0.0000
           7   -0.0000    0.0000    0.0000   -0.0094    0.0084
           8   -0.0158    0.0018    0.0224   -0.0000   -0.0000
           9   -0.0159    0.0244   -0.0016   -0.0000   -0.0000
          10   -0.0606   -0.0060   -0.0772   -0.0446   -0.0419
          11    0.1598    0.0174    0.2250    0.1574    0.1552
          12   -0.0112   -0.0186    0.0008   -0.0003   -0.0001
          13    0.0611   -0.0060   -0.0779    0.0451   -0.0424
          14    0.1596   -0.0174   -0.2247    0.1571   -0.1551
          15   -0.0112    0.0183   -0.0007   -0.0004    0.0004
          16   -0.0229   -0.0704    0.0437   -0.0450   -0.0423
          17   -0.0426   -0.1102    0.0507   -0.0782   -0.0774
          18    0.0445    0.1714   -0.1165    0.1364    0.1344
          19    0.0838    0.0764    0.0341   -0.0450   -0.0423
          20    0.1067    0.1176    0.0363   -0.0788   -0.0776
          21    0.1919    0.1872    0.0929   -0.1360   -0.1343
          22    0.0227   -0.0701    0.0435    0.0447   -0.0421
          23   -0.0427    0.1106   -0.0508   -0.0784    0.0772
          24    0.0445   -0.1713    0.1164    0.1364   -0.1346
          25   -0.0835    0.0761    0.0340    0.0447   -0.0421
          26    0.1069   -0.1181   -0.0363   -0.0790    0.0780
          27    0.1919   -0.1870   -0.0929   -0.1360    0.1341


           MASS-WEIGHTED COORDINATE ANALYSIS (NORMAL COORDINATES)


   Root No.       1         2         3         4         5         6         7         8

                 1 A2"     1 A1"     1 E'      1 E'      1 A1'     1 E"      1 E"      2 A2" 

               -1044.3     160.5     533.6     533.6     565.8     736.7     736.7    1386.3
  
           1    0.9840   -0.0000    0.0004    0.0007    0.0000    0.0000   -0.0000    0.0291
           2   -0.0015    0.0000    0.2447    0.4442   -0.0000   -0.0000   -0.0000   -0.0000
           3   -0.0000    0.0000    0.4442   -0.2447    0.0000    0.0000   -0.0000   -0.0000
           4   -0.1041    0.0000    0.0000    0.0001   -0.6485    0.0002   -0.0004   -0.2889
           5    0.0000    0.0000    0.0291    0.0529    0.0010    0.1189   -0.2467    0.0004
           6    0.0000   -0.0001    0.0530   -0.0290    0.0000    0.2467    0.1189   -0.0000
           7   -0.1041   -0.0000    0.0000    0.0001    0.6485   -0.0002    0.0004   -0.2889
           8    0.0003   -0.0000    0.0292    0.0529   -0.0010   -0.1189    0.2467    0.0005
           9   -0.0000    0.0001    0.0529   -0.0292   -0.0000   -0.2467   -0.1189    0.0000
          10   -0.0347    0.0000   -0.2120   -0.3866   -0.1627   -0.2171    0.4527    0.3543
          11   -0.0219   -0.0008   -0.0749   -0.1358    0.0020   -0.0499    0.1034    0.1147
          12    0.0000   -0.4083   -0.1433    0.0789   -0.0000   -0.1212   -0.0584   -0.0001
          13   -0.0346    0.0000    0.2117    0.3862    0.1627   -0.2170    0.4523    0.3540
          14    0.0220    0.0008   -0.0755   -0.1370    0.0015    0.0505   -0.1048   -0.1158
          15   -0.0001    0.4083   -0.1433    0.0788   -0.0000    0.1215    0.0585    0.0003
          16   -0.0346    0.0005   -0.2288    0.3765   -0.1627   -0.2834   -0.4140    0.3541
          17    0.0110    0.3539   -0.0804   -0.1405   -0.0006   -0.0635    0.1140   -0.0581
          18   -0.0190    0.2034   -0.1396    0.0732    0.0015   -0.1120   -0.0448    0.0998
          19   -0.0346   -0.0005    0.4404    0.0095   -0.1627    0.5003   -0.0381    0.3541
          20    0.0110   -0.3531   -0.0758   -0.1431   -0.0006   -0.0495    0.1207   -0.0583
          21    0.0190    0.2047   -0.1364    0.0790   -0.0015   -0.1049   -0.0598   -0.0998
          22   -0.0346   -0.0006    0.2286   -0.3769    0.1627   -0.2832   -0.4144    0.3542
          23   -0.0108   -0.3540   -0.0811   -0.1393   -0.0011    0.0642   -0.1129    0.0568
          24    0.0190   -0.2034   -0.1397    0.0731    0.0015    0.1119    0.0447   -0.1000
          25   -0.0346    0.0006   -0.4407   -0.0100    0.1627    0.5005   -0.0385    0.3542
          26   -0.0109    0.3532   -0.0744   -0.1431   -0.0011    0.0482   -0.1205    0.0574
          27   -0.0190   -0.2048   -0.1365    0.0790   -0.0015    0.1047    0.0597    0.0997


   Root No.       9        10        11        12        13        14        15        16

                 2 E'      2 E'      2 A1'     2 E"      2 E"      3 E'      3 E'      4 E'  

                1402.1    1402.1    1468.1    1601.4    1601.4    1614.9    1614.9    2703.5
  
           1   -0.0001    0.0013   -0.0000   -0.0000   -0.0000   -0.0002   -0.0002    0.0000
           2   -0.0738    0.8266    0.0000    0.0000   -0.0000   -0.1064   -0.1160    0.0179
           3    0.8266    0.0738   -0.0000    0.0000   -0.0000   -0.1160    0.1064   -0.0178
           4    0.0000   -0.0003   -0.2682    0.0000    0.0003   -0.0001   -0.0002    0.0002
           5    0.0178   -0.1984    0.0003    0.0233    0.1746   -0.0974   -0.1062    0.1354
           6   -0.1984   -0.0178   -0.0000    0.1745   -0.0234   -0.1060    0.0973   -0.1348
           7    0.0000   -0.0003    0.2682   -0.0000   -0.0003   -0.0001   -0.0002    0.0002
           8    0.0177   -0.1984   -0.0003   -0.0233   -0.1746   -0.0973   -0.1061    0.1356
           9   -0.1984   -0.0177    0.0000   -0.1745    0.0233   -0.1063    0.0974   -0.1346
          10   -0.0200    0.2193    0.3577    0.0246    0.1867   -0.1535   -0.1680    0.1396
          11   -0.0050    0.0586    0.1213    0.0080    0.0686   -0.0603   -0.0674   -0.3685
          12    0.1583    0.0143   -0.0003   -0.5174    0.0681    0.3703   -0.3379   -0.0241
          13    0.0200   -0.2192   -0.3574    0.0246    0.1865    0.1533    0.1678   -0.1408
          14   -0.0051    0.0593    0.1225   -0.0081   -0.0691   -0.0607   -0.0679   -0.3681
          15    0.1583    0.0144   -0.0003    0.5177   -0.0681    0.3702   -0.3379   -0.0240
          16    0.1999   -0.0921    0.3574    0.1488   -0.1151   -0.0680    0.2169   -0.1908
          17    0.0311    0.1379   -0.0613   -0.3034   -0.3377    0.4280    0.0879   -0.2408
          18    0.0800    0.0506    0.1057   -0.1109   -0.2429    0.2144    0.1505    0.4381
          19   -0.1800   -0.1267    0.3575   -0.1735   -0.0726    0.2221   -0.0482    0.0503
          20   -0.0552    0.1299   -0.0618    0.2052   -0.4038    0.0484    0.4334    0.0951
          21    0.0880   -0.0358   -0.1055   -0.0449    0.2649   -0.1307   -0.2287    0.0971
          22   -0.1998    0.0925   -0.3576    0.1497   -0.1141    0.0694   -0.2166    0.1900
          23    0.0317    0.1376   -0.0601    0.3026    0.3381    0.4279    0.0885   -0.2413
          24    0.0800    0.0506    0.1057    0.1107    0.2429    0.2143    0.1505    0.4381
          25    0.1798    0.1271   -0.3576   -0.1742   -0.0714   -0.2220    0.0495   -0.0500
          26   -0.0558    0.1295   -0.0606   -0.2044    0.4040    0.0491    0.4333    0.0953
          27    0.0880   -0.0358   -0.1054    0.0447   -0.2649   -0.1308   -0.2287    0.0970


   Root No.      17        18        19        20        21

                 4 E'      3 E"      3 E"      3 A1'     3 A2" 

                2703.5    2744.5    2744.5    2797.4    2823.1
  
           1   -0.0000   -0.0000   -0.0000   -0.0000    0.0467
           2   -0.0178   -0.0000   -0.0000   -0.0000   -0.0001
           3   -0.0179    0.0000    0.0000   -0.0000    0.0000
           4   -0.0002   -0.0000   -0.0003    0.0868    0.0793
           5   -0.1347   -0.0141   -0.1938    0.0000   -0.0000
           6   -0.1355   -0.1939    0.0141    0.0000    0.0000
           7   -0.0002    0.0000    0.0003   -0.0868    0.0793
           8   -0.1348    0.0141    0.1937   -0.0000   -0.0002
           9   -0.1355    0.1939   -0.0141   -0.0000   -0.0000
          10   -0.1383   -0.0127   -0.1794   -0.1105   -0.1057
          11    0.3648    0.0370    0.5224    0.3899    0.3912
          12   -0.0255   -0.0396    0.0019   -0.0009   -0.0003
          13    0.1395   -0.0128   -0.1810    0.1118   -0.1069
          14    0.3644   -0.0370   -0.5219    0.3893   -0.3909
          15   -0.0255    0.0391   -0.0017   -0.0009    0.0011
          16   -0.0522   -0.1500    0.1014   -0.1115   -0.1066
          17   -0.0972   -0.2347    0.1177   -0.1938   -0.1950
          18    0.1016    0.3650   -0.2705    0.3378    0.3388
          19    0.1913    0.1628    0.0792   -0.1115   -0.1066
          20    0.2435    0.2505    0.0842   -0.1953   -0.1956
          21    0.4381    0.3987    0.2158   -0.3369   -0.3384
          22    0.0519   -0.1493    0.1010    0.1109   -0.1060
          23   -0.0974    0.2357   -0.1181   -0.1943    0.1946
          24    0.1016   -0.3648    0.2703    0.3379   -0.3392
          25   -0.1905    0.1621    0.0789    0.1108   -0.1060
          26    0.2440   -0.2515   -0.0843   -0.1958    0.1966
          27    0.4381   -0.3984   -0.2158   -0.3370    0.3380


          DESCRIPTION OF VIBRATIONS


 VIBRATION    1    1A2"     ATOM PAIR        ENERGY CONTRIBUTION    RADIAL
 FREQ.     -1044.32        H  1 --  N  3          -51.0% (-96.9%)   100.0%
 T-DIPOLE    5.8866        H  1 --  N  2          -51.0% (-96.9%)   100.0%
 TRAVEL      0.2459        N  3 --  H  5           -0.3% ( -7.7%)    37.6%
 RED. MASS   0.9482        N  2 --  H  4           -0.3% ( -7.7%)    37.2%
 EFF. MASS   1.0678

 VIBRATION    2    1A1"     ATOM PAIR        ENERGY CONTRIBUTION    RADIAL
 FREQ.       160.46        N  3 --  H  5          +16.7% (306.4%)     0.0%
 T-DIPOLE    0.0000        N  3 --  H  8          +16.7% (306.4%)     0.0%
 TRAVEL      0.6457        N  3 --  H  9          +16.7% (306.4%)     0.0%
 RED. MASS   0.1680        N  2 --  H  4          +16.7% (306.4%)     0.0%
 EFF. MASS   1.0079        N  2 --  H  6          +16.7% (306.4%)     0.0%
                           N  2 --  H  7          +16.7% (306.4%)     0.0%

 VIBRATION    4    1E'      ATOM PAIR        ENERGY CONTRIBUTION    RADIAL
 FREQ.       533.59        H  1 --  N  2          +22.5% (114.6%)     0.0%
 T-DIPOLE    0.7073        H  1 --  N  3          +22.5% (114.6%)     0.0%
 TRAVEL      0.3237        N  3 --  H  5          +12.5% ( 85.5%)     1.0%
 RED. MASS   0.1857        N  2 --  H  4          +12.5% ( 85.5%)     1.0%
 EFF. MASS   1.2062        N  2 --  H  6          +12.0% ( 83.8%)     0.9%
                           N  3 --  H  8          +12.0% ( 83.8%)     1.0%

 VIBRATION    5    1A1'     ATOM PAIR        ENERGY CONTRIBUTION    RADIAL
 FREQ.       565.77        H  1 --  N  3          +15.7% ( 84.8%)   100.0%
 T-DIPOLE    0.0000        H  1 --  N  2          +15.7% ( 84.8%)   100.0%
 TRAVEL      0.0784        N  3 --  H  5          +11.4% ( 72.4%)    11.9%
 RED. MASS   4.9588        N  2 --  H  7          +11.4% ( 72.4%)    11.9%
 EFF. MASS  19.3712        N  2 --  H  6          +11.4% ( 72.4%)    11.8%
                           N  3 --  H  8          +11.4% ( 72.4%)    11.8%
                           N  3 --  H  9          +11.4% ( 72.4%)    11.8%
                           N  2 --  H  4          +11.4% ( 72.4%)    11.6%

 VIBRATION    7    1E"      ATOM PAIR        ENERGY CONTRIBUTION    RADIAL
 FREQ.       736.70        N  3 --  H  5          +19.8% ( 72.5%)     8.2%
 T-DIPOLE    0.0000        N  2 --  H  4          +19.8% ( 72.5%)     8.4%
 TRAVEL      0.1651        N  3 --  H  8          +17.9% ( 68.9%)     7.6%
 RED. MASS   0.3250        N  2 --  H  6          +17.9% ( 68.9%)     7.5%
 EFF. MASS   3.3590

 VIBRATION    8    2A2"     ATOM PAIR        ENERGY CONTRIBUTION    RADIAL
 FREQ.      1386.31        N  2 --  H  7          +15.9% ( 38.7%)     3.2%
 T-DIPOLE    2.3306        N  3 --  H  9          +15.9% ( 38.7%)     3.1%
 TRAVEL      0.1492        N  3 --  H  8          +15.9% ( 38.7%)     3.1%
 RED. MASS   0.3115        N  2 --  H  6          +15.9% ( 38.7%)     3.1%
 EFF. MASS   2.1841        N  2 --  H  4          +15.9% ( 38.7%)     3.0%
                           N  3 --  H  5          +15.9% ( 38.7%)     3.1%

 VIBRATION   10    2E'      ATOM PAIR        ENERGY CONTRIBUTION    RADIAL
 FREQ.      1402.10        H  1 --  N  2          +40.7% ( 76.0%)     0.0%
 T-DIPOLE    1.5319        H  1 --  N  3          +40.7% ( 76.0%)     0.0%
 TRAVEL      0.1688        N  2 --  H  6           +3.3% ( 21.6%)     3.8%
 RED. MASS   0.5316        N  3 --  H  8           +3.3% ( 21.5%)     3.8%
 EFF. MASS   1.6875

 VIBRATION   11    2A1'     ATOM PAIR        ENERGY CONTRIBUTION    RADIAL
 FREQ.      1468.07        N  3 --  H  5          +15.9% ( 36.0%)     2.6%
 T-DIPOLE    0.0000        N  2 --  H  7          +15.9% ( 36.0%)     2.6%
 TRAVEL      0.1462        N  2 --  H  6          +15.9% ( 36.0%)     2.6%
 RED. MASS   0.2680        N  3 --  H  8          +15.9% ( 36.0%)     2.6%
 EFF. MASS   2.1477        N  3 --  H  9          +15.9% ( 36.0%)     2.6%
                           N  2 --  H  4          +15.9% ( 36.0%)     2.5%

 VIBRATION   13    2E"      ATOM PAIR        ENERGY CONTRIBUTION    RADIAL
 FREQ.      1601.36        N  3 --  H  9          +24.7% ( 41.1%)     1.0%
 T-DIPOLE    0.0000        N  2 --  H  7          +24.7% ( 41.1%)     0.9%
 TRAVEL      0.1679        N  3 --  H  8          +19.3% ( 36.3%)     3.1%
 RED. MASS   0.2155        N  2 --  H  6          +19.3% ( 36.3%)     3.1%
 EFF. MASS   1.4937

 VIBRATION   15    3E'      ATOM PAIR        ENERGY CONTRIBUTION    RADIAL
 FREQ.      1614.91        N  2 --  H  7          +25.5% ( 40.3%)     0.2%
 T-DIPOLE    0.5393        N  3 --  H  9          +25.5% ( 40.3%)     0.2%
 TRAVEL      0.1771        N  2 --  H  4          +14.8% ( 30.7%)     4.1%
 RED. MASS   0.1868        N  3 --  H  5          +14.8% ( 30.7%)     4.2%
 EFF. MASS   1.3311

 VIBRATION   17    4E'      ATOM PAIR        ENERGY CONTRIBUTION    RADIAL
 FREQ.      2703.50        N  2 --  H  7          +30.7% ( 57.2%)    99.0%
 T-DIPOLE    1.8502        N  3 --  H  9          +30.7% ( 57.2%)    99.0%
 TRAVEL      0.1303        N  3 --  H  5          +16.4% ( 41.8%)    94.9%
 RED. MASS   0.2524        N  2 --  H  4          +16.4% ( 41.8%)    95.1%
 EFF. MASS   1.4692

 VIBRATION   19    3E"      ATOM PAIR        ENERGY CONTRIBUTION    RADIAL
 FREQ.      2744.55        N  2 --  H  4          +32.6% ( 58.1%)    98.9%
 T-DIPOLE    0.0001        N  3 --  H  5          +32.6% ( 58.1%)    98.8%
 TRAVEL      0.1295        N  2 --  H  6          +10.5% ( 33.0%)    90.1%
 RED. MASS   0.2538        N  3 --  H  8          +10.5% ( 33.0%)    90.1%
 EFF. MASS   1.4650

 VIBRATION   20    3A1'     ATOM PAIR        ENERGY CONTRIBUTION    RADIAL
 FREQ.      2797.40        N  2 --  H  4          +16.7% ( 39.4%)    98.6%
 T-DIPOLE    0.0000        N  3 --  H  9          +16.7% ( 39.4%)    98.7%
 TRAVEL      0.1480        N  3 --  H  8          +16.7% ( 39.4%)    98.7%
 RED. MASS   0.1645        N  2 --  H  6          +16.6% ( 39.4%)    98.7%
 EFF. MASS   1.1008        N  2 --  H  7          +16.6% ( 39.4%)    98.7%
                           N  3 --  H  5          +16.6% ( 39.4%)    98.7%

 VIBRATION   21    3A2"     ATOM PAIR        ENERGY CONTRIBUTION    RADIAL
 FREQ.      2823.11        N  2 --  H  4          +16.7% ( 38.9%)    99.2%
 T-DIPOLE    0.5410        N  3 --  H  5          +16.7% ( 38.9%)    99.2%
 TRAVEL      0.1486        N  2 --  H  6          +16.7% ( 38.9%)    99.2%
 RED. MASS   0.1642        N  3 --  H  8          +16.7% ( 38.9%)    99.2%
 EFF. MASS   1.0819        N  2 --  H  7          +16.7% ( 38.9%)    99.2%
                           N  3 --  H  9          +16.7% ( 38.9%)    99.2%

           FORCE CONSTANT IN INTERNAL COORDINATES (Millidynes/A)

    ATOM   CHEMICAL  BOND LENGTH      BOND ANGLE     TWIST ANGLE
   NUMBER   SYMBOL  FORCE CONSTANT  FORCE CONSTANT  FORCE CONSTANT

      1       H        0.000000        0.000000        0.000000
      2       N        1.458210        0.000000        0.000000
      3       N        1.458193        5.227529        0.000000
      4       H        2.886164        2.103253        0.777671
      5       H        2.852011        2.136462        0.774815
      6       H        2.857750        2.131370        0.773951
      7       H        2.854662        2.134882        0.773582
      8       H        2.871404        2.119328        0.775238
      9       H        2.871105        2.118136        0.774600
 *******************************************************************************
 ** Site#: 29054        For non-commercial use only    Version 18.021W 64BITS **
 *******************************************************************************
 ** Cite this program as: MOPAC2016, Version: 18.021W, James J. P. Stewart,   **
 ** Stewart Computational Chemistry, web: HTTP://OpenMOPAC.net. Days left: 364**
 *******************************************************************************
 **                                                                           **
 **                                MOPAC2016                                  **
 **                                                                           **
 *******************************************************************************

                              PM7 CALCULATION RESULTS


 *******************************************************************************
 *  CALCULATION DONE:                                Mon Jan 22 09:00:18 2018  *
 *
 *
 *
 *                 CHARGE ON SYSTEM =    +1
 *
 *
 *
 *  EPS= 78.40 - USE ANDREAS KLAMT'S COSMO IMPLICIT SOLVATION MODEL
 *  IRC=N      - INTRINSIC REACTION COORDINATE  1 DEFINED
 *  OLDGEO     - PREVIOUS GEOMETRY TO BE USED
 *  RESTART    - CALCULATION RESTARTED
 *  T=         - A TIME OF 172800.0 SECONDS REQUESTED
 *  DUMP=N     - RESTART FILE WRITTEN EVERY  7200.000 SECONDS
 *  HTML       - WRITE HTML SCRIPT TO GENERATE ANIMATION USING JSMOL
 *             - TO DISPLAY IN PDB FORMAT, ADD "PDBOUT"
 *  X-PRIOR    - GEOMETRY CHANGES TAKE PRIORITY IN DRC
 *******************************************************************************
oldgeo IRC=1* restart HTML eps=78.4 x-priority=0.05
 [NH4](+) + NH3 <=> NH3 + [NH4](+)

  ATOM    CHEMICAL      BOND LENGTH      BOND ANGLE     TWIST ANGLE 
 NUMBER    SYMBOL       (ANGSTROMS)      (DEGREES)       (DEGREES) 
   (I)                     NA:I           NB:NA:I       NC:NB:NA:I       NA    NB    NC 
     1       H          0.00000000       0.0000000       0.0000000        0     0     0
     2       N          1.31011296  *    0.0000000  *    0.0000000  *     1     0     0
     3       N          1.31011296     179.8353393  *  180.0000000  *     1     2     0
     4       H          1.01146373  *  110.0417924  *  179.9672032  *     2     1     3
     5       H          1.01105393  *  110.2655542  * -179.8235575  *     3     1     2
     6       H          1.01123709  *  110.3797228  *  -60.1873683  *     2     1     3
     7       H          1.01132252  *  110.4301147  *   60.0186366  *     2     1     3
     8       H          1.01169983  *  110.3236513  *   60.1883334  *     3     1     2
     9       H          1.01133705  *  110.3298290  *  -59.8057252  *     3     1     2
 


          CARTESIAN COORDINATES 

    NO.       ATOM           X           Y           Z

     1         H          0.0000      0.0000      0.0000
     2         N          1.3101      0.0000      0.0000
     3         N         -1.3101     -0.0038      0.0000
     4         H          1.6567      0.9502     -0.0005
     5         H         -1.6630      0.9437     -0.0029
     6         H          1.6623     -0.4713      0.8225
     7         H          1.6631     -0.4736     -0.8209
     8         H         -1.6601     -0.4764      0.8232
     9         H         -1.6601     -0.4817     -0.8197

 General Reference for PM7:
 "Optimization of Parameters for Semiempirical Methods VI: More Modifications to the 
 NDDO Approximations and Re-optimization of Parameters", J. J. P. Stewart, J. Mol. Mod., 1:32, 19 (2013)
 http://www.springerlink.com/openurl.asp?genre=article&id=doi:10.1007/s00894-012-1667-x

           Empirical Formula: H7 N2  =     9 atoms



      MOLECULAR POINT GROUP   :   D3h 


      RHF CALCULATION, NO. OF DOUBLY OCCUPIED LEVELS = 8


          MOLECULAR WEIGHT =   35.07


          TIME USED UP TO RESTART =                  0.16

    FOR POINT-GROUP D3h  THERE ARE  12 UNIQUE SYMMETRY FUNCTIONS.

           INITIAL VELOCITY IN DRC (Angstroms/Femtosecond)
         0.76526        -0.00117        -0.00000
        -0.02172         0.00000         0.00000
        -0.02172         0.00006        -0.00000
        -0.02697        -0.01706         0.00002
        -0.02692         0.01714        -0.00005
        -0.02691         0.00853        -0.01479
        -0.02691         0.00855         0.01478
        -0.02693        -0.00841         0.01481
        -0.02693        -0.00850        -0.01476

 GEOMETRY PRIORITY, STEP = 0.0500 ANGSTROMS



     POINT   POTENTIAL  +  ENERGY LOST   =   TOTAL      ERROR    REF%   MOVEMENT
       1      61.65340      0.00000         61.65340   0.00000     1   %  0.0000
       7      61.59539      0.00000         61.59539  -0.03054     2   %  0.0499
      11      61.37308      0.24431         61.61739  -0.00854     3   %  0.0998
      14      61.04906      0.56519         61.61425  -0.01168     4   %  0.1498
      17      60.71258      0.90129         61.61387  -0.01205     5   %  0.1981
      20      60.43122      1.11704         61.54827  -0.07766     6   %  0.2315
      23      60.13649      1.39831         61.53480  -0.09113     7   %  0.2880
      26      60.00056      1.52825         61.52881  -0.09712     8   %  0.3218
      28      59.87678      1.66638         61.54316  -0.08277     9   %  0.3611
      30      59.65608      1.86724         61.52332  -0.10260    10   %  0.4233
      33      59.64295      2.01201         61.65496   0.02903    11   %  0.4717
      34      59.50832      2.15669         61.66501   0.03908    12   %  0.5177
      37      59.39966      2.31295         61.71262   0.08669    13   %  0.5556
      39      59.30625      2.47301         61.77925   0.15333    14   %  0.5921
      41      59.25557      2.58190         61.83748   0.21155    15   %  0.6142
      44      59.14498      2.77763         61.92261   0.29668    16   %  0.6577
      46      59.07920      2.90768         61.98687   0.36095    17   %  0.6839
      48      59.01968      3.03421         62.05389   0.42796    18   %  0.7089
      50      58.96409      3.15915         62.12325   0.49732    19   %  0.7329
      53      58.89227      3.34080         62.23307   0.60714    20   %  0.7663
      55      58.84320      3.46271         62.30592   0.67999    21   %  0.7886
      57      58.74728      3.58524         62.33252   0.70659    22   %  0.8103
      60      58.68691      3.77427         62.46117   0.83525    23   %  0.8425
      62      58.59542      3.89618         62.49160   0.86567    24   %  0.8625
      64      58.55310      4.05768         62.61078   0.98485    25   %  0.8813
      67      58.55536      4.23605         62.79141   1.16549    26   %  0.9115
      70      58.45782      4.41374         62.87156   1.24563    27   %  0.9371
      72      58.41619      4.56343         62.97962   1.35370    28   %  0.9606
      75      58.37720      4.70014         63.07734   1.45141    29   %  0.9803
      77      58.35081      4.81861         63.16943   1.54350    30   %  0.9968
      80      58.32160      5.00702         63.32862   1.70269    31   %  1.0214
      83      58.27038      5.17911         63.44949   1.82356    32   %  1.0451
      85      58.24767      5.29816         63.54582   1.91990    33   %  1.0605
      88      58.23500      5.49023         63.72522   2.09930    34   %  1.0839
      91      58.18461      5.66664         63.85125   2.22533    35   %  1.1057
      94      58.18003      5.86524         64.04528   2.41935    36   %  1.1278
      96      58.16159      5.99243         64.15402   2.52809    37   %  1.1417
      99      58.11504      6.17586         64.29090   2.66497    38   %  1.1616
     102      58.11752      6.39143         64.50895   2.88302    39   %  1.1828
     105      58.06270      6.58088         64.64358   3.01766    40   %  1.2018
     107      58.04855      6.71471         64.76326   3.13733    41   %  1.2147
     110      58.05848      6.93661         64.99508   3.36916    42   %  1.2345
     113      58.00815      7.13253         65.14067   3.51475    43   %  1.2521
     116      58.01745      7.35571         65.37315   3.74723    44   %  1.2707
     119      57.96663      7.54856         65.51519   3.88926    45   %  1.2871
     122      57.98975      7.78563         65.77539   4.14946    46   %  1.3048
     125      57.93950      7.99252         65.93202   4.30610    47   %  1.3205
     127      57.92945      8.14544         66.07489   4.44896    48   %  1.3315
     130      57.98197      8.39630         66.37827   4.75234    49   %  1.3483
     133      57.91751      8.61173         66.52924   4.90332    50   %  1.3632
     136      57.91006      8.92011         66.83017   5.20424    51   %  1.3825
     139      57.94372      9.16864         67.11235   5.48643    52   %  1.3970
     142      57.93867      9.35687         67.29554   5.66961    53   %  1.4079
     145      57.93420      9.65663         67.59084   5.96491    54   %  1.4243
     148      57.93610      9.86977         67.80588   6.17995    55   %  1.4350
     151      57.91736     10.18944         68.10680   6.48088    56   %  1.4508
     154      57.92098     10.42820         68.34917   6.72325    57   %  1.4620
     157      57.86554     10.68181         68.54736   6.92143    58   %  1.4743
     160      57.91709     11.01387         68.93097   7.30504    59   %  1.4879
     163      57.85356     11.30049         69.15406   7.52813    60   %  1.4997
     166      57.91236     11.70457         69.61694   7.99101    61   %  1.5134
     169      57.84059     12.02550         69.86609   8.24016    62   %  1.5249
     172      57.90036     12.48549         70.38585   8.75992    63   %  1.5385
     175      57.84304     12.88074         70.72378   9.09785    64   %  1.5505
     177      57.89431     13.37597         71.27028   9.64435    65   %  1.5630
     181      57.81844     13.78578         71.60422   9.97829    66   %  1.5742
     183      57.78083     14.14667         71.92750  10.30158    67   %  1.5823
     186      57.84218     14.72354         72.56573  10.93980    68   %  1.5944
     189      57.76140     15.11642         72.87782  11.25189    69   %  1.6040
     191      57.75664     15.44262         73.19926  11.57333    70   %  1.6100
     194      57.88413     16.01365         73.89779  12.27186    71   %  1.6215
     197      57.75577     16.41277         74.16854  12.54262    72   %  1.6297
     200      57.83489     16.93484         74.76973  13.14381    73   %  1.6390
     203      57.80726     17.47134         75.27860  13.65268    74   %  1.6484
     206      57.83062     18.10325         75.93388  14.30795    75   %  1.6571
     209      57.76147     18.20911         75.97058  14.34465    76   %  1.6638
     212      57.74309     18.46275         76.20584  14.57991    77   %  1.6692
     215      57.74551     18.65283         76.39834  14.77241    78   %  1.6728
     218      57.74048     18.94076         76.68124  15.05532    79   %  1.6786
     222      57.69788     19.16919         76.86707  15.24114    80   %  1.6852
     225      57.74483     19.43606         77.18089  15.55496    81   %  1.6886
     228      57.70072     19.66763         77.36835  15.74242    82   %  1.6949
     231      57.75634     19.97371         77.73006  16.10413    83   %  1.6985
     234      57.70153     20.23569         77.93722  16.31129    84   %  1.7048
     237      57.76214     20.58191         78.34405  16.71812    85   %  1.7087
     240      57.70770     20.86771         78.57541  16.94948    86   %  1.7149
     244      57.70945     21.35323         79.06268  17.43675    87   %  1.7215
     247      57.77026     21.79040         79.56065  17.93472    88   %  1.7258
     250      57.73944     22.11727         79.85670  18.23078    89   %  1.7317
     253      57.74877     22.60800         80.35677  18.73084    90   %  1.7376
     256      57.81289     23.08119         80.89408  19.26816    91   %  1.7409


           POTENTIAL ENERGY HAS STOPPED DROPPING

           INITIAL VELOCITY IN DRC (Angstroms/Femtosecond)
        -0.76526         0.00117         0.00000
         0.02172        -0.00000        -0.00000
         0.02172        -0.00006         0.00000
         0.02697         0.01706        -0.00002
         0.02692        -0.01714         0.00005
         0.02691        -0.00853         0.01479
         0.02691        -0.00855        -0.01478
         0.02693         0.00841        -0.01481
         0.02693         0.00850         0.01476

 GEOMETRY PRIORITY, STEP = 0.0500 ANGSTROMS



     POINT   POTENTIAL  +  ENERGY LOST   =   TOTAL      ERROR    REF%   MOVEMENT
       1      61.65340      0.00000         61.65340   0.00000     1   %  0.0000
       7      61.58709      0.00000         61.58709  -0.02572     2   %  0.0499
      10      61.38033      0.22460         61.60492  -0.00789     3   %  0.0993
      13      61.17965      0.42512         61.60478  -0.00803     4   %  0.1339
      17      60.76233      0.85182         61.61416   0.00135     5   %  0.1978
      20      60.47311      1.13547         61.60859  -0.00422     6   %  0.2435
      23      60.29741      1.30190         61.59931  -0.01350     7   %  0.2784
      26      60.07798      1.51043         61.58841  -0.02440     8   %  0.3318
      28      59.95364      1.62884         61.58249  -0.03032     9   %  0.3657
      30      59.79493      1.77074         61.56566  -0.04715    10   %  0.4088
      32      59.69002      1.95726         61.64728   0.03447    11   %  0.4713
      34      59.63384      2.04275         61.67658   0.06377    12   %  0.4983
      36      59.51166      2.20333         61.71499   0.10218    13   %  0.5451
      38      59.39089      2.40587         61.79676   0.18395    14   %  0.5885
      41      59.31018      2.56740         61.87758   0.26477    15   %  0.6201
      43      59.23393      2.72594         61.95987   0.34706    16   %  0.6505
      45      59.16237      2.88363         62.04599   0.43318    17   %  0.6803
      48      59.09198      3.04158         62.13357   0.52076    18   %  0.7099
      50      59.03883      3.17660         62.21544   0.60263    19   %  0.7346
      52      58.98675      3.30986         62.29661   0.68380    20   %  0.7589
      55      58.90432      3.49494         62.39925   0.78645    21   %  0.7925
      57      58.85775      3.62361         62.48136   0.86855    22   %  0.8146
      60      58.79300      3.82835         62.62135   1.00854    23   %  0.8477
      62      58.75586      3.95495         62.71081   1.09800    24   %  0.8681
      65      58.68808      4.13359         62.82168   1.20887    25   %  0.8968
      67      58.65239      4.26010         62.91249   1.29969    26   %  0.9160
      70      58.61007      4.45852         63.06859   1.45578    27   %  0.9448
      73      58.55663      4.63718         63.19380   1.58099    28   %  0.9707
      75      58.52734      4.76240         63.28974   1.67693    29   %  0.9882
      78      58.49238      4.96127         63.45366   1.84085    30   %  1.0148
      81      58.44879      5.14053         63.58932   1.97651    31   %  1.0385
      83      58.42420      5.26941         63.69361   2.08080    32   %  1.0546
      86      58.40899      5.47020         63.87919   2.26638    33   %  1.0790
      89      58.35170      5.64924         64.00094   2.38813    34   %  1.1008
      91      58.33024      5.78112         64.11136   2.49855    35   %  1.1157
      94      58.32008      5.99391         64.31400   2.70119    36   %  1.1384
      97      58.27127      6.18184         64.45312   2.84031    37   %  1.1584
     100      58.26677      6.39473         64.66151   3.04870    38   %  1.1799
     103      58.22535      6.59030         64.81565   3.20284    39   %  1.1995
     105      58.21566      6.71700         64.93266   3.31986    40   %  1.2117
     108      58.22196      6.94473         65.16669   3.55388    41   %  1.2317
     111      58.17104      7.14720         65.31823   3.70542    42   %  1.2492
     114      58.25843      7.38097         65.63939   4.02659    43   %  1.2684
     117      58.20634      7.58673         65.79306   4.18025    44   %  1.2850
     119      58.19252      7.73707         65.92959   4.31678    45   %  1.2961
     122      58.21685      7.99434         66.21119   4.59838    46   %  1.3138
     125      58.13794      8.22193         66.35988   4.74707    47   %  1.3293
     128      58.19227      8.51495         66.70722   5.09441    48   %  1.3473
     131      58.16354      8.83172         66.99526   5.38245    49   %  1.3663
     134      58.17057      9.07750         67.24807   5.63526    50   %  1.3804
     137      58.10714      9.33190         67.43904   5.82623    51   %  1.3948
     140      58.12363      9.67946         67.80309   6.19028    52   %  1.4123
     143      58.11210      9.98836         68.10046   6.48765    53   %  1.4271
     146      58.13697     10.30104         68.43801   6.82520    54   %  1.4405
     149      58.08828     10.59309         68.68138   7.06857    55   %  1.4532
     152      58.12399     10.99457         69.11856   7.50575    56   %  1.4692
     155      58.05979     11.30131         69.36110   7.74829    57   %  1.4814
     157      58.05412     11.54974         69.60386   7.99105    58   %  1.4904
     160      58.10992     11.99448         70.10440   8.49159    59   %  1.5047
     163      58.03784     12.33908         70.37692   8.76411    60   %  1.5166
     166      58.09377     12.80675         70.90052   9.28771    61   %  1.5303
     169      58.02201     13.15327         71.17528   9.56247    62   %  1.5414
     173      58.01396     13.72956         71.74352  10.13071    63   %  1.5569
     176      58.06456     14.24706         72.31162  10.69881    64   %  1.5693
     179      57.94972     14.62325         72.57297  10.96016    65   %  1.5795
     181      57.88564     14.86774         72.75338  11.14057    66   %  1.5898
     184      57.92646     15.21364         73.14010  11.52729    67   %  1.5968
     187      57.87317     15.50129         73.37446  11.76165    68   %  1.6054
     189      57.86512     15.71127         73.57639  11.96358    69   %  1.6124
     192      57.86551     16.08951         73.95502  12.34221    70   %  1.6216
     195      57.85311     16.34490         74.19801  12.58520    71   %  1.6278
     197      57.84294     16.53762         74.38055  12.76774    72   %  1.6342
     200      57.87595     16.84425         74.72020  13.10739    73   %  1.6413
     202      57.99765     17.02219         75.01984  13.40703    74   %  1.6440
     205      57.83530     17.27136         75.10666  13.49385    75   %  1.6530
     207      57.82789     17.45613         75.28402  13.67121    76   %  1.6569
     210      57.98108     17.76117         75.74225  14.12944    77   %  1.6618
     212      57.85772     17.95562         75.81334  14.20053    78   %  1.6668
     215      57.82292     18.21335         76.03627  14.42346    79   %  1.6743
     218      57.84658     18.54539         76.39197  14.77916    80   %  1.6795
     221      57.78834     18.82083         76.60917  14.99636    81   %  1.6872
     224      57.85254     19.20370         77.05624  15.44343    82   %  1.6928
     227      57.79110     19.52033         77.31144  15.69863    83   %  1.6994
     230      57.85664     19.95902         77.81566  16.20285    84   %  1.7045
     233      57.86566     20.52469         78.39035  16.77754    85   %  1.7118
     237      57.79407     20.94086         78.73493  17.12212    86   %  1.7188
     240      57.87682     21.58950         79.46632  17.85351    87   %  1.7240
     243      57.79709     22.07016         79.86725  18.25444    88   %  1.7310
     246      57.76081     22.50754         80.26835  18.65554    89   %  1.7384
     249      57.80228     22.69052         80.49280  18.87999    90   %  1.7395
     253      57.80000     22.98898         80.78899  19.17618    91   %  1.7436
     256      57.75700     23.19783         80.95483  19.34202    92   %  1.7484
     259      57.80587     23.46465         81.27053  19.65772    93   %  1.7496
     262      57.75753     23.69742         81.45494  19.84213    94   %  1.7547
     265      57.76049     24.03080         81.79128  20.17847    95   %  1.7596
     268      57.75552     24.21839         81.97392  20.36111    96   %  1.7604
     271      57.83666     24.52475         82.36142  20.74861    97   %  1.7619
     274      57.75965     24.78457         82.54422  20.93141    98   %  1.7668
     277      57.82316     25.13591         82.95907  21.34626    99   %  1.7696
     280      57.76477     25.41167         83.17644  21.56363   100   %  1.7741
     283      57.84302     25.76890         83.61192  21.99911   101   %  1.7758
     286      57.76462     26.05646         83.82108  22.20827   102   %  1.7809
     289      57.84686     26.45458         84.30144  22.68863   103   %  1.7827
     292      57.78258     26.76502         84.54760  22.93479   104   %  1.7877
     295      57.84689     27.16970         85.01660  23.40379   105   %  1.7891
     298      57.76923     27.49791         85.26714  23.65433   106   %  1.7931
     301      57.85276     27.95933         85.81209  24.19928   107   %  1.7951
     304      57.78684     28.31899         86.10584  24.49303   108   %  1.8000


           POTENTIAL ENERGY HAS STOPPED DROPPING


 **********************
 *                    *
 * JOB ENDED NORMALLY *
 *                    *
 **********************



 TOTAL JOB TIME:             7.18 SECONDS

 == MOPAC DONE ==
