 *******************************************************************************
 ** Site#: 37037        For non-commercial use only           Version 21.151W **
 *******************************************************************************
 ** Cite this program as: MOPAC2016, Version: 21.151W, James J. P. Stewart,   **
 ** Stewart Computational Chemistry, web: HTTP://OpenMOPAC.net. Days left: 365**
 *******************************************************************************
 **                                                                           **
 **                                MOPAC2016                                  **
 **                                                                           **
 *******************************************************************************

                              PM7 CALCULATION RESULTS

 *******************************************************************************
 *  CALCULATION DONE:                                Mon May 31 15:12:34 2021  *
 *
 *
 *
 *                 CHARGE ON SYSTEM = +1
 *
 *
 *
 *  EPS=78.4   - USE ANDREAS KLAMT'S COSMO IMPLICIT SOLVATION MODEL
 *  T=         - A TIME OF 172800.0 SECONDS REQUESTED
 *  DUMP=N     - RESTART FILE WRITTEN EVERY 7200.0 SECONDS REQUESTED
 *  HTML       - WRITE HTML SCRIPT TO READ PDB FILE USING JSMOL
 *******************************************************************************
      eps=78.4 charge=1 html
      1 Ethyl acetate plus H3O(+) plus H2O

  ATOM               CHEMICAL                 BOND LENGTH      BOND ANGLE     TWIST ANGLE 
 NUMBER               SYMBOL                  (ANGSTROMS)      (DEGREES)       (DEGREES) 
   (I)                                           NA:I           NB:NA:I       NC:NB:NA:I       NA    NB    NC 
     1       C(HETATM    1  C1  HET A   3)    0.00000000  *    0.0000000  *    0.0000000  *
     2       C(HETATM    2  C2  HET A   3)    1.47180200  *    0.0000000  *    0.0000000  *     1     0     0
     3       O(HETATM    3  O1  HET A   3)    1.24686800  *  125.7554820  *    0.0000000  *     2     1     0
     4       O(HETATM    4  O2  HET A   3)    1.32174300  *  114.0717940  *  179.9996200  *     2     1     3
     5       C(HETATM    5  C3  HET A   3)    1.45464800  *  118.4084300  *  179.3476790  *     4     2     1
     6       C(HETATM    6  C4  HET A   3)    1.51348000  *  102.9803320  * -177.9016100  *     5     4     2
     7       H(HETATM    7 1H1  HET A   3)    1.11009900  *  111.5011210  *   65.0160000  *     1     2     3
     8       H(HETATM    8 2H1  HET A   3)    1.10646600  *  113.5797830  *  120.2787660  *     1     2     7
     9       H(HETATM    9 3H1  HET A   3)    1.10899300  *  111.8695630  *  120.9515810  *     1     2     8
    10       H(HETATM   10 1H3  HET A   3)    1.10452400  *  108.1947350  *  120.5938930  *     5     4     6
    11       H(HETATM   11 2H3  HET A   3)    1.10549500  *  107.9793830  *  118.9325200  *     5     4    10
    12       H(HETATM   12 1H4  HET A   3)    1.09933500  *  111.9567870  *  -61.0560720  *     6     5     4
    13       H(HETATM   13 2H4  HET A   3)    1.09946100  *  111.8631950  *  120.4000030  *     6     5    12
    14       H(HETATM   14 3H4  HET A   3)    1.10111200  *  110.6223860  *  119.6832340  *     6     5    13
    15       H(HETATM   15 1H   HOH A   5)    3.01528500  *  117.4559870  *  -11.4365970  *     3     2     1
    16       O(HETATM   16  O   HOH A   4)    2.41390900  *  146.9011390  *  -91.7093640  *    11     5     4
    17       O(HETATM   17  O   HOH A   5)    1.01270000  *   49.4183470  *   66.1076680  *    15     3     2
    18       H(HETATM   18 2H   HOH A   5)    1.14984500  *  102.3912240  *    4.7060900  *    17    15     3
    19       H(HETATM   19 3H   HOH A   5)    1.01084400  *  101.1638290  *  105.5977760  *    17    15    18
    20       H(HETATM   20 1H   HOH A   4)    0.96451600  *   78.5115670  *   46.5107460  *    16    11     5
    21       H(HETATM   21 2H   HOH A   4)    0.96598900  *   95.5512510  * -103.1568280  *    16    11    20
 

 General Reference for PM7:
 "Optimization of Parameters for Semiempirical Methods VI: More Modifications to the 
 NDDO Approximations and Re-optimization of Parameters", J. J. P. Stewart, J. Mol. Mod., 1:32, 19 (2013)
 https://link.springer.com/article/10.1007/s00894-012-1667-x

           Empirical Formula: C4 H13 O4  =    21 atoms



      MOLECULAR POINT GROUP   :   C1  


      RHF CALCULATION, NO. OF DOUBLY OCCUPIED LEVELS = 26


          Geometry optimization using EF

          DIAGONAL MATRIX USED AS START HESSIAN

 CYCLE:     1 TIME:   0.031 TIME LEFT:  2.00D  GRAD.:    16.284 HEAT: -133.9855
 CYCLE:     2 TIME:   0.047 TIME LEFT:  2.00D  GRAD.:    14.104 HEAT: -134.0932
 CYCLE:     3 TIME:   0.047 TIME LEFT:  2.00D  GRAD.:    13.321 HEAT: -134.1122
 CYCLE:     4 TIME:   0.047 TIME LEFT:  2.00D  GRAD.:    13.168 HEAT: -134.1144
 CYCLE:     5 TIME:   0.047 TIME LEFT:  2.00D  GRAD.:    13.117 HEAT: -134.1152
 CYCLE:     6 TIME:   0.031 TIME LEFT:  2.00D  GRAD.:    13.093 HEAT: -134.1155

     TRUST RADIUS NOW LESS THAN  0.00010 OPTIMIZATION TERMINATING
      THE GEOMETRY MAY NOT BE COMPLETELY OPTIMIZED
      (TO CONTINUE, ADD 'LET DDMIN=0.0' TO THE KEYWORD LINE)

 -------------------------------------------------------------------------------
 eps=78.4 charge=1 html
      1 Ethyl acetate plus H3O(+) plus H2O



     GEOMETRY OPTIMISED USING EIGENVECTOR FOLLOWING (EF).     
     SCF FIELD WAS ACHIEVED                                   


                              PM7 CALCULATION
                                                       MOPAC2016 (Version: 21.151W)
                                                       Mon May 31 15:12:34 2021
                                                       No. of days remaining = 365




          FINAL HEAT OF FORMATION =       -134.11553 KCAL/MOL =    -561.13937 KJ/MOL
          VAN DER WAALS AREA      =        186.18 SQUARE ANGSTROMS


          TOTAL ENERGY            =      -1845.16977 EV
          ELECTRONIC ENERGY       =      -2105.29672 EV  POINT GROUP:     C1  
          CORE-CORE REPULSION     =        260.12695 EV

          DIELECTRIC ENERGY       =         -3.27693 EV
          COSMO AREA              =        186.18 SQUARE ANGSTROMS
          COSMO VOLUME            =        171.61 CUBIC ANGSTROMS

          GRADIENT NORM           =         13.09272 = 2.85707 PER ATOM
          IONIZATION POTENTIAL    =         11.821612 EV
          HOMO LUMO ENERGIES (EV) =        -11.822  0.027
          NO. OF FILLED LEVELS    =         26
          MOLECULAR WEIGHT        =        125.1443

          MOLECULAR DIMENSIONS (Angstroms)

            Atom       Atom       Distance
            H    15    H    14     7.76665
            H    21    H     8     6.32030
            O    16    H    10     2.53982


          SCF CALCULATIONS        =         18
 
          WALL-CLOCK TIME         =          0.297 SECONDS
          COMPUTATION TIME        =          1.094 SECONDS



       FINAL  POINT  AND  DERIVATIVES

   PARAMETER     ATOM    TYPE            VALUE        GRADIENT
      1          1  C    CARTESIAN X     0.000360      0.000970  KCAL/ANGSTROM
      2          1  C    CARTESIAN Y    -0.001279      0.001350  KCAL/ANGSTROM
      3          1  C    CARTESIAN Z    -0.000061      0.000378  KCAL/ANGSTROM
      4          2  C    BOND            1.472208     -0.029489  KCAL/ANGSTROM
      5          2  C    ANGLE          -0.046554      0.000000  KCAL/RADIAN  
      6          2  C    DIHEDRAL        0.007263      0.000000  KCAL/RADIAN  
      7          3  O    BOND            1.247086     -0.480796  KCAL/ANGSTROM
      8          3  O    ANGLE         125.676382      0.416704  KCAL/RADIAN  
      9          3  O    DIHEDRAL        0.042858      0.000000  KCAL/RADIAN  
     10          4  O    BOND            1.321635     -0.632390  KCAL/ANGSTROM
     11          4  O    ANGLE         113.980925     -0.522253  KCAL/RADIAN  
     12          4  O    DIHEDRAL      180.032855      0.035371  KCAL/RADIAN  
     13          5  C    BOND            1.454266     -0.558624  KCAL/ANGSTROM
     14          5  C    ANGLE         118.304161     -0.000893  KCAL/RADIAN  
     15          5  C    DIHEDRAL      179.281238      1.703520  KCAL/RADIAN  
     16          6  C    BOND            1.513562      0.186093  KCAL/ANGSTROM
     17          6  C    ANGLE         102.997367     -0.506655  KCAL/RADIAN  
     18          6  C    DIHEDRAL     -177.986100      1.906747  KCAL/RADIAN  
     19          7  H    BOND            1.110064     -0.069898  KCAL/ANGSTROM
     20          7  H    ANGLE         111.479036      0.013615  KCAL/RADIAN  
     21          7  H    DIHEDRAL       65.028905     -0.038287  KCAL/RADIAN  
     22          8  H    BOND            1.106371     -0.036267  KCAL/ANGSTROM
     23          8  H    ANGLE         113.562480     -0.150426  KCAL/RADIAN  
     24          8  H    DIHEDRAL      120.288058      0.054414  KCAL/RADIAN  
     25          9  H    BOND            1.108913     -0.058909  KCAL/ANGSTROM
     26          9  H    ANGLE         111.847122     -0.099825  KCAL/RADIAN  
     27          9  H    DIHEDRAL      120.959426      0.075881  KCAL/RADIAN  
     28         10  H    BOND            1.104476     -0.166470  KCAL/ANGSTROM
     29         10  H    ANGLE         108.171163     -0.006355  KCAL/RADIAN  
     30         10  H    DIHEDRAL      120.493733      1.525368  KCAL/RADIAN  
     31         11  H    BOND            1.104573      0.712920  KCAL/ANGSTROM
     32         11  H    ANGLE         107.912805      0.518329  KCAL/RADIAN  
     33         11  H    DIHEDRAL      118.834535      1.518848  KCAL/RADIAN  
     34         12  H    BOND            1.099337     -0.015445  KCAL/ANGSTROM
     35         12  H    ANGLE         111.944824     -0.020502  KCAL/RADIAN  
     36         12  H    DIHEDRAL      -61.043719     -0.048697  KCAL/RADIAN  
     37         13  H    BOND            1.099402     -0.072350  KCAL/ANGSTROM
     38         13  H    ANGLE         111.842120     -0.077067  KCAL/RADIAN  
     39         13  H    DIHEDRAL      120.416335     -0.099205  KCAL/RADIAN  
     40         14  H    BOND            1.101038     -0.067020  KCAL/ANGSTROM
     41         14  H    ANGLE         110.595031      0.033655  KCAL/RADIAN  
     42         14  H    DIHEDRAL      119.693377      0.003974  KCAL/RADIAN  
     43         15  H    BOND            3.015423      0.522212  KCAL/ANGSTROM
     44         15  H    ANGLE         117.470711     -0.439765  KCAL/RADIAN  
     45         15  H    DIHEDRAL      -11.422082      0.103827  KCAL/RADIAN  
     46         16  O    BOND            2.412743      1.243091  KCAL/ANGSTROM
     47         16  O    ANGLE         146.760277      2.433340  KCAL/RADIAN  
     48         16  O    DIHEDRAL      -91.624379     -0.396765  KCAL/RADIAN  
     49         17  O    BOND            1.014436     -1.697150  KCAL/ANGSTROM
     50         17  O    ANGLE          49.897805     -8.741977  KCAL/RADIAN  
     51         17  O    DIHEDRAL       66.136622     -0.236359  KCAL/RADIAN  
     52         18  H    BOND            1.147172      2.818877  KCAL/ANGSTROM
     53         18  H    ANGLE         102.802379     -7.078996  KCAL/RADIAN  
     54         18  H    DIHEDRAL        4.542325      2.497481  KCAL/RADIAN  
     55         19  H    BOND            1.010809     -0.179790  KCAL/ANGSTROM
     56         19  H    ANGLE         101.141585      0.012099  KCAL/RADIAN  
     57         19  H    DIHEDRAL      105.624845     -0.362321  KCAL/RADIAN  
     58         20  H    BOND            0.964084      0.422750  KCAL/ANGSTROM
     59         20  H    ANGLE          78.371133      2.346728  KCAL/RADIAN  
     60         20  H    DIHEDRAL       46.501333      0.266714  KCAL/RADIAN  
     61         21  H    BOND            0.965982      0.002828  KCAL/ANGSTROM
     62         21  H    ANGLE          95.543461     -0.034922  KCAL/RADIAN  
     63         21  H    DIHEDRAL     -103.145029     -0.037978  KCAL/RADIAN  




  ATOM               CHEMICAL                 BOND LENGTH      BOND ANGLE     TWIST ANGLE 
 NUMBER               SYMBOL                  (ANGSTROMS)      (DEGREES)       (DEGREES) 
   (I)                                           NA:I           NB:NA:I       NC:NB:NA:I       NA    NB    NC 
     1       C(HETATM    1  C1  HET A   3)    0.00035967  *   -0.0012793  *   -0.0000612  *
     2       C(HETATM    2  C2  HET A   3)    1.47220830  *   -0.0465540  *    0.0072627  *     1     0     0
     3       O(HETATM    3  O1  HET A   3)    1.24708634  *  125.6763821  *    0.0428583  *     2     1     0
     4       O(HETATM    4  O2  HET A   3)    1.32163475  *  113.9809248  * -179.9671446  *     2     1     3
     5       C(HETATM    5  C3  HET A   3)    1.45426555  *  118.3041611  *  179.2812378  *     4     2     1
     6       C(HETATM    6  C4  HET A   3)    1.51356243  *  102.9973671  * -177.9861004  *     5     4     2
     7       H(HETATM    7 1H1  HET A   3)    1.11006403  *  111.4790357  *   65.0289049  *     1     2     3
     8       H(HETATM    8 2H1  HET A   3)    1.10637141  *  113.5624798  *  120.2880577  *     1     2     7
     9       H(HETATM    9 3H1  HET A   3)    1.10891266  *  111.8471216  *  120.9594259  *     1     2     8
    10       H(HETATM   10 1H3  HET A   3)    1.10447607  *  108.1711634  *  120.4937329  *     5     4     6
    11       H(HETATM   11 2H3  HET A   3)    1.10457283  *  107.9128052  *  118.8345350  *     5     4    10
    12       H(HETATM   12 1H4  HET A   3)    1.09933660  *  111.9448241  *  -61.0437188  *     6     5     4
    13       H(HETATM   13 2H4  HET A   3)    1.09940224  *  111.8421203  *  120.4163346  *     6     5    12
    14       H(HETATM   14 3H4  HET A   3)    1.10103812  *  110.5950309  *  119.6933768  *     6     5    13
    15       H(HETATM   15 1H   HOH A   5)    3.01542291  *  117.4707112  *  -11.4220819  *     3     2     1
    16       O(HETATM   16  O   HOH A   4)    2.41274344  *  146.7602773  *  -91.6243790  *    11     5     4
    17       O(HETATM   17  O   HOH A   5)    1.01443626  *   49.8978051  *   66.1366216  *    15     3     2
    18       H(HETATM   18 2H   HOH A   5)    1.14717156  *  102.8023787  *    4.5423247  *    17    15     3
    19       H(HETATM   19 3H   HOH A   5)    1.01080945  *  101.1415848  *  105.6248446  *    17    15    18
    20       H(HETATM   20 1H   HOH A   4)    0.96408352  *   78.3711334  *   46.5013328  *    16    11     5
    21       H(HETATM   21 2H   HOH A   4)    0.96598174  *   95.5434611  * -103.1450293  *    16    11    20

                             CARTESIAN COORDINATES

   1    C        0.000359672    -0.001279343    -0.000061185
   2    C        1.472567969    -0.001279343    -0.000061185
   3    O        2.199876719     1.011758819    -0.000061185
   4    O        2.009723254    -1.208831463    -0.000753638
   5    C        3.459758848    -1.318490269    -0.016878393
   6    C        3.687529349    -2.814056739    -0.064551906
   7    H       -0.406102222     0.434801080    -0.936471743
   8    H       -0.441911043    -1.011043226     0.093913304
   9    H       -0.412301461     0.607720551     0.829708179
  10    H        3.835545729    -0.786121230    -0.908637781
  11    H        3.847053859    -0.837324224     0.898852430
  12    H        3.269181734    -3.321628874     0.816298111
  13    H        3.227404942    -3.269767218    -0.952976790
  14    H        4.764422840    -3.040951841    -0.097777874
  15    H        0.880848087     3.671123611    -0.529889149
  16    O        4.669794248     1.187352910     1.921159455
  17    O        0.774799929     3.033319736     0.251801921
  18    H        1.550038422     2.219358349     0.022728269
  19    H        1.221404035     3.556306023     0.992589251
  20    H        3.887231785     1.507615862     1.458034562
  21    H        5.387353604     1.325921565     1.289472802


           Empirical Formula: C4 H13 O4  =    21 atoms



      MOLECULAR POINT GROUP   :   C1  


                  EIGENVALUES  
 -32.34697 -31.74573 -30.64161 -29.29036 -28.09250 -26.49972 -21.94193 -21.42659
 -18.67327 -18.58947 -18.15221 -17.66953 -17.37726 -16.65461 -15.63923 -15.52892
 -14.65754 -14.47509 -14.23969 -13.87220 -13.57008 -13.16909 -13.08509 -12.44249
 -12.39730 -11.82161   0.02741   0.69948   1.46337   2.54714   3.26008   3.57513
   4.18579   4.34818   4.86671   4.88811   4.90443   5.04951   5.07174   5.43436
   5.60801   5.66172   6.12128   6.55928   6.64907


              NET ATOMIC CHARGES AND DIPOLE CONTRIBUTIONS

  ATOM NO.                 TYPE                        CHARGE      No. of ELECS.   s-Pop       p-Pop       
    1          C(HETATM    1  C1  HET A   3)          -0.538260        4.5383     1.06236     3.47590
    2          C(HETATM    2  C2  HET A   3)           0.712847        3.2872     1.12114     2.16601
    3          O(HETATM    3  O1  HET A   3)          -0.641882        6.6419     1.86522     4.77666
    4          O(HETATM    4  O2  HET A   3)          -0.376092        6.3761     1.85964     4.51645
    5          C(HETATM    5  C3  HET A   3)          -0.003381        4.0034     1.10348     2.89990
    6          C(HETATM    6  C4  HET A   3)          -0.470681        4.4707     1.05526     3.41543
    7          H(HETATM    7 1H1  HET A   3)           0.225103        0.7749     0.77490
    8          H(HETATM    8 2H1  HET A   3)           0.215011        0.7850     0.78499
    9          H(HETATM    9 3H1  HET A   3)           0.221131        0.7789     0.77887
   10          H(HETATM   10 1H3  HET A   3)           0.152038        0.8480     0.84796
   11          H(HETATM   11 2H3  HET A   3)           0.153327        0.8467     0.84667
   12          H(HETATM   12 1H4  HET A   3)           0.170313        0.8297     0.82969
   13          H(HETATM   13 2H4  HET A   3)           0.170227        0.8298     0.82977
   14          H(HETATM   14 3H4  HET A   3)           0.182259        0.8177     0.81774
   15          H(HETATM   15 1H   HOH A   5)           0.430813        0.5692     0.56919
   16          O(HETATM   16  O   HOH A   4)          -0.743384        6.7434     1.81536     4.92802
   17          O(HETATM   17  O   HOH A   5)          -0.475075        6.4751     1.80686     4.66821
   18          H(HETATM   18 2H   HOH A   5)           0.449535        0.5505     0.55046
   19          H(HETATM   19 3H   HOH A   5)           0.423919        0.5761     0.57608
   20          H(HETATM   20 1H   HOH A   4)           0.366261        0.6337     0.63374
   21          H(HETATM   21 2H   HOH A   4)           0.375969        0.6240     0.62403

          NET CHARGE ON RESIDUES

      Residue         Charge  Anion or
                              Cation?
      HET A   3       +0.172
      HOH A   5       +0.829  CATION
 


 DIPOLE           X         Y         Z       TOTAL
 POINT-CHG.    -5.284     9.184    -3.064    11.030
 HYBRID         0.292     0.495    -0.336     0.666
 SUM           -4.992     9.680    -3.400    11.410


          ATOMIC ORBITAL ELECTRON POPULATIONS

                   Atom                  s        px        py        pz   
   C(HETATM    1  C1  HET A   3)   1.06236   0.99362   1.24630   1.23598
   C(HETATM    2  C2  HET A   3)   1.12114   0.85066   0.73300   0.58236
   O(HETATM    3  O1  HET A   3)   1.86522   1.64583   1.45847   1.67237
   O(HETATM    4  O2  HET A   3)   1.85964   1.36527   1.36192   1.78926
   C(HETATM    5  C3  HET A   3)   1.10348   0.70885   1.03011   1.16094
   C(HETATM    6  C4  HET A   3)   1.05526   1.19023   1.02038   1.20481
   H(HETATM    7 1H1  HET A   3)   0.77490
   H(HETATM    8 2H1  HET A   3)   0.78499
   H(HETATM    9 3H1  HET A   3)   0.77887
   H(HETATM   10 1H3  HET A   3)   0.84796
   H(HETATM   11 2H3  HET A   3)   0.84667
   H(HETATM   12 1H4  HET A   3)   0.82969
   H(HETATM   13 2H4  HET A   3)   0.82977
   H(HETATM   14 3H4  HET A   3)   0.81774
   H(HETATM   15 1H   HOH A   5)   0.56919
   O(HETATM   16  O   HOH A   4)   1.81536   1.41768   1.91945   1.59090
   O(HETATM   17  O   HOH A   5)   1.80686   1.66863   1.52152   1.47806
   H(HETATM   18 2H   HOH A   5)   0.55046
   H(HETATM   19 3H   HOH A   5)   0.57608
   H(HETATM   20 1H   HOH A   4)   0.63374
   H(HETATM   21 2H   HOH A   4)   0.62403

 **********************
 *                    *
 * JOB ENDED NORMALLY *
 *                    *
 **********************



 TOTAL JOB TIME:             0.31 SECONDS

 == MOPAC DONE ==
