 *******************************************************************************
 ** Site#: 37037        For non-commercial use only           Version 21.151W **
 *******************************************************************************
 ** Cite this program as: MOPAC2016, Version: 21.151W, James J. P. Stewart,   **
 ** Stewart Computational Chemistry, web: HTTP://OpenMOPAC.net. Days left: 365**
 *******************************************************************************
 **                                                                           **
 **                                MOPAC2016                                  **
 **                                                                           **
 *******************************************************************************

                              PM7 CALCULATION RESULTS

 *******************************************************************************
 *  CALCULATION DONE:                                Mon May 31 15:12:44 2021  *
 *
 *
 *
 *                 CHARGE ON SYSTEM = +1
 *
 *
 *
 *  EPS=78.4   - USE ANDREAS KLAMT'S COSMO IMPLICIT SOLVATION MODEL
 *  T=         - A TIME OF 172800.0 SECONDS REQUESTED
 *  DUMP=N     - RESTART FILE WRITTEN EVERY 7200.0 SECONDS REQUESTED
 *  NOTXT      - DO NOT PRINT TEXT ASSOCIATED WITH AN ATOM
 *  HTML       - WRITE HTML SCRIPT TO READ PDB FILE USING JSMOL
 *******************************************************************************
      eps=78.4 charge=1 HTML  notxt
      2 CH3-C(+)(H2O)(OH)-O-C2H5

  ATOM    CHEMICAL      BOND LENGTH      BOND ANGLE     TWIST ANGLE 
 NUMBER    SYMBOL       (ANGSTROMS)      (DEGREES)       (DEGREES) 
   (I)                     NA:I           NB:NA:I       NC:NB:NA:I       NA    NB    NC 
     1       C          0.00000000  *    0.0000000  *    0.0000000  *     0     0     0
     2       C          1.47169100  *    0.0000000  *    0.0000000  *     1     0     0
     3       O          1.26941700  *  125.5601030  *    0.0000000  *     2     1     0
     4       O          1.31560100  *  115.2703050  * -174.1021600  *     2     1     3
     5       C          1.45758200  *  118.1900140  *  178.5838050  *     4     2     1
     6       C          1.51311200  *  102.8393740  * -178.4214200  *     5     4     2
     7       H          1.11090400  *  111.2927380  *   81.6453040  *     1     2     3
     8       H          1.10745300  *  113.0249020  *  119.6156940  *     1     2     7
     9       H          1.10759300  *  112.5208180  *  121.0563830  *     1     2     8
    10       H          1.10454800  *  108.1788090  *  120.5062460  *     5     4     6
    11       H          1.10462900  *  107.8409810  *  118.9439060  *     5     4    10
    12       H          1.09918800  *  111.9690000  *  -63.3983410  *     6     5     4
    13       H          1.09973400  *  111.8986150  *  120.4854330  *     6     5    12
    14       H          1.10132600  *  110.5913890  *  119.6548950  *     6     5    13
    15       H          2.52076800  *   98.0291080  *  -53.2928650  *     9     1     2
    16       O          2.46175600  *  108.1498380  *    1.8268970  *     3     2     1
    17       O          0.96832700  *   93.2707740  *   28.8553450  *    15     9     1
    18       H          1.22353800  *  115.7937040  *    1.0805110  *     3     2    16
    19       H          0.96802200  *  104.0481360  *  117.4407970  *    17    15     9
    20       H          0.99732100  *  108.9425780  *  118.0707350  *    16     3     2
    21       H          0.99848600  *  107.3335010  *  109.6554070  *    16     3    20
 


          CARTESIAN COORDINATES 

    NO.       ATOM           X           Y           Z

     1         C          0.0000      0.0000      0.0000
     2         C          1.4717      0.0000      0.0000
     3         O          2.2099      1.0327      0.0000
     4         O          2.0333     -1.1834     -0.1222
     5         C          3.4886     -1.2542     -0.1615
     6         C          3.7485     -2.7334     -0.3452
     7         H         -0.4034      0.1504     -1.0241
     8         H         -0.4332     -0.9499      0.3696
     9         H         -0.4242      0.8097      0.6254
    10         H          3.8412     -0.6345     -1.0051
    11         H          3.8730     -0.8489      0.7915
    12         H          3.3887     -3.3234      0.5096
    13         H          3.2550     -3.1279     -1.2453
    14         H          4.8276     -2.9270     -0.4503
    15         H          0.8191      0.2961      2.7572
    16         O          0.7538      3.0162      0.0746
    17         O          1.5783     -0.0808      2.2890
    18         H          1.6245      2.1056      0.0559
    19         H          2.3139      0.5017      2.5270
    20         H          0.9417      3.5244      0.9119
    21         H          1.0763      3.6486     -0.6277

 General Reference for PM7:
 "Optimization of Parameters for Semiempirical Methods VI: More Modifications to the 
 NDDO Approximations and Re-optimization of Parameters", J. J. P. Stewart, J. Mol. Mod., 1:32, 19 (2013)
 https://link.springer.com/article/10.1007/s00894-012-1667-x

           Empirical Formula: C4 H13 O4  =    21 atoms



      MOLECULAR POINT GROUP   :   C1  


      RHF CALCULATION, NO. OF DOUBLY OCCUPIED LEVELS = 26


          Geometry optimization using EF

          DIAGONAL MATRIX USED AS START HESSIAN

 CYCLE:     1 TIME:   0.012 TIME LEFT:  2.00D  GRAD.:    11.518 HEAT: -132.9628
 CYCLE:     2 TIME:   0.016 TIME LEFT:  2.00D  GRAD.:     7.749 HEAT: -132.9978
 CYCLE:     3 TIME:   0.031 TIME LEFT:  2.00D  GRAD.:     4.919 HEAT: -133.1517
 CYCLE:     4 TIME:   0.020 TIME LEFT:  2.00D  GRAD.:     4.228 HEAT: -133.1585
 CYCLE:     5 TIME:   0.012 TIME LEFT:  2.00D  GRAD.:     3.630 HEAT: -133.1939
 CYCLE:     6 TIME:   0.016 TIME LEFT:  2.00D  GRAD.:     5.516 HEAT: -133.2557
 CYCLE:     7 TIME:   0.020 TIME LEFT:  2.00D  GRAD.:    12.307 HEAT: -133.4304
 CYCLE:     8 TIME:   0.027 TIME LEFT:  2.00D  GRAD.:    11.749 HEAT: -133.5446
 CYCLE:     9 TIME:   0.020 TIME LEFT:  2.00D  GRAD.:     8.076 HEAT: -133.6068
 CYCLE:    10 TIME:   0.000 TIME LEFT:  2.00D  GRAD.:     5.736 HEAT: -133.6204
 CYCLE:    11 TIME:   0.012 TIME LEFT:  2.00D  GRAD.:     3.182 HEAT: -133.7041
 CYCLE:    12 TIME:   0.020 TIME LEFT:  2.00D  GRAD.:     1.679 HEAT: -133.7378
 CYCLE:    13 TIME:   0.012 TIME LEFT:  2.00D  GRAD.:     1.488 HEAT: -133.7583
 CYCLE:    14 TIME:   0.016 TIME LEFT:  2.00D  GRAD.:     1.264 HEAT: -133.7757
 CYCLE:    15 TIME:   0.020 TIME LEFT:  2.00D  GRAD.:     1.163 HEAT: -133.7756
 CYCLE:    16 TIME:   0.012 TIME LEFT:  2.00D  GRAD.:     1.102 HEAT: -133.7990
 CYCLE:    17 TIME:   0.016 TIME LEFT:  2.00D  GRAD.:     0.979 HEAT: -133.7998

     GRADIENT =  0.97871 IS LESS THAN CUTOFF =  1.00000



 -------------------------------------------------------------------------------
 eps=78.4 charge=1 HTML  notxt
      2 CH3-C(+)(H2O)(OH)-O-C2H5



     GEOMETRY OPTIMISED USING EIGENVECTOR FOLLOWING (EF).     
     SCF FIELD WAS ACHIEVED                                   


                              PM7 CALCULATION
                                                       MOPAC2016 (Version: 21.151W)
                                                       Mon May 31 15:12:44 2021
                                                       No. of days remaining = 365




          FINAL HEAT OF FORMATION =       -133.79976 KCAL/MOL =    -559.81818 KJ/MOL
          VAN DER WAALS AREA      =        175.23 SQUARE ANGSTROMS


          TOTAL ENERGY            =      -1845.19906 EV
          ELECTRONIC ENERGY       =      -2341.39836 EV  POINT GROUP:     C1  
          CORE-CORE REPULSION     =        496.19930 EV

          DIELECTRIC ENERGY       =         -2.97746 EV
          COSMO AREA              =        175.23 SQUARE ANGSTROMS
          COSMO VOLUME            =        169.08 CUBIC ANGSTROMS

          GRADIENT NORM           =          0.97871 = 0.21357 PER ATOM
          IONIZATION POTENTIAL    =         11.770897 EV
          HOMO LUMO ENERGIES (EV) =        -11.771  0.283
          NO. OF FILLED LEVELS    =         26
          MOLECULAR WEIGHT        =        125.1443

          MOLECULAR DIMENSIONS (Angstroms)

            Atom       Atom       Distance
            H    20    H    14     7.58583
            H    19    H     7     4.47475
            H     8    H    21     3.93615


          SCF CALCULATIONS        =         20
 
          WALL-CLOCK TIME         =          0.344 SECONDS
          COMPUTATION TIME        =          1.203 SECONDS




  ATOM    CHEMICAL      BOND LENGTH      BOND ANGLE     TWIST ANGLE 
 NUMBER    SYMBOL       (ANGSTROMS)      (DEGREES)       (DEGREES) 
   (I)                     NA:I           NB:NA:I       NC:NB:NA:I       NA    NB    NC 
     1       C         -0.04706171  *    0.0313135  *    0.0186031  *     0     0     0
     2       C          1.47408351  *   -3.2002521  *    1.9624070  *     1     0     0
     3       O          1.25840593  *  125.0638646  *   -1.8504043  *     2     1     0
     4       O          1.32017526  *  115.0156182  * -175.1617205  *     2     1     3
     5       C          1.45544144  *  117.6881154  * -179.9366695  *     4     2     1
     6       C          1.51344495  *  103.1389718  *  179.0022243  *     5     4     2
     7       H          1.11020572  *  111.2233927  *   82.5742762  *     1     2     3
     8       H          1.10713328  *  112.9485940  *  119.6916451  *     1     2     7
     9       H          1.10660175  *  112.3514202  *  120.7786637  *     1     2     8
    10       H          1.10458447  *  108.0075798  *  120.6699176  *     5     4     6
    11       H          1.10486389  *  107.9460074  *  118.7634203  *     5     4    10
    12       H          1.09925360  *  111.8628156  *  -61.0468227  *     6     5     4
    13       H          1.09940525  *  111.8902099  *  120.4745607  *     6     5    12
    14       H          1.10113602  *  110.5620337  *  119.7716623  *     6     5    13
    15       H          2.54063331  *   98.5475553  *  -53.5294545  *     9     1     2
    16       O          2.47880048  *  112.9484021  *    2.2165256  *     3     2     1
    17       O          0.96750553  *   92.2935948  *   28.8139423  *    15     9     1
    18       H          1.31014945  *  115.2182728  *    0.5666627  *     3     2    16
    19       H          0.96751264  *  104.1049985  *  117.4638308  *    17    15     9
    20       H          1.00641687  *  105.8307881  *  121.8918394  *    16     3     2
    21       H          1.00706508  *  104.2896207  *  106.9328821  *    16     3    20

                             CARTESIAN COORDINATES

   1    C       -0.047061711     0.031313544     0.018603140
   2    C        1.427021802     0.031313544     0.018603140
   3    O        2.149962348     1.061334147     0.018603140
   4    O        1.985278103    -1.160756589    -0.082299872
   5    C        3.439135850    -1.228498071    -0.086604249
   6    C        3.714053432    -2.713376920    -0.186957384
   7    H       -0.448961940     0.165065790    -1.007624551
   8    H       -0.478738613    -0.912176276     0.404901108
   9    H       -0.467887239     0.849165236     0.633901380
  10    H        3.805399875    -0.649398407    -0.952976623
  11    H        3.803954224    -0.772668200     0.851399431
  12    H        3.302588318    -3.264722267     0.670406748
  13    H        3.278441502    -3.150305920    -1.096917383
  14    H        4.798042094    -2.905026943    -0.214149035
  15    H        0.769712538     0.367430338     2.799795166
  16    O        0.838246204     3.162776211     0.106885766
  17    O        1.522859083    -0.016734348     2.329417956
  18    H        1.501627063     2.198365614     0.076156458
  19    H        2.262755401     0.564715080     2.554252790
  20    H        1.152734330     3.648330636     0.930420243
  21    H        1.228249653     3.730289885    -0.627964971


           Empirical Formula: C4 H13 O4  =    21 atoms



      MOLECULAR POINT GROUP   :   C1  


                  EIGENVALUES  
 -32.18620 -31.54949 -30.40362 -29.31979 -27.99991 -26.43249 -21.87018 -21.43107
 -18.62837 -18.56218 -17.98308 -17.76560 -17.29200 -16.51726 -15.59351 -15.37899
 -14.70837 -14.43262 -14.11292 -13.77711 -13.51090 -13.07822 -12.99665 -12.43954
 -12.34320 -11.77090   0.28335   0.81208   1.60402   2.65559   3.39361   3.65349
   4.28804   4.32447   4.94592   5.01191   5.03059   5.08304   5.19001   5.45702
   5.63853   5.68702   6.16181   6.49916   6.65760


              NET ATOMIC CHARGES AND DIPOLE CONTRIBUTIONS

  ATOM NO.   TYPE          CHARGE      No. of ELECS.   s-Pop       p-Pop       
    1          C          -0.529628        4.5296     1.06196     3.46767
    2          C           0.741786        3.2582     1.12011     2.13810
    3          O          -0.643251        6.6433     1.86367     4.77958
    4          O          -0.362179        6.3622     1.85951     4.50267
    5          C          -0.000394        4.0004     1.10223     2.89816
    6          C          -0.470791        4.4708     1.05523     3.41556
    7          H           0.221569        0.7784     0.77843
    8          H           0.215216        0.7848     0.78478
    9          H           0.210394        0.7896     0.78961
   10          H           0.149865        0.8501     0.85013
   11          H           0.150881        0.8491     0.84912
   12          H           0.168748        0.8313     0.83125
   13          H           0.169600        0.8304     0.83040
   14          H           0.181188        0.8188     0.81881
   15          H           0.377394        0.6226     0.62261
   16          O          -0.515542        6.5155     1.80420     4.71134
   17          O          -0.737095        6.7371     1.81651     4.92059
   18          H           0.445618        0.5544     0.55438
   19          H           0.376032        0.6240     0.62397
   20          H           0.424526        0.5755     0.57547
   21          H           0.426061        0.5739     0.57394
 DIPOLE           X         Y         Z       TOTAL
 POINT-CHG.    -2.502     9.847     0.318    10.165
 HYBRID         0.303     0.594     0.265     0.717
 SUM           -2.199    10.441     0.583    10.686


          ATOMIC ORBITAL ELECTRON POPULATIONS

                  Atom                 s        px        py        pz   
   C(HETATM    1  C   HET A   1)   1.06196   0.99557   1.24268   1.22942
   C(HETATM    2  C   HET A   1)   1.12011   0.84546   0.72990   0.56274
   O(HETATM    3  O   HET A   1)   1.86367   1.63488   1.44076   1.70395
   O(HETATM    4  O   HET A   1)   1.85951   1.35414   1.36120   1.78733
   C(HETATM    5  C   HET A   1)   1.10223   0.70932   1.03099   1.15784
   C(HETATM    6  C   HET A   1)   1.05523   1.18696   1.02604   1.20257
   H(HETATM    7  H   HET A   1)   0.77843
   H(HETATM    8  H   HET A   1)   0.78478
   H(HETATM    9  H   HET A   1)   0.78961
   H(HETATM   10  H   HET A   1)   0.85013
   H(HETATM   11  H   HET A   1)   0.84912
   H(HETATM   12  H   HET A   1)   0.83125
   H(HETATM   13  H   HET A   1)   0.83040
   H(HETATM   14  H   HET A   1)   0.81881
   H(HETATM   15  H   HET A   1)   0.62261
   O(HETATM   16  O   HET A   1)   1.80420   1.69947   1.54950   1.46237
   O(HETATM   17  O   HET A   1)   1.81651   1.43362   1.67977   1.80720
   H(HETATM   18  H   HET A   1)   0.55438
   H(HETATM   19  H   HET A   1)   0.62397
   H(HETATM   20  H   HET A   1)   0.57547
   H(HETATM   21  H   HET A   1)   0.57394

 **********************
 *                    *
 * JOB ENDED NORMALLY *
 *                    *
 **********************



 TOTAL JOB TIME:             0.34 SECONDS

 == MOPAC DONE ==
