 *******************************************************************************
 ** Site#: 10005        For non-commercial use only     Version 15.309W 64BITS**
 *******************************************************************************
 ** Cite this work as:                                                        **
 **                                                                           **
 ** (a) MOPAC2012, James J. P. Stewart, Stewart Computational Chemistry,      **
 **  Version 15.309W web: HTTP://OpenMOPAC.net         Days remaining: 365    **
 **                                                                           **
 **                                 AND                                       **
 **                                                                           **
 ** (b) Maia, J.D.C., et al., J. Chem. Theory Comput. 2012, 8, 3072-3081.     **
 **                DOI: 10.1021/ct3004645.                                    **
 *******************************************************************************
 **                                                                           **
 **                                MOPAC2012                                  **
 **                                                                           **
 *******************************************************************************

                              PM7 CALCULATION RESULTS


 *******************************************************************************
 *  CALCULATION DONE:                                Thu Nov 05 12:29:48 2015  *
 *  GEO_DAT    - DATA SET GEOMETRY IS IN FILE "STEP_2_3.ARC"
 *
 *
 *
 *                 CHARGE ON SYSTEM =     1
 *
 *
 *
 *  EPS= 78.40 - USE ANDREAS KLAMT'S COSMO IMPLICIT SOLVATION MODEL
 *  TS         - USE EF ROUTINE FOR TS SEARCH
 *  T=         - A TIME OF 172800.0 SECONDS REQUESTED
 *  DUMP=N     - RESTART FILE WRITTEN EVERY  7200.000 SECONDS
 *******************************************************************************
TS charge=1 eps=78.4 HTML geo_dat="Step_2_3.arc"
 Transition state for Step 2 to Step 3

   ATOM                 CHEMICAL                   X               Y               Z
  NUMBER                 SYMBOL               (ANGSTROMS)     (ANGSTROMS)     (ANGSTROMS)
 
     1       C(HETATM    1  C1  HET A   3)   -0.08303523      0.07036897      0.05137285   
     2       C(HETATM    2  C2  HET A   3)    1.21616841  *   0.12913845  *   0.78116289  *
     3       O(HETATM    3  O1  HET A   3)    1.96650194      1.22109428      0.82382088   
     4       O(HETATM    4  O2  HET A   3)    2.02285928  *  -1.05513877  *   0.46034882  *
     5       C(HETATM    5  C3  HET A   3)    3.44859705     -0.87053280      0.22667442   
     6       C(HETATM    6  C4  HET A   3)    3.91793330     -2.25401270     -0.16633393   
     7       H(HETATM    7 1H1  HET A   3)    0.03899803     -0.13964579     -1.02633299   
     8       H(HETATM    8 2H1  HET A   3)   -0.73662044     -0.72860532      0.45346557   
     9       H(HETATM    9 3H1  HET A   3)   -0.64400379      1.01890153      0.13615096   
    10       H(HETATM   10 1H3  HET A   3)    3.55999802     -0.12282300     -0.57914723   
    11       H(HETATM   11 2H3  HET A   3)    3.90616197     -0.48773757      1.15576565   
    12       H(HETATM   12 1H4  HET A   3)    3.64815899     -3.00990650      0.58609093   
    13       H(HETATM   13 2H4  HET A   3)    3.48875879     -2.58071860     -1.12424305   
    14       H(HETATM   14 3H4  HET A   3)    5.01361307     -2.27618485     -0.27235846   
    15       H(HETATM   15 1H   HOH A   5)    1.46166108      0.12582177      2.86489531   
    16       O(HETATM   16  O   HOH A   4)    0.99992594  *   3.15993714  *  -0.44615936  *
    17       O(HETATM   17  O   HOH A   5)    0.99924582  *  -0.39443486  *   2.13988707  *
    18       H(HETATM   18 1H   HOH A   4)    1.55228501  *   2.07927645  *   0.27399936  *
    19       H(HETATM   19 2H   HOH A   5)    1.79402721  *  -1.41973268  *   1.73123507  *
    20       H(HETATM   20 2H   HOH A   4)    1.02119737      3.90165674      0.19965403   
    21       H(HETATM   21 3H   HOH A   4)    1.71740601      3.39151269     -1.07881566   
 

     ===================== shared-memory parallel CPU Section ======================
     **                                                                           **
     **  MOPAC calculations will run in shared-memory parallel CPUs               **
     **                                                                           **
     **  Number of Threads =  4                                                   **
     **                                                                           **
     **                                                                           **
     **  For information on this work, see:                                       **
     **                                                                           **
     **  Maia, J.D.C., et al., J. Chem. Theory Comput. 2012, 8, 3072-3081.        **
     **        DOI: 10.1021/ct3004645.                                            **
     **                                                                           **
     ===================== shared-memory parallel CPU Section ======================
      


 General Reference for PM7:
 "Optimization of Parameters for Semiempirical Methods VI: More Modifications to the 
 NDDO Approximations and Re-optimization of Parameters", J. J. P. Stewart, J. Mol. Mod., 1:32, 19 (2013)
 http://www.springerlink.com/openurl.asp?genre=article&id=doi:10.1007/s00894-012-1667-x

           Empirical Formula: C4 H13 O4  =    21 atoms



      MOLECULAR POINT GROUP   :   C1  


      RHF CALCULATION, NO. OF DOUBLY OCCUPIED LEVELS =   26

      Transition state refinement using EF

          HESSIAN CALCULATED NUMERICALLY

 CYCLE:     1 TIME:   0.234 TIME LEFT:  2.00D  GRAD.:     1.772 HEAT: -104.1681
 CYCLE:     2 TIME:   0.016 TIME LEFT:  2.00D  GRAD.:     0.042 HEAT: -104.1784

     GRADIENT =  0.04208  IS LESS THAN CUTOFF =  1.00000



 -------------------------------------------------------------------------------
TS charge=1 eps=78.4 HTML geo_dat="Step_2_3.arc"
 Transition state for Step 2 to Step 3



     GEOMETRY OPTIMISED USING EIGENVECTOR FOLLOWING (TS).     
     SCF FIELD WAS ACHIEVED                                   


                              PM7 CALCULATION
                                                       MOPAC2012 (Version: 15.309W)
                                                       Thu Nov 05 12:29:48 2015
                                                       No. of days left = 365




          FINAL HEAT OF FORMATION =       -104.17844 KCAL/MOL =    -435.88259 KJ/MOL
          VAN DER WAALS AREA      =        171.55 SQUARE ANGSTROMS


          TOTAL ENERGY            =      -1843.94956 EV
          ELECTRONIC ENERGY       =      -2412.88126 EV  POINT GROUP:     C1  
          CORE-CORE REPULSION     =        568.93170 EV
          DIELECTRIC ENERGY       =         -2.59415 EV
          COSMO AREA              =        171.55 SQUARE ANGSTROMS
          COSMO VOLUME            =        162.53 CUBIC ANGSTROMS

          GRADIENT NORM           =          0.04208
          WARNING -- GEOMETRY IS NOT AT A STATIONARY POINT

          For more information, see: HTTP://OpenMOPAC.net/Manual/Warning_geometry.html

          IONIZATION POTENTIAL    =         11.931245 EV
          HOMO LUMO ENERGIES (EV) =        -11.931 -0.008
          NO. OF FILLED LEVELS    =         26
          MOLECULAR WEIGHT        =        125.144

          MOLECULAR DIMENSIONS (Angstroms)

            Atom       Atom       Distance
            H    12    H    20     6.05976
            H    20    H    12     5.99137
            H    15    H     7     4.06893


          SCF CALCULATIONS        =         22
 
          WALL-CLOCK TIME         =          0.281 SECONDS
          COMPUTATION TIME        =          1.014 SECONDS




   ATOM                 CHEMICAL                   X               Y               Z
  NUMBER                 SYMBOL               (ANGSTROMS)     (ANGSTROMS)     (ANGSTROMS)
 
     1       C(HETATM    1  C1  HET A   3)   -0.08303523      0.07036897      0.05137285   
     2       C(HETATM    2  C2  HET A   3)    1.21514329  *   0.12748645  *   0.78238769  *
     3       O(HETATM    3  O1  HET A   3)    1.96650194      1.22109428      0.82382088   
     4       O(HETATM    4  O2  HET A   3)    2.02294270  *  -1.05661886  *   0.46282658  *
     5       C(HETATM    5  C3  HET A   3)    3.44859705     -0.87053280      0.22667442   
     6       C(HETATM    6  C4  HET A   3)    3.91793330     -2.25401270     -0.16633393   
     7       H(HETATM    7 1H1  HET A   3)    0.03899803     -0.13964579     -1.02633299   
     8       H(HETATM    8 2H1  HET A   3)   -0.73662044     -0.72860532      0.45346557   
     9       H(HETATM    9 3H1  HET A   3)   -0.64400379      1.01890153      0.13615096   
    10       H(HETATM   10 1H3  HET A   3)    3.55999802     -0.12282300     -0.57914723   
    11       H(HETATM   11 2H3  HET A   3)    3.90616197     -0.48773757      1.15576565   
    12       H(HETATM   12 1H4  HET A   3)    3.64815899     -3.00990650      0.58609093   
    13       H(HETATM   13 2H4  HET A   3)    3.48875879     -2.58071860     -1.12424305   
    14       H(HETATM   14 3H4  HET A   3)    5.01361307     -2.27618485     -0.27235846   
    15       H(HETATM   15 1H   HOH A   5)    1.46166108      0.12582177      2.86489531   
    16       O(HETATM   16  O   HOH A   4)    0.99967974  *   3.16111435  *  -0.44720545  *
    17       O(HETATM   17  O   HOH A   5)    0.99844339  *  -0.39523868  *   2.14064832  *
    18       H(HETATM   18 1H   HOH A   4)    1.55405681  *   2.07520713  *   0.27754080  *
    19       H(HETATM   19 2H   HOH A   5)    1.79290429  *  -1.42080542  *   1.73259123  *
    20       H(HETATM   20 2H   HOH A   4)    1.02119737      3.90165674      0.19965403   
    21       H(HETATM   21 3H   HOH A   4)    1.71740601      3.39151269     -1.07881566   

                             CARTESIAN COORDINATES

   1    C       -0.083035230     0.070368970     0.051372850
   2    C        1.215143286     0.127486446     0.782387686
   3    O        1.966501940     1.221094280     0.823820880
   4    O        2.022942699    -1.056618857     0.462826577
   5    C        3.448597050    -0.870532800     0.226674420
   6    C        3.917933300    -2.254012700    -0.166333930
   7    H        0.038998030    -0.139645790    -1.026332990
   8    H       -0.736620440    -0.728605320     0.453465570
   9    H       -0.644003790     1.018901530     0.136150960
  10    H        3.559998020    -0.122823000    -0.579147230
  11    H        3.906161970    -0.487737570     1.155765650
  12    H        3.648158990    -3.009906500     0.586090930
  13    H        3.488758790    -2.580718600    -1.124243050
  14    H        5.013613070    -2.276184850    -0.272358460
  15    H        1.461661080     0.125821770     2.864895310
  16    O        0.999679743     3.161114348    -0.447205449
  17    O        0.998443388    -0.395238679     2.140648321
  18    H        1.554056811     2.075207128     0.277540801
  19    H        1.792904295    -1.420805422     1.732591233
  20    H        1.021197370     3.901656740     0.199654030
  21    H        1.717406010     3.391512690    -1.078815660


           Empirical Formula: C4 H13 O4  =    21 atoms



      MOLECULAR POINT GROUP   :   C1  


                  EIGENVALUES  
 -32.15647 -30.54438 -29.78572 -29.53157 -27.66394 -26.50224 -22.42046 -21.87435
 -19.48986 -18.48719 -18.29893 -18.07894 -16.95952 -16.07205 -15.71652 -15.41603
 -14.99574 -14.62546 -14.11167 -13.82650 -13.52621 -13.18667 -13.04895 -12.70333
 -12.54749 -11.93125  -0.00754   1.15654   1.78804   2.44000   2.76794   3.02203
   3.59981   3.90432   4.80037   4.98626   5.04805   5.07762   5.37933   5.53248
   5.57621   5.63036   5.90490   6.20191   6.64328


              NET ATOMIC CHARGES AND DIPOLE CONTRIBUTIONS

  ATOM NO.                 TYPE                        CHARGE      No. of ELECS.   s-Pop       p-Pop       
    1          C(HETATM    1  C1  HET A   3)          -0.517919        4.5179     1.06284     3.45508
    2          C(HETATM    2  C2  HET A   3)           0.718982        3.2810     1.10837     2.17264
    3          O(HETATM    3  O1  HET A   3)          -0.668456        6.6685     1.84847     4.81999
    4          O(HETATM    4  O2  HET A   3)          -0.452524        6.4525     1.87791     4.57461
    5          C(HETATM    5  C3  HET A   3)           0.009067        3.9909     1.10304     2.88789
    6          C(HETATM    6  C4  HET A   3)          -0.478300        4.4783     1.05601     3.42229
    7          H(HETATM    7 1H1  HET A   3)           0.209176        0.7908     0.79082
    8          H(HETATM    8 2H1  HET A   3)           0.211570        0.7884     0.78843
    9          H(HETATM    9 3H1  HET A   3)           0.208593        0.7914     0.79141
   10          H(HETATM   10 1H3  HET A   3)           0.157806        0.8422     0.84219
   11          H(HETATM   11 2H3  HET A   3)           0.152899        0.8471     0.84710
   12          H(HETATM   12 1H4  HET A   3)           0.172955        0.8270     0.82704
   13          H(HETATM   13 2H4  HET A   3)           0.169578        0.8304     0.83042
   14          H(HETATM   14 3H4  HET A   3)           0.182292        0.8177     0.81771
   15          H(HETATM   15 1H   HOH A   5)           0.418364        0.5816     0.58164
   16          O(HETATM   16  O   HOH A   4)          -0.671272        6.6713     1.81453     4.85674
   17          O(HETATM   17  O   HOH A   5)          -0.574583        6.5746     1.85476     4.71983
   18          H(HETATM   18 1H   HOH A   4)           0.442005        0.5580     0.55799
   19          H(HETATM   19 2H   HOH A   5)           0.509786        0.4902     0.49021
   20          H(HETATM   20 2H   HOH A   4)           0.400206        0.5998     0.59979
   21          H(HETATM   21 3H   HOH A   4)           0.399774        0.6002     0.60023
 DIPOLE           X         Y         Z       TOTAL
 POINT-CHG.     0.631     2.525     0.688     2.692
 HYBRID         0.362     0.389     0.507     0.735
 SUM            0.993     2.914     1.195     3.302


          ATOMIC ORBITAL ELECTRON POPULATIONS

                   Atom                  s        px        py        pz   
   C(HETATM    1  C1  HET A   3)   1.06284   1.04475   1.23566   1.17467
   C(HETATM    2  C2  HET A   3)   1.10837   0.79493   0.68946   0.68826
   O(HETATM    3  O1  HET A   3)   1.84847   1.61679   1.40065   1.80255
   O(HETATM    4  O2  HET A   3)   1.87791   1.37010   1.48264   1.72188
   C(HETATM    5  C3  HET A   3)   1.10304   0.69884   1.04683   1.14222
   C(HETATM    6  C4  HET A   3)   1.05601   1.17741   1.05119   1.19369
   H(HETATM    7 1H1  HET A   3)   0.79082
   H(HETATM    8 2H1  HET A   3)   0.78843
   H(HETATM    9 3H1  HET A   3)   0.79141
   H(HETATM   10 1H3  HET A   3)   0.84219
   H(HETATM   11 2H3  HET A   3)   0.84710
   H(HETATM   12 1H4  HET A   3)   0.82704
   H(HETATM   13 2H4  HET A   3)   0.83042
   H(HETATM   14 3H4  HET A   3)   0.81771
   H(HETATM   15 1H   HOH A   5)   0.58164
   O(HETATM   16  O   HOH A   4)   1.81453   1.67689   1.60379   1.57606
   O(HETATM   17  O   HOH A   5)   1.85476   1.73135   1.59140   1.39707
   H(HETATM   18 1H   HOH A   4)   0.55799
   H(HETATM   19 2H   HOH A   5)   0.49021
   H(HETATM   20 2H   HOH A   4)   0.59979
   H(HETATM   21 3H   HOH A   4)   0.60023
 *******************************************************************************
 ** Site#: 10005        For non-commercial use only     Version 15.309W 64BITS**
 *******************************************************************************
 ** Cite this work as:                                                        **
 **                                                                           **
 ** (a) MOPAC2012, James J. P. Stewart, Stewart Computational Chemistry,      **
 **  Version 15.309W web: HTTP://OpenMOPAC.net         Days remaining: 365    **
 **                                                                           **
 **                                 AND                                       **
 **                                                                           **
 ** (b) Maia, J.D.C., et al., J. Chem. Theory Comput. 2012, 8, 3072-3081.     **
 **                DOI: 10.1021/ct3004645.                                    **
 *******************************************************************************
 **                                                                           **
 **                                MOPAC2012                                  **
 **                                                                           **
 *******************************************************************************

                              PM7 CALCULATION RESULTS


 *******************************************************************************
 *  CALCULATION DONE:                                Thu Nov 05 12:29:48 2015  *
 *
 *
 *
 *                 CHARGE ON SYSTEM =     1
 *
 *
 *
 *  EPS= 78.40 - USE ANDREAS KLAMT'S COSMO IMPLICIT SOLVATION MODEL
 *  OLDGEO     - PREVIOUS GEOMETRY TO BE USED
 *  FORCE      - FORCE CALCULATION SPECIFIED
 *  T=         - A TIME OF 172800.0 SECONDS REQUESTED
 *  DUMP=N     - RESTART FILE WRITTEN EVERY  7200.000 SECONDS
 *******************************************************************************
Oldgeo FORCE charge=1 EPS=78.4

   ATOM                 CHEMICAL                   X               Y               Z
  NUMBER                 SYMBOL               (ANGSTROMS)     (ANGSTROMS)     (ANGSTROMS)
 
     1       C(HETATM    1  C1  HET A   3)   -0.08303523      0.07036897      0.05137285   
     2       C(HETATM    2  C2  HET A   3)    1.21514329  *   0.12748645  *   0.78238769  *
     3       O(HETATM    3  O1  HET A   3)    1.96650194      1.22109428      0.82382088   
     4       O(HETATM    4  O2  HET A   3)    2.02294270  *  -1.05661886  *   0.46282658  *
     5       C(HETATM    5  C3  HET A   3)    3.44859705     -0.87053280      0.22667442   
     6       C(HETATM    6  C4  HET A   3)    3.91793330     -2.25401270     -0.16633393   
     7       H(HETATM    7 1H1  HET A   3)    0.03899803     -0.13964579     -1.02633299   
     8       H(HETATM    8 2H1  HET A   3)   -0.73662044     -0.72860532      0.45346557   
     9       H(HETATM    9 3H1  HET A   3)   -0.64400379      1.01890153      0.13615096   
    10       H(HETATM   10 1H3  HET A   3)    3.55999802     -0.12282300     -0.57914723   
    11       H(HETATM   11 2H3  HET A   3)    3.90616197     -0.48773757      1.15576565   
    12       H(HETATM   12 1H4  HET A   3)    3.64815899     -3.00990650      0.58609093   
    13       H(HETATM   13 2H4  HET A   3)    3.48875879     -2.58071860     -1.12424305   
    14       H(HETATM   14 3H4  HET A   3)    5.01361307     -2.27618485     -0.27235846   
    15       H(HETATM   15  H   HOH A   5)    1.46166108      0.12582177      2.86489531   
    16       O(HETATM   16  O   HOH A   4)    0.99967974  *   3.16111435  *  -0.44720545  *
    17       O(HETATM   17  O   HOH A   5)    0.99844339  *  -0.39523868  *   2.14064832  *
    18       H(HETATM   18  H1  HET A   3)    1.55405681  *   2.07520713  *   0.27754080  *
    19       H(HETATM   19 2H   HOH A   5)    1.79290429  *  -1.42080542  *   1.73259123  *
    20       H(HETATM   20 1H   HOH A   4)    1.02119737      3.90165674      0.19965403   
    21       H(HETATM   21 2H   HOH A   4)    1.71740601      3.39151269     -1.07881566   
 

 General Reference for PM7:
 "Optimization of Parameters for Semiempirical Methods VI: More Modifications to the 
 NDDO Approximations and Re-optimization of Parameters", J. J. P. Stewart, J. Mol. Mod., 1:32, 19 (2013)
 http://www.springerlink.com/openurl.asp?genre=article&id=doi:10.1007/s00894-012-1667-x

           Empirical Formula: C4 H13 O4  =    21 atoms



      MOLECULAR POINT GROUP   :   C1  


      RHF CALCULATION, NO. OF DOUBLY OCCUPIED LEVELS =   26



          HEAT OF FORMATION =    -104.178440 KCALS/MOLE


          CARTESIAN COORDINATE DERIVATIVES

   NUMBER  ATOM         X            Y            Z

     1       C     -0.159850     0.528282     0.331346
     2       C      0.045310    -0.016395     0.007746
     3       O     -0.197656     2.826705    -0.506541
     4       O     -0.083651     0.018255    -0.090242
     5       C      0.113112     0.719887    -1.085961
     6       C     -0.370193    -0.156104    -0.455343
     7       H     -1.429909    -0.520918     0.319613
     8       H      1.665032    -0.580840     0.198873
     9       H     -0.003935    -0.072647    -0.120322
    10       H      1.412777     0.070535    -0.973101
    11       H     -0.237357    -0.376163     0.445478
    12       H     -0.260102     0.109794     0.094733
    13       H     -0.057525    -0.098570    -0.307082
    14       H     -0.189590     0.017338     0.206041
    15       H     -1.100471    -0.435636     1.568448
    16       O      0.128261     0.000972     0.046599
    17       O      0.000023    -0.040835     0.211774
    18       H      0.011432    -0.044461    -0.012565
    19       H      0.211512    -0.067391     0.111785
    20       H      0.233232    -0.915479     0.253305
    21       H      0.269909    -0.965950    -0.244274
 


          GRADIENT NORM =   5.10054


          TIME FOR SCF CALCULATION =    0.02

          TIME FOR DERIVATIVES     =    0.02

          MOLECULAR WEIGHT =  125.14



          ROTATIONAL CONSTANTS IN CM(-1)

          A =    0.08580313   B =    0.03568868   C =    0.03044256



           PRINCIPAL MOMENTS OF INERTIA IN UNITS OF 10**(-40)*GRAM-CM**2

          A =      326.2442   B =      784.3601   C =      919.5276


          ORIENTATION OF MOLECULE IN FORCE CALCULATION

    NO.       ATOM         X         Y         Z

     1          C      -1.8478   -0.1114    0.5239
     2          C      -0.3568   -0.1114    0.5239
     3          O       0.3596    1.0061    0.5239
     4          O       0.1445   -1.0603   -0.4787
     5          C       1.2772   -0.6546   -1.3005
     6          C       1.4401   -1.8119   -2.2611
     7          H      -2.2780    0.0009   -0.4875
     8          H      -2.2503   -1.0597    0.9312
     9          H      -2.2583    0.7059    1.1443
    10          H       1.0077    0.2949   -1.7973
    11          H       2.1458   -0.4947   -0.6379
    12          H       1.5452   -2.7724   -1.7351
    13          H       0.5843   -1.9070   -2.9445
    14          H       2.3413   -1.6786   -2.8795
    15          H       0.8788   -0.6622    2.1262
    16          O      -1.0311    3.0989    0.5130
    17          O       0.1004   -1.0114    1.5944
    18          H      -0.2346    1.9253    0.5237
    19          H       0.5528   -1.7860    0.5722
    20          H      -0.6668    3.6285    1.2574
    21          H      -0.7070    3.5758   -0.2837


    FIRST DERIVATIVES WILL BE USED IN THE CALCULATION OF SECOND DERIVATIVES

          ESTIMATED TIME TO COMPLETE CALCULATION =        3.94 SECONDS

    FOR POINT-GROUP C1   THERE ARE   1 UNIQUE SYMMETRY FUNCTIONS.

 STEP:   1 TIME =     0.03 SECS, INTEGRAL =      0.03 TIME LEFT: 172799.94
 STEP:   2 TIME =     0.03 SECS, INTEGRAL =      0.06 TIME LEFT: 172799.91
 STEP:   3 TIME =     0.03 SECS, INTEGRAL =      0.09 TIME LEFT: 172799.88
 STEP:   4 TIME =     0.02 SECS, INTEGRAL =      0.11 TIME LEFT: 172799.86
 STEP:   5 TIME =     0.03 SECS, INTEGRAL =      0.14 TIME LEFT: 172799.83
 STEP:   6 TIME =     0.03 SECS, INTEGRAL =      0.17 TIME LEFT: 172799.80
 STEP:   7 TIME =     0.03 SECS, INTEGRAL =      0.20 TIME LEFT: 172799.77
 STEP:   8 TIME =     0.03 SECS, INTEGRAL =      0.23 TIME LEFT: 172799.73
 STEP:   9 TIME =     0.03 SECS, INTEGRAL =      0.27 TIME LEFT: 172799.70
 STEP:  10 TIME =     0.03 SECS, INTEGRAL =      0.30 TIME LEFT: 172799.67
 STEP:  11 TIME =     0.03 SECS, INTEGRAL =      0.33 TIME LEFT: 172799.64
 STEP:  12 TIME =     0.05 SECS, INTEGRAL =      0.38 TIME LEFT: 172799.59
 STEP:  13 TIME =     0.03 SECS, INTEGRAL =      0.41 TIME LEFT: 172799.56
 STEP:  14 TIME =     0.03 SECS, INTEGRAL =      0.44 TIME LEFT: 172799.53
 STEP:  15 TIME =     0.03 SECS, INTEGRAL =      0.47 TIME LEFT: 172799.50
 STEP:  16 TIME =     0.03 SECS, INTEGRAL =      0.50 TIME LEFT: 172799.47
 STEP:  17 TIME =     0.02 SECS, INTEGRAL =      0.52 TIME LEFT: 172799.45
 STEP:  18 TIME =     0.03 SECS, INTEGRAL =      0.55 TIME LEFT: 172799.42
 STEP:  19 TIME =     0.03 SECS, INTEGRAL =      0.58 TIME LEFT: 172799.39
 STEP:  20 TIME =     0.02 SECS, INTEGRAL =      0.59 TIME LEFT: 172799.38
 STEP:  21 TIME =     0.03 SECS, INTEGRAL =      0.62 TIME LEFT: 172799.34
 STEP:  22 TIME =     0.03 SECS, INTEGRAL =      0.66 TIME LEFT: 172799.31
 STEP:  23 TIME =     0.03 SECS, INTEGRAL =      0.69 TIME LEFT: 172799.28
 STEP:  24 TIME =     0.02 SECS, INTEGRAL =      0.70 TIME LEFT: 172799.27
 STEP:  25 TIME =     0.03 SECS, INTEGRAL =      0.73 TIME LEFT: 172799.23
 STEP:  26 TIME =     0.03 SECS, INTEGRAL =      0.77 TIME LEFT: 172799.20
 STEP:  27 TIME =     0.03 SECS, INTEGRAL =      0.80 TIME LEFT: 172799.17
 STEP:  28 TIME =     0.03 SECS, INTEGRAL =      0.83 TIME LEFT: 172799.14
 STEP:  29 TIME =     0.02 SECS, INTEGRAL =      0.84 TIME LEFT: 172799.12
 STEP:  30 TIME =     0.03 SECS, INTEGRAL =      0.88 TIME LEFT: 172799.09
 STEP:  31 TIME =     0.03 SECS, INTEGRAL =      0.91 TIME LEFT: 172799.06
 STEP:  32 TIME =     0.03 SECS, INTEGRAL =      0.94 TIME LEFT: 172799.03
 STEP:  33 TIME =     0.01 SECS, INTEGRAL =      0.95 TIME LEFT: 172799.02
 STEP:  34 TIME =     0.04 SECS, INTEGRAL =      0.98 TIME LEFT: 172798.98
 STEP:  35 TIME =     0.03 SECS, INTEGRAL =      1.02 TIME LEFT: 172798.95
 STEP:  36 TIME =     0.01 SECS, INTEGRAL =      1.03 TIME LEFT: 172798.94
 STEP:  37 TIME =     0.04 SECS, INTEGRAL =      1.06 TIME LEFT: 172798.91
 STEP:  38 TIME =     0.03 SECS, INTEGRAL =      1.09 TIME LEFT: 172798.88
 STEP:  39 TIME =     0.01 SECS, INTEGRAL =      1.11 TIME LEFT: 172798.86
 STEP:  40 TIME =     0.04 SECS, INTEGRAL =      1.14 TIME LEFT: 172798.83
 STEP:  41 TIME =     0.03 SECS, INTEGRAL =      1.17 TIME LEFT: 172798.80
 STEP:  42 TIME =     0.01 SECS, INTEGRAL =      1.18 TIME LEFT: 172798.79
 STEP:  43 TIME =     0.04 SECS, INTEGRAL =      1.22 TIME LEFT: 172798.75
 STEP:  44 TIME =     0.03 SECS, INTEGRAL =      1.25 TIME LEFT: 172798.72
 STEP:  45 TIME =     0.03 SECS, INTEGRAL =      1.28 TIME LEFT: 172798.69
 STEP:  46 TIME =     0.02 SECS, INTEGRAL =      1.30 TIME LEFT: 172798.67
 STEP:  47 TIME =     0.03 SECS, INTEGRAL =      1.32 TIME LEFT: 172798.64
 STEP:  48 TIME =     0.03 SECS, INTEGRAL =      1.36 TIME LEFT: 172798.61
 STEP:  49 TIME =     0.03 SECS, INTEGRAL =      1.39 TIME LEFT: 172798.58
 STEP:  50 TIME =     0.02 SECS, INTEGRAL =      1.40 TIME LEFT: 172798.57
 STEP:  51 TIME =     0.03 SECS, INTEGRAL =      1.43 TIME LEFT: 172798.54
 STEP:  52 TIME =     0.03 SECS, INTEGRAL =      1.46 TIME LEFT: 172798.50
 STEP:  53 TIME =     0.02 SECS, INTEGRAL =      1.48 TIME LEFT: 172798.49
 STEP:  54 TIME =     0.03 SECS, INTEGRAL =      1.51 TIME LEFT: 172798.46
 STEP:  55 TIME =     0.03 SECS, INTEGRAL =      1.54 TIME LEFT: 172798.43
 STEP:  56 TIME =     0.02 SECS, INTEGRAL =      1.56 TIME LEFT: 172798.41
 STEP:  57 TIME =     0.03 SECS, INTEGRAL =      1.59 TIME LEFT: 172798.38
 STEP:  58 TIME =     0.03 SECS, INTEGRAL =      1.62 TIME LEFT: 172798.35
 STEP:  59 TIME =     0.03 SECS, INTEGRAL =      1.65 TIME LEFT: 172798.32
 STEP:  60 TIME =     0.03 SECS, INTEGRAL =      1.68 TIME LEFT: 172798.29
 STEP:  61 TIME =     0.02 SECS, INTEGRAL =      1.70 TIME LEFT: 172798.27
 STEP:  62 TIME =     0.03 SECS, INTEGRAL =      1.73 TIME LEFT: 172798.24
 STEP:  63 TIME =     0.03 SECS, INTEGRAL =      1.76 TIME LEFT: 172798.21

(To convert to Hartree/Bohr^2, multiply by (10^(-21) x N x a0^2)/(4.184 x 627.51) =  0.0642)


           FORCE MATRIX IN MILLIDYNES/ANGSTROM


                  C  1       C  2       O  3       O  4       C  5       C  6
 ------------------------------------------------------------------------------
     C    1  11.253847
     C    2   3.341084  13.997525
     O    3   0.840560   5.794949   9.243071
     O    4   0.815368   2.486999   1.292325   8.587415
     C    5   0.121693   0.913344   0.133613   3.083374  11.585879
     C    6   0.059273   0.224614   0.072790   1.126439   3.309968  11.308495
     H    7   3.285055   0.752574   0.042372   0.029360   0.021417   0.010421
     H    8   3.257146   0.782474   0.057489   0.028865   0.020424   0.009520
     H    9   3.270599   0.782610   0.044824   0.049634   0.017455   0.007164
     H   10   0.012639   0.084160   0.029848   0.679268   3.305900   0.646440
     H   11   0.012811   0.074373   0.015570   0.672453   3.309886   0.630178
     H   12   0.007515   0.031311   0.011918   0.021795   0.697756   3.364479
     H   13   0.007029   0.028663   0.011549   0.019786   0.704610   3.375925
     H   14   0.006002   0.027423   0.010051   0.067686   0.697767   3.328659
     H   15   0.094259   0.893397   0.126329   0.190423   0.073458   0.028516
     O   16   0.066431   0.444633   1.485176   0.086461   0.037449   0.020701
     O   17   0.889660   2.343704   1.333197   2.529618   0.267862   0.107669
     H   18   0.073704   1.558243   1.790669   0.211990   0.082650   0.045687
     H   19   0.153964   1.837539   0.123409   1.241862   0.500963   0.074081
     H   20   0.014293   0.071181   0.124717   0.013652   0.006220   0.003266
     H   21   0.015064   0.073050   0.129406   0.015272   0.006445   0.003365


                  H  7       H  8       H  9       H 10       H 11       H 12
 ------------------------------------------------------------------------------
     H    7   4.088023
     H    8   0.441827   4.079824
     H    9   0.438375   0.434474   4.076695
     H   10   0.002479   0.001959   0.001986   4.139021
     H   11   0.002730   0.002070   0.001367   0.434932   4.129857
     H   12   0.001478   0.001809   0.000774   0.046105   0.028616   4.159621
     H   13   0.001878   0.001520   0.000927   0.019134   0.047423   0.446015
     H   14   0.001362   0.000788   0.001015   0.016567   0.022442   0.451323
     H   15   0.016050   0.016707   0.012873   0.008732   0.009572   0.004448
     O   16   0.017293   0.010417   0.019202   0.009736   0.006846   0.002944
     O   17   0.053211   0.018852   0.034315   0.032344   0.035170   0.016295
     H   18   0.028945   0.020497   0.045765   0.020239   0.014077   0.006684
     H   19   0.027891   0.019636   0.018076   0.064406   0.050366   0.024810
     H   20   0.003949   0.001686   0.006382   0.001731   0.001781   0.000648
     H   21   0.004687   0.001508   0.006498   0.003611   0.001081   0.000505


                  H 13       H 14       H 15       O 16       O 17       H 18
 ------------------------------------------------------------------------------
     H   13   4.170170
     H   14   0.442350   4.140200
     H   15   0.003418   0.003093   4.056115
     O   16   0.003271   0.002381   0.035184   6.182098
     O   17   0.014182   0.011346   3.517769   0.101439   7.308430
     H   18   0.007105   0.004879   0.080256   0.644252   0.245773   2.067838
     H   19   0.018047   0.014160   0.310480   0.031284   1.225692   0.078115
     H   20   0.000412   0.000605   0.005714   3.704454   0.016986   0.323028
     H   21   0.000647   0.000969   0.005598   3.698883   0.016579   0.333776


                  H 19       H 20       H 21
 ------------------------------------------
     H   19   2.594293
     H   20   0.004562   4.158486
     H   21   0.004577   0.726896   4.154418


          HEAT OF FORMATION =    -104.178440 KCALS/MOLE

          ZERO POINT ENERGY      96.445 KCAL/MOL

         NOTE: SYSTEM IS NOT A GROUND STATE, THEREFORE ZERO POINT
         ENERGY IS NOT MEANINGFULL. ZERO POINT ENERGY PRINTED
         DOES NOT INCLUDE THE  4 IMAGINARY FREQUENCIES


           NORMAL COORDINATE ANALYSIS (Total motion = 1 Angstrom)


   Root No.       1         2         3         4         5         6         7         8

                 1 A       2 A       3 A       4 A       5 A       6 A       7 A       8 A   

               -1254.6     -68.6     -52.1     -43.8      36.7      84.6      98.3     156.6
  
           1    0.0003    0.0007    0.0006   -0.0042    0.0015   -0.0161   -0.0073    0.0074
           2    0.0006    0.0184    0.0060   -0.0009   -0.0034   -0.0522   -0.0128   -0.0149
           3    0.0050    0.0005   -0.0140    0.0095   -0.0213   -0.0064    0.0285   -0.0388
           4    0.0005    0.0012    0.0005   -0.0042    0.0016   -0.0166   -0.0072    0.0073
           5    0.0008    0.0020    0.0066   -0.0004    0.0065   -0.0164   -0.0015    0.0000
           6   -0.0634   -0.0039   -0.0119   -0.0025   -0.0156   -0.0027   -0.0016    0.0076
           7   -0.0002    0.0092    0.0009   -0.0041   -0.0053   -0.0365   -0.0131    0.0010
           8    0.0003   -0.0017    0.0064   -0.0006    0.0106   -0.0048    0.0011    0.0041
           9    0.0028   -0.0008   -0.0192   -0.0005   -0.0387   -0.0180   -0.0087    0.0361
          10   -0.0084   -0.0054   -0.0005   -0.0116    0.0109    0.0105   -0.0186    0.0276
          11    0.0288    0.0041    0.0003    0.0066   -0.0118   -0.0194    0.0069    0.0076
          12   -0.0073   -0.0081   -0.0054   -0.0122    0.0066    0.0131   -0.0177    0.0141
          13   -0.0120   -0.0006    0.0001   -0.0193    0.0134   -0.0032   -0.0077   -0.0211
          14    0.0003    0.0010   -0.0075    0.0140   -0.0241    0.0055    0.0061    0.0199
          15    0.0085   -0.0037   -0.0087   -0.0193    0.0034    0.0057   -0.0039   -0.0407
          16   -0.0003    0.0091    0.0116    0.0250   -0.0081    0.0045    0.0252   -0.0203
          17   -0.0007   -0.0065   -0.0275   -0.0192   -0.0216    0.0202   -0.0083   -0.0193
          18    0.0003    0.0072    0.0173    0.0279   -0.0031   -0.0103    0.0192    0.0046
          19   -0.0051   -0.0042    0.0034   -0.0122    0.0049   -0.0175   -0.0298    0.0400
          20   -0.0022   -0.1959    0.0762    0.0121   -0.0271   -0.1222   -0.0174   -0.0371
          21    0.0041   -0.0217   -0.0073    0.0144   -0.0253   -0.0139    0.0376   -0.0554
          22    0.0034   -0.0110    0.0010   -0.0003    0.0062    0.0062    0.0084    0.0052
          23   -0.0005    0.1126   -0.0227   -0.0065    0.0024   -0.0392   -0.0154   -0.0138
          24    0.0028    0.2076   -0.0805    0.0004   -0.0033    0.0474    0.0387   -0.0383
          25    0.0031    0.0098   -0.0004    0.0006   -0.0065   -0.0391   -0.0005   -0.0234
          26   -0.0007    0.1580   -0.0371   -0.0095    0.0068   -0.0273   -0.0157   -0.0096
          27    0.0045   -0.1768    0.0420    0.0239   -0.0400   -0.0550    0.0367   -0.0670
          28    0.0243   -0.0020   -0.0074   -0.0550    0.0286   -0.0207   -0.0073   -0.0778
          29    0.0003   -0.0042   -0.0205   -0.0159   -0.0168    0.0072   -0.0041   -0.0111
          30   -0.0091   -0.0130   -0.0293   -0.0570    0.0089    0.0180   -0.0231   -0.0680
          31   -0.0110   -0.0053   -0.0039   -0.0291    0.0183   -0.0000   -0.0202   -0.0016
          32   -0.0127    0.0100    0.0142    0.0737   -0.0424    0.0109    0.0244    0.0794
          33    0.0064    0.0003   -0.0089   -0.0215    0.0017   -0.0001    0.0095   -0.0809
          34   -0.0069    0.0272    0.0493    0.1454   -0.0590    0.0595   -0.1395   -0.0899
          35    0.0030    0.0006   -0.0105    0.0179   -0.0306    0.0191   -0.0184   -0.0046
          36    0.0041    0.0168    0.0416    0.0727   -0.0093   -0.0237    0.0333    0.0467
          37    0.0006    0.0053   -0.0002   -0.0091    0.0050   -0.0163    0.1124    0.0089
          38   -0.0005   -0.0250   -0.0663   -0.1245    0.0156   -0.0031    0.0622   -0.0099
          39    0.0026    0.0144    0.0375    0.0853   -0.0245    0.0190   -0.1001   -0.0329
          40   -0.0006    0.0027   -0.0045   -0.0243    0.0122   -0.0223    0.1223    0.0159
          41    0.0032   -0.0003   -0.0201    0.0284   -0.0510    0.0600   -0.0913   -0.0827
          42    0.0059   -0.0008   -0.0044   -0.0335    0.0202   -0.0412    0.1437    0.0451
          43    0.0320    0.0018   -0.0018    0.0068   -0.0002   -0.0076    0.0248   -0.0234
          44   -0.0163   -0.0118    0.0135   -0.0099    0.0450    0.0382   -0.0102    0.0105
          45    0.0070   -0.0088   -0.0074   -0.0138   -0.0004    0.0095   -0.0282    0.0324
          46   -0.0002   -0.0084   -0.0080    0.0097   -0.0134    0.0412    0.0092    0.0012
          47    0.0003   -0.0111    0.0018    0.0078    0.0055    0.0465    0.0153    0.0048
          48    0.0001    0.0177    0.0522    0.0007    0.0403    0.0073    0.0033    0.0014
          49    0.0141   -0.0024   -0.0019    0.0045    0.0023    0.0030    0.0149   -0.0037
          50   -0.0311   -0.0042    0.0121   -0.0077    0.0315    0.0100   -0.0064   -0.0028
          51   -0.0061   -0.0077   -0.0059   -0.0120    0.0057    0.0127   -0.0155    0.0104
          52    0.0006    0.0130    0.0004   -0.0023   -0.0108   -0.0315   -0.0125   -0.0016
          53   -0.0020   -0.0016    0.0055    0.0007    0.0078   -0.0041    0.0022    0.0015
          54    0.0178    0.0069    0.0104    0.0007   -0.0076   -0.0076   -0.0038    0.0228
          55    0.0112   -0.0104   -0.0023   -0.0011    0.0082    0.0288   -0.0112    0.0463
          56    0.0427   -0.0042    0.0052    0.0004    0.0112    0.0088   -0.0047    0.0209
          57    0.7098   -0.0120   -0.0017   -0.0196    0.0213    0.0248   -0.0298    0.0159
          58   -0.0012    0.0224    0.1359   -0.0613   -0.0988    0.1203    0.0290   -0.0050
          59    0.0009    0.0163    0.0763   -0.0465   -0.0793    0.0438    0.0107    0.0131
          60   -0.0002   -0.0174   -0.0719    0.0744    0.1426   -0.0290   -0.0029   -0.0016
          61    0.0009   -0.0619   -0.1711    0.0977    0.0777    0.0238    0.0075    0.0107
          62   -0.0010   -0.0283   -0.0741    0.0591    0.0977    0.0047    0.0074   -0.0059
          63    0.0002   -0.0140   -0.0593    0.0670    0.1322   -0.0248   -0.0023   -0.0012


   Root No.       9        10        11        12        13        14        15        16

                 9 A      10 A      11 A      12 A      13 A      14 A      15 A      16 A   

                 178.9     295.8     319.0     347.3     387.9     445.8     478.3     558.8
  
           1    0.0025    0.0091    0.0064    0.0095    0.0246   -0.0046    0.0262   -0.0325
           2   -0.0259    0.0370    0.0005    0.0204   -0.0410   -0.0015    0.0069    0.0023
           3    0.0022    0.0163   -0.0478   -0.0222    0.0003    0.0019   -0.0050   -0.0036
           4    0.0041    0.0077    0.0046    0.0063    0.0240   -0.0047    0.0250   -0.0262
           5    0.0084   -0.0195    0.0030   -0.0320    0.0139   -0.0065    0.0223   -0.0047
           6    0.0008    0.0047    0.0139    0.0037    0.0059   -0.0113    0.0270    0.0418
           7   -0.0176   -0.0118    0.0035   -0.0024    0.0557    0.0096   -0.0371    0.0038
           8    0.0205    0.0011    0.0046   -0.0169    0.0043   -0.0103    0.0426   -0.0256
           9    0.0344    0.0143    0.0318   -0.0337   -0.0216   -0.0121   -0.0354   -0.0264
          10    0.0025    0.0162   -0.0498    0.0054   -0.0199    0.0002    0.0010    0.0000
          11    0.0326   -0.0302   -0.0149   -0.0124    0.0029   -0.0071    0.0138    0.0466
          12   -0.0220    0.0108   -0.0042    0.0048    0.0024   -0.0032    0.0173    0.0047
          13    0.0412   -0.0047   -0.0358    0.0044   -0.0202    0.0039   -0.0135    0.0153
          14   -0.0209   -0.0280   -0.0257    0.0335   -0.0009    0.0042   -0.0100   -0.0016
          15    0.0073   -0.0200    0.0211    0.0253    0.0078    0.0006    0.0026   -0.0197
          16   -0.0244    0.0293    0.0137   -0.0354   -0.0004   -0.0031    0.0052    0.0125
          17   -0.0310   -0.0121    0.0050    0.0175    0.0081    0.0020   -0.0017   -0.0115
          18    0.0050   -0.0350   -0.0055    0.0437    0.0038    0.0042   -0.0067   -0.0186
          19   -0.0021    0.0030    0.0634    0.0420    0.0233   -0.0168    0.0677    0.0276
          20   -0.0497    0.0644   -0.0030    0.0456   -0.0765    0.0016   -0.0018    0.0139
          21    0.0016    0.0220   -0.0749   -0.0350   -0.0030    0.0077   -0.0249   -0.0311
          22    0.0267   -0.0330   -0.0117   -0.0433    0.0749   -0.0025    0.0202   -0.0666
          23   -0.0315    0.0566   -0.0021    0.0383   -0.0662   -0.0010    0.0051    0.0064
          24    0.0140    0.0178   -0.0740   -0.0380    0.0008    0.0062   -0.0190   -0.0347
          25   -0.0166    0.0536   -0.0344    0.0267   -0.0235    0.0041   -0.0048   -0.0604
          26   -0.0293    0.0543    0.0009    0.0382   -0.0644   -0.0018    0.0065    0.0084
          27   -0.0068    0.0263   -0.0775   -0.0329   -0.0054    0.0085   -0.0278   -0.0312
          28    0.1100   -0.0343   -0.0207   -0.0029   -0.0245    0.0025   -0.0223    0.0408
          29    0.0002   -0.0342   -0.0165    0.0344   -0.0018    0.0050   -0.0136   -0.0023
          30    0.0123   -0.0173    0.0273    0.0319    0.0055    0.0032   -0.0022   -0.0314
          31    0.0395    0.0019   -0.0493    0.0039   -0.0233    0.0018   -0.0064    0.0178
          32   -0.0827   -0.0081   -0.0332    0.0343    0.0055    0.0032    0.0002   -0.0213
          33    0.0236   -0.0325    0.0432    0.0243    0.0112    0.0034   -0.0086   -0.0189
          34   -0.0041    0.0389    0.0351   -0.0565    0.0063   -0.0065    0.0131    0.0169
          35   -0.0275   -0.0208   -0.0082    0.0264    0.0054    0.0032   -0.0064   -0.0099
          36    0.0086   -0.0557   -0.0367    0.0690   -0.0032    0.0080   -0.0194   -0.0195
          37   -0.0642    0.0461    0.0316   -0.0529    0.0082   -0.0061    0.0149    0.0165
          38   -0.0245   -0.0163   -0.0009    0.0272    0.0028    0.0038   -0.0046   -0.0152
          39    0.0543   -0.0554   -0.0271    0.0634   -0.0063    0.0073   -0.0177   -0.0216
          40   -0.0562    0.0379    0.0209   -0.0414    0.0042   -0.0042    0.0094    0.0135
          41   -0.0463    0.0196    0.0567   -0.0285    0.0245   -0.0065    0.0218   -0.0066
          42   -0.0443   -0.0176    0.0146    0.0278    0.0133    0.0010    0.0035   -0.0178
          43    0.0219   -0.0183    0.0944    0.0254   -0.0181   -0.0088    0.0403    0.0815
          44   -0.0375   -0.0225    0.0206   -0.0294   -0.0789    0.0262   -0.1294   -0.0252
          45   -0.0252    0.0235   -0.0582   -0.0101    0.0207   -0.0007   -0.0106   -0.0482
          46   -0.0137   -0.0315   -0.0036   -0.0147   -0.0151   -0.0029    0.0045    0.0093
          47    0.0325    0.0590    0.0070    0.0267    0.0310    0.0077   -0.0182    0.0010
          48   -0.0017    0.0005    0.0013   -0.0024   -0.0018    0.0139    0.0028   -0.0005
          49    0.0117   -0.0067    0.0530    0.0290   -0.0359    0.0012   -0.0090    0.0123
          50   -0.0165   -0.0230    0.0153   -0.0375   -0.0121    0.0085   -0.0374   -0.0143
          51   -0.0226    0.0039    0.0003   -0.0102    0.0058   -0.0028    0.0098    0.0380
          52   -0.0290   -0.0179    0.0003   -0.0004    0.0685    0.0260   -0.1009    0.0568
          53    0.0137   -0.0201    0.0038   -0.0367   -0.0051   -0.0150    0.0490   -0.0092
          54    0.0202    0.0060    0.0190   -0.0246   -0.0138    0.1856    0.0260   -0.0064
          55   -0.0226    0.0207   -0.0339    0.0278   -0.0665    0.0102   -0.0559   -0.0153
          56   -0.0086   -0.0183   -0.0198   -0.0273   -0.0327    0.0034   -0.0334    0.0175
          57   -0.0432    0.0179   -0.0004   -0.0213    0.0029   -0.0070   -0.0010    0.0108
          58   -0.0126   -0.0290   -0.0154    0.0020   -0.0550   -0.2117    0.0458   -0.0867
          59    0.0361    0.0534    0.0183    0.0047    0.0458    0.2383   -0.0142    0.0550
          60   -0.0049   -0.0016   -0.0013    0.0009    0.0006   -0.0546   -0.0088    0.0002
          61    0.0021   -0.0251    0.0043   -0.0242   -0.0648    0.1843    0.1136   -0.0774
          62    0.0175    0.0521   -0.0021    0.0380    0.0659   -0.2201   -0.1020    0.0512
          63   -0.0041    0.0035   -0.0008    0.0048    0.0050   -0.0467   -0.0148    0.0009


   Root No.      17        18        19        20        21        22        23        24

                17 A      18 A      19 A      20 A      21 A      22 A      23 A      24 A   

                 584.9     602.9     663.9     850.9     864.0     872.3     961.5     968.2
  
           1   -0.0040    0.0093    0.0468    0.0216   -0.0105    0.0008   -0.0005   -0.0176
           2    0.0006   -0.0031   -0.0033   -0.0137    0.0062   -0.0028   -0.0054   -0.0197
           3   -0.0002   -0.0009   -0.0013   -0.0043   -0.0086    0.0282    0.0047   -0.0075
           4   -0.0030    0.0077    0.0295    0.0077   -0.0032    0.0021    0.0039    0.0125
           5    0.0128   -0.0254   -0.0294   -0.0304    0.0131   -0.0047   -0.0060   -0.0176
           6    0.0226    0.0120   -0.0076   -0.0043   -0.0187    0.0513   -0.0027   -0.0047
           7    0.0007    0.0163   -0.0374   -0.0102    0.0040   -0.0017   -0.0023    0.0052
           8    0.0096   -0.0189    0.0002   -0.0193    0.0066   -0.0015    0.0000    0.0128
           9   -0.0137   -0.0057    0.0035   -0.0017    0.0008   -0.0010   -0.0091    0.0022
          10   -0.0151   -0.0237   -0.0258    0.0147   -0.0148    0.0042   -0.0076   -0.0229
          11    0.0123    0.0227   -0.0026    0.0490   -0.0051   -0.0190    0.0029    0.0102
          12    0.0045   -0.0233   -0.0386    0.0123   -0.0069   -0.0243    0.0151    0.0387
          13   -0.0104    0.0098    0.0083   -0.0199    0.0294    0.0132    0.0078    0.0199
          14   -0.0128    0.0066    0.0121   -0.0195   -0.0076    0.0019    0.0001    0.0007
          15    0.0075   -0.0141   -0.0119    0.0265    0.0106    0.0085   -0.0046   -0.0116
          16    0.0036    0.0037   -0.0011   -0.0085    0.0093    0.0082    0.0042    0.0141
          17   -0.0050   -0.0024    0.0034   -0.0111   -0.0035   -0.0024    0.0027    0.0094
          18   -0.0036   -0.0050    0.0016    0.0136    0.0059   -0.0032   -0.0053   -0.0164
          19    0.0231    0.0298    0.0485    0.0088   -0.0571    0.1496    0.0309   -0.0224
          20   -0.0073    0.0037    0.0179    0.0257   -0.0097    0.0027    0.0123    0.0301
          21   -0.0137   -0.0099    0.0005    0.0070    0.0120   -0.0440   -0.0084    0.0043
          22    0.0009   -0.0170    0.0095   -0.0349    0.0332   -0.0642   -0.0284   -0.0816
          23   -0.0065    0.0061    0.0180    0.0226   -0.0083    0.0003    0.0071    0.0262
          24   -0.0122   -0.0073    0.0056    0.0147    0.0082   -0.0428   -0.0038    0.0112
          25   -0.0328    0.0138    0.0902    0.1008   -0.0135   -0.0757    0.0066    0.0813
          26   -0.0039    0.0047    0.0189    0.0215   -0.0102    0.0063    0.0082    0.0241
          27   -0.0158   -0.0084    0.0020    0.0125    0.0100   -0.0445   -0.0097    0.0080
          28    0.0242    0.0463    0.0339   -0.0457   -0.0895   -0.0343   -0.0194   -0.0472
          29   -0.0042    0.0135    0.0209   -0.0579   -0.0838   -0.0317   -0.0006   -0.0053
          30    0.0063   -0.0171   -0.0057   -0.0546   -0.0950   -0.0386    0.0094    0.0169
          31   -0.0112   -0.0037   -0.0119   -0.0060   -0.0065   -0.0003    0.0039    0.0053
          32   -0.0328   -0.0215   -0.0086    0.0604    0.1646    0.0833    0.0015    0.0048
          33    0.0166    0.0102    0.0184   -0.0128   -0.0055   -0.0064   -0.0023   -0.0008
          34    0.0153    0.0043   -0.0085    0.0148   -0.0414   -0.0353   -0.0031   -0.0154
          35   -0.0125    0.0031    0.0143   -0.0656   -0.0565   -0.0142    0.0110    0.0363
          36   -0.0226    0.0056    0.0272   -0.1149   -0.0968   -0.0203    0.0168    0.0551
          37    0.0127    0.0031   -0.0090    0.0137   -0.0514   -0.0391   -0.0043   -0.0180
          38   -0.0051   -0.0081   -0.0035    0.0459    0.1191    0.0530   -0.0023   -0.0032
          39   -0.0142   -0.0034    0.0118   -0.0259    0.0476    0.0413    0.0056    0.0234
          40    0.0071    0.0038   -0.0039   -0.0057   -0.0372   -0.0227    0.0009   -0.0007
          41    0.0235   -0.0131   -0.0274    0.1221   -0.0071   -0.0390   -0.0334   -0.1073
          42    0.0057   -0.0080   -0.0073    0.0334   -0.0594   -0.0444   -0.0155   -0.0526
          43   -0.2333   -0.0492   -0.0412   -0.0107   -0.0121    0.0005   -0.0157   -0.0347
          44    0.0993    0.0564    0.0297    0.0294    0.0082   -0.0320   -0.0104   -0.0262
          45    0.2560    0.0760    0.0710   -0.0170    0.0280    0.0091    0.0178    0.0565
          46    0.0085   -0.0360    0.0238    0.0018   -0.0013    0.0008    0.0026    0.0030
          47   -0.0060    0.0177   -0.0102   -0.0001    0.0004   -0.0005   -0.0015   -0.0023
          48    0.0006   -0.0003    0.0002    0.0006   -0.0007    0.0014   -0.0179    0.0033
          49    0.0226   -0.0026   -0.0113   -0.0074    0.0114   -0.0128    0.0014    0.0082
          50   -0.0246    0.0111    0.0119    0.0178   -0.0168    0.0260    0.0079    0.0080
          51   -0.0230    0.0322    0.0416   -0.0229    0.0249   -0.0314   -0.0109   -0.0166
          52    0.0117   -0.0238   -0.0425    0.0029   -0.0005   -0.0014    0.0016   -0.0039
          53    0.0199   -0.0669    0.0079   -0.0407    0.0185   -0.0092   -0.0138   -0.0248
          54   -0.0029    0.0081   -0.0064   -0.0101    0.0146   -0.0257    0.4180   -0.0840
          55    0.1532    0.0031   -0.0376   -0.0154   -0.0181   -0.0123   -0.0386   -0.0970
          56    0.0774    0.0178   -0.0086   -0.0278    0.0046   -0.0030   -0.0308   -0.0802
          57   -0.0133    0.0070    0.0043   -0.0212   -0.0224    0.0857   -0.0032    0.0089
          58   -0.0394    0.1862   -0.1149   -0.0113    0.0074   -0.0085    0.0646   -0.0192
          59    0.0246   -0.1171    0.0723    0.0043   -0.0049    0.0078   -0.0926    0.0157
          60    0.0010   -0.0060    0.0037   -0.0009    0.0011   -0.0015    0.0172   -0.0031
          61   -0.0331    0.1715   -0.1051   -0.0057   -0.0002    0.0042   -0.0882    0.0108
          62    0.0177   -0.1070    0.0639   -0.0016    0.0045   -0.0078    0.0995   -0.0219
          63   -0.0013    0.0043   -0.0035    0.0009    0.0003   -0.0009    0.0138   -0.0027


   Root No.      25        26        27        28        29        30        31        32

                25 A      26 A      27 A      28 A      29 A      30 A      31 A      32 A   

                1004.7    1042.8    1065.5    1083.2    1118.5    1137.4    1157.8    1164.3
  
           1    0.0536    0.0132    0.0061    0.0080   -0.0171    0.0018   -0.0108    0.0209
           2    0.0344   -0.0223   -0.0059   -0.0060    0.0202    0.0049    0.0063   -0.0121
           3    0.0023   -0.0006   -0.0294    0.0160   -0.0137   -0.0194    0.0068   -0.0071
           4   -0.0188   -0.0076   -0.0068   -0.0086    0.0184    0.0025    0.0110   -0.0224
           5    0.0059   -0.0018    0.0148    0.0017   -0.0301   -0.0144   -0.0108    0.0177
           6   -0.0039    0.0030    0.0304   -0.0096    0.0263    0.0331   -0.0123    0.0105
           7   -0.0230    0.0078   -0.0043    0.0064    0.0081    0.0033    0.0024   -0.0030
           8   -0.0432    0.0175   -0.0132    0.0118    0.0183    0.0109    0.0026   -0.0012
           9    0.0003   -0.0008   -0.0037   -0.0011   -0.0032   -0.0025    0.0009   -0.0001
          10   -0.0211   -0.0137    0.0174    0.0084    0.0096   -0.0244    0.0073   -0.0123
          11    0.0152   -0.0027    0.0064    0.0091    0.0001   -0.0048    0.0053   -0.0181
          12    0.0384    0.0123   -0.0250   -0.0125   -0.0008   -0.0015    0.0009    0.0129
          13    0.0111   -0.0059   -0.0261   -0.0015   -0.0153    0.0378    0.0071    0.0248
          14   -0.0009    0.0016   -0.0058   -0.0117    0.0145   -0.0110   -0.0166    0.0686
          15   -0.0051   -0.0074    0.0362    0.0272   -0.0025   -0.0022    0.0230    0.0237
          16    0.0168    0.0142    0.0158   -0.0020    0.0097   -0.0210   -0.0243   -0.0153
          17    0.0054   -0.0001   -0.0017    0.0041   -0.0115    0.0105    0.0139   -0.0583
          18   -0.0147    0.0007   -0.0261   -0.0176   -0.0019    0.0040   -0.0273   -0.0355
          19    0.0284    0.0211   -0.1183    0.0653   -0.0826   -0.0724    0.0134   -0.0076
          20   -0.0681    0.0325    0.0180    0.0102   -0.0450   -0.0186   -0.0159    0.0306
          21   -0.0024    0.0000    0.0387   -0.0154    0.0189    0.0205   -0.0073    0.0090
          22    0.1914   -0.0721    0.0208   -0.0406    0.0749    0.0427    0.0033   -0.0103
          23   -0.0545    0.0250    0.0201    0.0032   -0.0177    0.0009   -0.0101    0.0139
          24   -0.0133    0.0077    0.0545   -0.0199    0.0160    0.0308   -0.0180    0.0213
          25   -0.0841    0.0855    0.0990   -0.0229   -0.0452    0.0305   -0.0345    0.0532
          26   -0.0461    0.0263    0.0010    0.0095   -0.0393   -0.0215   -0.0033    0.0118
          27    0.0030   -0.0015    0.0464   -0.0256    0.0345    0.0391   -0.0070   -0.0001
          28   -0.0207    0.0610   -0.0459   -0.1070    0.0589   -0.0613    0.0496    0.0482
          29   -0.0085    0.0036   -0.0035   -0.0167    0.0208   -0.0291   -0.0768    0.0430
          30    0.0016   -0.0338    0.0458    0.0640   -0.0232    0.0089   -0.1335   -0.0128
          31   -0.0122   -0.0571   -0.0073    0.0475   -0.0515    0.0906   -0.1106   -0.0245
          32    0.0042   -0.0060    0.0226    0.0245   -0.0145    0.0372    0.0989    0.0806
          33    0.0186    0.0635    0.0022   -0.0509    0.0550   -0.0939    0.1396    0.0651
          34   -0.0195   -0.0206   -0.0358    0.0005   -0.0165    0.0355    0.0488    0.0308
          35    0.0212   -0.0135    0.0330    0.0396   -0.0249    0.0261    0.0774   -0.0406
          36    0.0330   -0.0182    0.0621    0.0623   -0.0309    0.0275    0.0981   -0.0435
          37   -0.0250   -0.0301   -0.0343    0.0051   -0.0182    0.0421    0.0258    0.0487
          38    0.0144    0.0495   -0.0159   -0.0515    0.0298   -0.0521   -0.0729   -0.0671
          39    0.0318    0.0387    0.0409   -0.0090    0.0217   -0.0542   -0.0594   -0.0904
          40   -0.0059   -0.0154   -0.0034    0.0127   -0.0109    0.0178    0.0270    0.0065
          41   -0.1003   -0.0476   -0.1040   -0.0436   -0.0093    0.0500   -0.0357    0.0641
          42   -0.0581   -0.0446   -0.0460    0.0031   -0.0240    0.0504    0.0359    0.0198
          43   -0.0004    0.0491    0.0120   -0.0312   -0.0105    0.0300    0.0114   -0.0181
          44    0.0457    0.0656   -0.0574    0.2317    0.1182    0.0131   -0.0384    0.0334
          45   -0.0519   -0.1211    0.0300   -0.0874   -0.0383   -0.0471    0.0068   -0.0018
          46   -0.0032    0.0008   -0.0034    0.0001    0.0059    0.0033    0.0017   -0.0029
          47    0.0029   -0.0013    0.0018   -0.0006   -0.0020   -0.0013   -0.0001   -0.0001
          48    0.0009   -0.0003   -0.0008    0.0002   -0.0004   -0.0003   -0.0001    0.0001
          49   -0.0058   -0.0177    0.0019   -0.0037   -0.0040   -0.0101   -0.0009    0.0032
          50    0.0032   -0.0111    0.0055   -0.0229   -0.0040    0.0017    0.0031   -0.0038
          51   -0.0190   -0.0011    0.0013    0.0077   -0.0062   -0.0097    0.0034   -0.0058
          52    0.0159    0.0049    0.0258    0.0014   -0.0692   -0.0285   -0.0318    0.0605
          53   -0.0121    0.0087    0.0283    0.0126   -0.0613   -0.0334   -0.0238    0.0419
          54   -0.0259    0.0089    0.0221   -0.0046    0.0126    0.0092    0.0001   -0.0013
          55    0.0229    0.1662    0.0183   -0.0644   -0.0520    0.0824    0.0453   -0.0685
          56    0.0144    0.0902    0.0321   -0.0376   -0.0691    0.0475    0.0120   -0.0305
          57   -0.0063   -0.0089    0.0187   -0.0175    0.0291    0.0446   -0.0218    0.0229
          58   -0.0022    0.0025    0.0112    0.0013   -0.0166   -0.0080   -0.0067    0.0119
          59    0.0060   -0.0039   -0.0027    0.0006   -0.0027   -0.0038    0.0005   -0.0012
          60   -0.0023    0.0008   -0.0006   -0.0001    0.0037    0.0023    0.0013   -0.0026
          61    0.0061   -0.0001    0.0050    0.0025   -0.0195   -0.0102   -0.0067    0.0118
          62   -0.0041   -0.0003    0.0046   -0.0011    0.0007   -0.0012    0.0002   -0.0010
          63    0.0006   -0.0000    0.0009   -0.0004   -0.0019   -0.0011   -0.0012    0.0022


   Root No.      33        34        35        36        37        38        39        40

                33 A      34 A      35 A      36 A      37 A      38 A      39 A      40 A   

                1169.7    1204.9    1216.2    1232.5    1254.5    1297.3    1312.0    1317.9
  
           1   -0.0162   -0.0003   -0.0015    0.0015   -0.0013   -0.0032   -0.0163    0.0407
           2    0.0113    0.0044   -0.0276   -0.0003    0.0006   -0.0006    0.0011   -0.0011
           3    0.0125   -0.0281   -0.0030   -0.0009    0.0000    0.0022   -0.0012    0.0007
           4    0.0190   -0.0010    0.0092   -0.0024    0.0013    0.0060    0.0107   -0.0265
           5   -0.0250    0.0038   -0.0090    0.0015    0.0005    0.0038   -0.0010   -0.0022
           6   -0.0269   -0.0122   -0.0015    0.0038    0.0007   -0.0084    0.0040   -0.0011
           7    0.0066    0.0018    0.0010   -0.0009   -0.0003    0.0009   -0.0046    0.0076
           8    0.0083   -0.0028    0.0004    0.0004   -0.0008   -0.0049   -0.0027    0.0082
           9    0.0018    0.0009    0.0003   -0.0003   -0.0003    0.0009   -0.0006    0.0000
          10   -0.0098   -0.0002   -0.0022    0.0013    0.0032   -0.0131    0.0033    0.0045
          11    0.0120    0.0011    0.0026   -0.0009    0.0012   -0.0068    0.0044    0.0017
          12    0.0007    0.0017    0.0010   -0.0025   -0.0033    0.0123   -0.0026   -0.0015
          13   -0.0070   -0.0011   -0.0007   -0.0039   -0.0088   -0.0311    0.0066    0.0008
          14    0.0248    0.0013   -0.0002    0.0056   -0.0041   -0.0140   -0.0195   -0.0094
          15    0.0314    0.0017    0.0019   -0.0047    0.0018    0.0218   -0.0188   -0.0079
          16    0.0101    0.0002    0.0003   -0.0272   -0.0091    0.0082   -0.0073   -0.0027
          17   -0.0311   -0.0016   -0.0007   -0.0030   -0.0241    0.0063    0.0093    0.0061
          18   -0.0210   -0.0016   -0.0010   -0.0085    0.0249   -0.0093    0.0131    0.0067
          19    0.0251    0.1787   -0.0243   -0.0048    0.0003    0.0105    0.0397   -0.1096
          20   -0.0402    0.0142    0.3485   -0.0029   -0.0041   -0.0017    0.0033   -0.0102
          21   -0.0144   -0.0891    0.0504    0.0018   -0.0008   -0.0045   -0.0207    0.0556
          22    0.0026   -0.0790    0.1449    0.0011   -0.0003   -0.0055    0.0516   -0.1234
          23   -0.0214    0.1610    0.0015   -0.0009   -0.0002   -0.0005   -0.0199    0.0507
          24   -0.0444    0.2754    0.1822   -0.0017   -0.0011   -0.0049    0.0140   -0.0305
          25   -0.0519   -0.0994   -0.1645    0.0083    0.0013    0.0008    0.0395   -0.1051
          26   -0.0039   -0.2265    0.0452    0.0019   -0.0007    0.0026    0.0141   -0.0414
          27   -0.0119    0.2199   -0.1897    0.0022    0.0029   -0.0018    0.0141   -0.0314
          28   -0.0787   -0.0045   -0.0051   -0.0174    0.0038    0.3405    0.0081    0.0090
          29    0.0437    0.0021    0.0013    0.0177    0.0162    0.0662    0.0834    0.0298
          30    0.1146    0.0054    0.0067    0.0266    0.0368   -0.0356    0.1680    0.0582
          31    0.0425   -0.0028    0.0033    0.0019    0.0041    0.1350   -0.0817   -0.0305
          32    0.0089   -0.0001    0.0015   -0.0085    0.0076    0.2192    0.1470    0.0543
          33   -0.0346    0.0043   -0.0039   -0.0118   -0.0168   -0.2465    0.0631    0.0211
          34   -0.0058    0.0032    0.0054    0.3219    0.1505    0.0007    0.0051    0.0044
          35   -0.0331   -0.0017    0.0002   -0.0163    0.0743    0.0144   -0.0463   -0.0184
          36   -0.0320   -0.0025   -0.0002   -0.0964    0.1447    0.0116   -0.0833   -0.0358
          37   -0.0030   -0.0017    0.0001   -0.0841    0.1637   -0.0128    0.0384    0.0179
          38   -0.0168    0.0009    0.0033    0.1730    0.2573   -0.0078   -0.0790   -0.0318
          39   -0.0012    0.0009   -0.0009    0.0622   -0.2351    0.0194   -0.0376   -0.0167
          40    0.0003    0.0018    0.0005    0.1440   -0.1529    0.0111   -0.0170   -0.0090
          41   -0.0317   -0.0053   -0.0083   -0.2025   -0.0382   -0.0399   -0.0530   -0.0293
          42   -0.0226    0.0005   -0.0020    0.1825   -0.2085   -0.0043   -0.0234   -0.0138
          43    0.0332    0.0001    0.0057   -0.0016   -0.0001   -0.0062    0.0020   -0.0042
          44   -0.0912   -0.0088   -0.0060    0.0044    0.0020    0.0094    0.0149   -0.0311
          45    0.0041    0.0024   -0.0043    0.0010    0.0003   -0.0014   -0.0086    0.0222
          46    0.0042    0.0005    0.0012   -0.0004   -0.0003    0.0000   -0.0032    0.0059
          47   -0.0004    0.0002    0.0003   -0.0002   -0.0000    0.0003   -0.0021    0.0041
          48    0.0001    0.0002    0.0001   -0.0001   -0.0001    0.0000    0.0002   -0.0002
          49   -0.0045    0.0015   -0.0025    0.0004    0.0000    0.0008   -0.0016    0.0035
          50    0.0070   -0.0006    0.0017   -0.0001    0.0001   -0.0006   -0.0006    0.0019
          51    0.0059    0.0023   -0.0008   -0.0004    0.0004   -0.0001   -0.0008    0.0008
          52   -0.0726   -0.0265   -0.0252    0.0136    0.0010   -0.0354    0.0476   -0.0534
          53   -0.0553   -0.0084   -0.0221    0.0053    0.0024   -0.0037    0.0356   -0.0628
          54   -0.0045   -0.0047   -0.0058   -0.0006    0.0002    0.0002   -0.0008   -0.0018
          55    0.1228    0.0052    0.0207   -0.0101   -0.0006   -0.0161    0.0047   -0.0188
          56    0.0536    0.0063    0.0027   -0.0031    0.0000   -0.0260    0.0005    0.0017
          57   -0.0406   -0.0126   -0.0006    0.0086    0.0014   -0.0164    0.0099    0.0009
          58   -0.0157   -0.0037   -0.0056    0.0018    0.0007   -0.0008    0.0168   -0.0320
          59    0.0005    0.0032    0.0001   -0.0003    0.0009    0.0059    0.0173   -0.0403
          60    0.0035    0.0000    0.0015   -0.0008   -0.0006   -0.0010   -0.0150    0.0312
          61   -0.0143   -0.0029   -0.0038    0.0017    0.0007   -0.0007    0.0172   -0.0325
          62   -0.0016    0.0016   -0.0018   -0.0005    0.0011    0.0055    0.0183   -0.0429
          63   -0.0030   -0.0003   -0.0015    0.0005    0.0004    0.0006    0.0130   -0.0265


   Root No.      41        42        43        44        45        46        47        48

                41 A      42 A      43 A      44 A      45 A      46 A      47 A      48 A   

                1348.2    1355.5    1360.1    1416.8    1832.0    2072.8    2621.3    2627.8
  
           1    0.0142   -0.0005    0.0097   -0.0110    0.0075   -0.0029    0.0001    0.0001
           2    0.0009   -0.0019    0.0110   -0.0025    0.0060    0.0021   -0.0448   -0.0179
           3    0.0003    0.0002   -0.0001    0.0002   -0.0005    0.0003    0.0165   -0.0480
           4    0.0107    0.0012   -0.0048    0.0823   -0.0368    0.0202   -0.0006    0.0005
           5   -0.0055    0.0086   -0.0510    0.0256   -0.0670   -0.0358   -0.0034   -0.0012
           6    0.0002    0.0011   -0.0047    0.0031    0.0014   -0.0011    0.0010   -0.0030
           7    0.0006    0.0031   -0.0167   -0.0182    0.0362   -0.0003    0.0004    0.0002
           8   -0.0017   -0.0072    0.0370   -0.0352   -0.0036    0.0054    0.0003    0.0001
           9   -0.0002   -0.0002    0.0002   -0.0003   -0.0006    0.0001    0.0000   -0.0000
          10   -0.0021   -0.0002   -0.0009   -0.0090    0.0001    0.0075   -0.0001   -0.0003
          11    0.0018    0.0031    0.0034    0.0000    0.0072   -0.0102    0.0000    0.0002
          12    0.0020    0.0022   -0.0020    0.0052    0.0034    0.0155    0.0001    0.0002
          13    0.0013    0.0080   -0.0051    0.0045    0.0010   -0.0060   -0.0001    0.0003
          14   -0.0000   -0.0190   -0.0077    0.0067   -0.0010    0.0004    0.0001   -0.0002
          15   -0.0008   -0.0217    0.0017    0.0009   -0.0017    0.0036   -0.0001    0.0005
          16    0.0002    0.0036    0.0043   -0.0016   -0.0001    0.0010    0.0001   -0.0006
          17   -0.0015   -0.0278   -0.0061   -0.0017    0.0013   -0.0006    0.0001   -0.0001
          18   -0.0012   -0.0196   -0.0077   -0.0001    0.0007   -0.0011   -0.0001    0.0001
          19   -0.0826   -0.0004   -0.0296   -0.1049    0.0017   -0.0012   -0.0874    0.1867
          20   -0.0101    0.0024   -0.0165   -0.0125   -0.0048   -0.0016   -0.0014   -0.0563
          21    0.0404    0.0007    0.0132    0.0514    0.0015   -0.0004   -0.1880    0.3880
          22   -0.0867   -0.0057    0.0004   -0.1286    0.0246    0.0052    0.1980   -0.0154
          23    0.0365    0.0012    0.0064    0.0558   -0.0108   -0.0071    0.3954   -0.0413
          24   -0.0205   -0.0018    0.0029   -0.0271    0.0038    0.0019   -0.1711   -0.0107
          25   -0.0848    0.0090   -0.0841   -0.0973   -0.0117   -0.0068   -0.1031   -0.1785
          26   -0.0347    0.0055   -0.0424   -0.0426   -0.0106   -0.0042    0.1671    0.3202
          27   -0.0214   -0.0015   -0.0006   -0.0231   -0.0037   -0.0018    0.1537    0.2255
          28   -0.0036    0.0017    0.0178   -0.0094    0.0018    0.0142    0.0005   -0.0011
          29   -0.0006    0.0515    0.0057   -0.0010   -0.0063    0.0018   -0.0020    0.0047
          30    0.0016    0.1191    0.0118   -0.0029   -0.0044   -0.0064    0.0009   -0.0023
          31   -0.0010   -0.0562    0.0049    0.0017    0.0007    0.0022    0.0005   -0.0040
          32   -0.0013    0.0928    0.0206   -0.0071   -0.0039    0.0041    0.0001   -0.0011
          33    0.0016    0.0336   -0.0177    0.0055   -0.0047    0.0034    0.0003   -0.0031
          34   -0.0010   -0.0304   -0.0152    0.0039    0.0018   -0.0003    0.0001   -0.0003
          35    0.0034    0.0613    0.0227   -0.0043    0.0008   -0.0013   -0.0015   -0.0005
          36    0.0079    0.1519    0.0511   -0.0086   -0.0013    0.0013    0.0007    0.0003
          37   -0.0046   -0.0892   -0.0279    0.0043    0.0018   -0.0024   -0.0001    0.0030
          38    0.0072    0.1344    0.0381   -0.0062    0.0003   -0.0000    0.0000    0.0004
          39    0.0039    0.0738    0.0254   -0.0047    0.0002   -0.0003   -0.0002    0.0027
          40    0.0029    0.0460    0.0118   -0.0001   -0.0007    0.0016   -0.0011    0.0048
          41    0.0091    0.1729    0.0403   -0.0002   -0.0019   -0.0025   -0.0001    0.0006
          42    0.0049    0.0835    0.0160    0.0022    0.0001   -0.0027    0.0007   -0.0035
          43    0.0002   -0.0013    0.0110    0.0021   -0.0146    0.0325   -0.0010   -0.0023
          44    0.0024    0.0058   -0.0328    0.0689   -0.0334    0.0294   -0.0005   -0.0014
          45   -0.0041   -0.0030    0.0142   -0.0477    0.0102    0.0250   -0.0006   -0.0017
          46   -0.0146    0.0011   -0.0024   -0.0019   -0.0047   -0.0000   -0.0000   -0.0001
          47   -0.0257    0.0019   -0.0027    0.0103    0.0032    0.0001    0.0000   -0.0001
          48    0.0012   -0.0001   -0.0003   -0.0003   -0.0000    0.0001   -0.0002   -0.0003
          49   -0.0015    0.0001   -0.0016   -0.0083    0.0021    0.0036   -0.0004    0.0003
          50    0.0016   -0.0003    0.0024   -0.0022    0.0085   -0.0122    0.0002   -0.0000
          51   -0.0017   -0.0007    0.0030   -0.0049   -0.0036   -0.0158   -0.0003    0.0002
          52   -0.0196   -0.0640    0.3483    0.0447   -0.2097    0.0231   -0.0001   -0.0003
          53    0.0196   -0.0126    0.0700    0.1371    0.5453   -0.0102    0.0027    0.0012
          54    0.0033   -0.0012   -0.0001   -0.0005    0.0076   -0.0003    0.0001   -0.0000
          55    0.0088   -0.0025    0.0292    0.0338   -0.0070   -0.3852   -0.0012   -0.0005
          56   -0.0004    0.0090   -0.0286    0.0085   -0.0133    0.6671    0.0022    0.0009
          57    0.0007    0.0024   -0.0071    0.0045    0.0061   -0.0394    0.0004   -0.0004
          58    0.1166   -0.0091    0.0157   -0.0200    0.0096   -0.0001    0.0010    0.0020
          59    0.2062   -0.0027   -0.0404   -0.0501    0.0120   -0.0012    0.0014    0.0029
          60   -0.1623    0.0079    0.0026    0.0514    0.0689   -0.0021    0.0018    0.0043
          61    0.1222   -0.0090    0.0143   -0.0223    0.0055   -0.0000   -0.0003   -0.0003
          62    0.2167   -0.0043   -0.0373   -0.0532    0.0086   -0.0011   -0.0004   -0.0005
          63    0.1413   -0.0077    0.0004   -0.0471   -0.0722    0.0024    0.0009    0.0004


   Root No.      49        50        51        52        53        54        55        56

                49 A      50 A      51 A      52 A      53 A      54 A      55 A      56 A   

                2631.3    2636.8    2651.9    2663.7    2668.0    2710.7    2759.4    2773.9
  
           1   -0.0000    0.0000    0.0000   -0.0000   -0.0006   -0.0004   -0.0215   -0.0013
           2    0.0001    0.0003    0.0000   -0.0001   -0.0008   -0.0002    0.0001    0.0000
           3    0.0006    0.0002    0.0005    0.0000    0.0005   -0.0000   -0.0012   -0.0001
           4   -0.0001    0.0000    0.0001   -0.0001   -0.0066   -0.0011   -0.0075   -0.0003
           5    0.0000   -0.0000    0.0000    0.0000    0.0054    0.0005   -0.0003   -0.0004
           6   -0.0001    0.0000   -0.0000   -0.0001   -0.0082    0.0003    0.0002   -0.0002
           7    0.0000    0.0001   -0.0000    0.0000    0.0002    0.0001    0.0007    0.0000
           8   -0.0001   -0.0001   -0.0000   -0.0001   -0.0016   -0.0003    0.0009    0.0002
           9    0.0001   -0.0000   -0.0000    0.0000   -0.0002    0.0000    0.0001    0.0000
          10    0.0005   -0.0001    0.0006    0.0003   -0.0006   -0.0018    0.0006   -0.0003
          11   -0.0004    0.0000   -0.0000   -0.0002    0.0002   -0.0011   -0.0002   -0.0000
          12    0.0007   -0.0001   -0.0006    0.0003    0.0018    0.0009   -0.0004    0.0004
          13    0.0219   -0.0025   -0.0002    0.0122    0.0022   -0.0151   -0.0000    0.0002
          14   -0.0151    0.0015    0.0016   -0.0085    0.0027   -0.0282    0.0006   -0.0057
          15    0.0223   -0.0025    0.0025    0.0123   -0.0004   -0.0041    0.0005   -0.0041
          16   -0.0085    0.0013   -0.0354    0.0221   -0.0001   -0.0039   -0.0000    0.0018
          17    0.0072   -0.0014   -0.0199   -0.0168    0.0003   -0.0042    0.0010   -0.0170
          18   -0.0102    0.0018    0.0180    0.0239   -0.0002    0.0004    0.0006   -0.0134
          19   -0.0020   -0.0006   -0.0022    0.0001    0.0135    0.0029    0.1169    0.0070
          20    0.0006    0.0004    0.0005   -0.0001   -0.0032   -0.0008   -0.0305   -0.0018
          21   -0.0043   -0.0013   -0.0046    0.0002    0.0269    0.0072    0.2722    0.0157
          22    0.0004   -0.0008    0.0004    0.0007    0.0074    0.0033    0.1036    0.0060
          23    0.0011   -0.0017    0.0010    0.0015    0.0229    0.0079    0.2348    0.0132
          24   -0.0002    0.0008   -0.0002   -0.0007   -0.0105   -0.0034   -0.1014   -0.0058
          25    0.0017    0.0014    0.0010   -0.0001    0.0079    0.0032    0.1048    0.0054
          26   -0.0030   -0.0024   -0.0019    0.0000   -0.0169   -0.0059   -0.2047   -0.0109
          27   -0.0021   -0.0021   -0.0012    0.0000   -0.0136   -0.0045   -0.1569   -0.0084
          28   -0.0603    0.0061    0.0079   -0.0305    0.0081   -0.1004    0.0023   -0.0056
          29    0.2554   -0.0267   -0.0277    0.1284   -0.0309    0.3430   -0.0075    0.0188
          30   -0.1222    0.0125    0.0163   -0.0583    0.0161   -0.1812    0.0039   -0.0077
          31   -0.2276    0.0275   -0.0373   -0.1120   -0.0237    0.3127   -0.0063    0.0159
          32   -0.0571    0.0066   -0.0053   -0.0297   -0.0040    0.0545   -0.0011    0.0044
          33   -0.1726    0.0209   -0.0257   -0.0847   -0.0185    0.2394   -0.0052    0.0150
          34    0.0085   -0.0016   -0.0424   -0.0178    0.0001   -0.0016    0.0014   -0.0287
          35   -0.1222    0.0212    0.2080    0.2610    0.0028    0.0011   -0.0144    0.2563
          36    0.0599   -0.0103   -0.1017   -0.1237   -0.0026    0.0037    0.0079   -0.1382
          37    0.1115   -0.0181    0.1301   -0.2426    0.0069   -0.0050   -0.0120    0.2267
          38    0.0167   -0.0029    0.0096   -0.0429    0.0007    0.0006   -0.0013    0.0250
          39    0.0873   -0.0142    0.1320   -0.1959    0.0046    0.0006   -0.0094    0.1818
          40   -0.0001    0.0016    0.3553   -0.0115   -0.0084    0.0551    0.0124   -0.2264
          41    0.0056   -0.0008    0.0338   -0.0121   -0.0005    0.0051    0.0017   -0.0335
          42   -0.0075    0.0001   -0.2548    0.0277    0.0059   -0.0401   -0.0086    0.1540
          43    0.0008   -0.0017   -0.0003    0.0024    0.5211    0.0290   -0.0241   -0.0063
          44    0.0003   -0.0008   -0.0001    0.0008    0.1926    0.0106   -0.0106   -0.0024
          45    0.0006   -0.0014   -0.0002    0.0017    0.4016    0.0220   -0.0181   -0.0046
          46   -0.0001   -0.0009    0.0000    0.0000   -0.0001    0.0000    0.0001    0.0001
          47   -0.0001   -0.0013    0.0000   -0.0000   -0.0005   -0.0001    0.0002    0.0001
          48   -0.0030   -0.0403    0.0002    0.0006   -0.0002    0.0002    0.0000   -0.0000
          49   -0.0000    0.0001    0.0000   -0.0001   -0.0297   -0.0017    0.0018    0.0004
          50   -0.0001    0.0001   -0.0000   -0.0001   -0.0127   -0.0007    0.0004    0.0001
          51   -0.0001    0.0001    0.0000   -0.0002   -0.0193   -0.0013    0.0012    0.0003
          52   -0.0003   -0.0008    0.0001   -0.0004   -0.0106   -0.0023    0.0011    0.0006
          53    0.0005    0.0018   -0.0001    0.0006    0.0168    0.0044   -0.0070   -0.0015
          54   -0.0005   -0.0040    0.0000   -0.0000    0.0020   -0.0002   -0.0005    0.0000
          55    0.0002   -0.0000    0.0000    0.0003    0.0147    0.0021   -0.0023   -0.0007
          56    0.0020   -0.0002    0.0003    0.0008   -0.0439   -0.0057    0.0041    0.0023
          57   -0.0012    0.0003   -0.0005   -0.0006   -0.0313    0.0023    0.0009   -0.0020
          58    0.0111    0.1481   -0.0007   -0.0020    0.0023   -0.0006   -0.0006   -0.0005
          59    0.0169    0.2244   -0.0010   -0.0029    0.0038   -0.0008   -0.0010   -0.0009
          60    0.0232    0.3094   -0.0015   -0.0040    0.0067   -0.0010   -0.0020   -0.0017
          61   -0.0101   -0.1342    0.0004    0.0019    0.0006    0.0011   -0.0005   -0.0004
          62   -0.0155   -0.2041    0.0006    0.0029    0.0014    0.0015   -0.0010   -0.0007
          63    0.0252    0.3349   -0.0008   -0.0047   -0.0036   -0.0028    0.0021    0.0018


   Root No.      57

                57 A   

                2798.3
  
           1    0.0001
           2   -0.0002
           3   -0.0002
           4   -0.0004
           5   -0.0013
           6   -0.0001
           7    0.0022
           8   -0.0029
           9    0.0000
          10   -0.0000
          11    0.0001
          12    0.0001
          13    0.0000
          14    0.0000
          15   -0.0000
          16    0.0000
          17    0.0001
          18    0.0001
          19    0.0004
          20    0.0003
          21    0.0002
          22   -0.0001
          23   -0.0013
          24    0.0004
          25   -0.0010
          26    0.0035
          27    0.0016
          28    0.0000
          29    0.0001
          30   -0.0001
          31    0.0002
          32    0.0000
          33    0.0000
          34    0.0003
          35   -0.0016
          36    0.0008
          37   -0.0016
          38   -0.0002
          39   -0.0014
          40    0.0010
          41    0.0001
          42   -0.0006
          43    0.0037
          44    0.0011
          45    0.0031
          46    0.0143
          47    0.0212
          48   -0.0008
          49   -0.0002
          50    0.0001
          51   -0.0002
          52   -0.0381
          53    0.0868
          54   -0.0010
          55    0.0003
          56   -0.0011
          57   -0.0001
          58   -0.1206
          59   -0.1959
          60   -0.3640
          61   -0.0992
          62   -0.1683
          63    0.3783


           MASS-WEIGHTED COORDINATE ANALYSIS (NORMAL COORDINATES)


   Root No.       1         2         3         4         5         6         7         8

                 1 A       2 A       3 A       4 A       5 A       6 A       7 A       8 A   

               -1254.6     -68.6     -52.1     -43.8      36.7      84.6      98.3     156.6
  
           1    0.0014    0.0060    0.0046   -0.0382    0.0120   -0.1205   -0.0631    0.0628
           2    0.0027    0.1497    0.0502   -0.0081   -0.0269   -0.3911   -0.1112   -0.1271
           3    0.0226    0.0044   -0.1165    0.0873   -0.1697   -0.0479    0.2474   -0.3308
           4    0.0023    0.0098    0.0039   -0.0385    0.0131   -0.1242   -0.0627    0.0621
           5    0.0037    0.0164    0.0552   -0.0035    0.0520   -0.1231   -0.0133    0.0003
           6   -0.2838   -0.0315   -0.0990   -0.0228   -0.1241   -0.0203   -0.0135    0.0650
           7   -0.0008    0.0869    0.0091   -0.0431   -0.0487   -0.3154   -0.1308    0.0102
           8    0.0018   -0.0163    0.0615   -0.0068    0.0970   -0.0411    0.0115    0.0405
           9    0.0146   -0.0073   -0.1847   -0.0051   -0.3552   -0.1555   -0.0872    0.3554
          10   -0.0435   -0.0509   -0.0048   -0.1231    0.1004    0.0909   -0.1861    0.2712
          11    0.1488    0.0390    0.0025    0.0702   -0.1081   -0.1677    0.0690    0.0747
          12   -0.0380   -0.0760   -0.0517   -0.1291    0.0602    0.1131   -0.1777    0.1386
          13   -0.0537   -0.0048    0.0009   -0.1771    0.1067   -0.0239   -0.0665   -0.1797
          14    0.0015    0.0084   -0.0625    0.1285   -0.1914    0.0415    0.0527    0.1699
          15    0.0381   -0.0302   -0.0725   -0.1771    0.0269    0.0428   -0.0337   -0.3464
          16   -0.0016    0.0742    0.0968    0.2293   -0.0643    0.0339    0.2187   -0.1729
[...]
 EFF. MASS  27.0829

 VIBRATION   13   13A       ATOM PAIR        ENERGY CONTRIBUTION    RADIAL
 FREQ.       387.93        C  1 --  C  2          +13.2% (106.8%)     0.0%
 T-DIPOLE    1.1379        C  2 --  O 17           +9.9% ( 92.6%)     0.1%
 TRAVEL      0.0869        C  1 --  H  8           +9.5% ( 90.4%)    64.4%
 RED. MASS   1.8751        C  1 --  H  7           +9.1% ( 88.5%)    14.6%
 EFF. MASS  23.0220

 VIBRATION   14   14A       ATOM PAIR        ENERGY CONTRIBUTION    RADIAL
 FREQ.       445.77        O 16 --  H 20          +26.6% ( 93.5%)     2.2%
 T-DIPOLE    0.2506        O 16 --  H 21          +25.5% ( 91.4%)     0.6%
 TRAVEL      0.2486        O  3 --  H 18          +19.1% ( 79.1%)     1.5%
 RED. MASS   0.3489        O 16 --  H 18          +18.1% ( 77.1%)    17.6%
 EFF. MASS   2.4483

 VIBRATION   15   15A       ATOM PAIR        ENERGY CONTRIBUTION    RADIAL
 FREQ.       478.35        C  2 --  O  3          +16.7% (100.6%)     2.0%
 T-DIPOLE    0.8635        C  2 --  O 17          +12.5% ( 87.1%)     5.4%
 TRAVEL      0.0894        O 16 --  H 18           +9.6% ( 76.4%)    96.0%
 RED. MASS   2.1328        C  1 --  C  2           +9.1% ( 74.3%)     0.1%
 EFF. MASS  17.6321

 VIBRATION   16   16A       ATOM PAIR        ENERGY CONTRIBUTION    RADIAL
 FREQ.       558.83        C  2 --  O  4          +10.7% ( 77.4%)     0.3%
 T-DIPOLE    0.3760        C  2 --  O 17          +10.1% ( 75.4%)    25.5%
 TRAVEL      0.0919        O  4 --  O 17           +8.8% ( 70.2%)    20.0%
 RED. MASS   1.4244        C  2 --  O  3           +8.8% ( 70.2%)     0.3%
 EFF. MASS  14.2755

 VIBRATION   17   17A       ATOM PAIR        ENERGY CONTRIBUTION    RADIAL
 FREQ.       584.93        H 15 --  O 17          +35.4% ( 97.9%)     0.0%
 T-DIPOLE    1.2987        O  4 --  H 19          +17.3% ( 68.5%)     1.3%
 TRAVEL      0.1667        O 17 --  H 19          +13.0% ( 59.2%)    46.5%
 RED. MASS   0.6282        C  2 --  O 17           +6.9% ( 43.4%)     0.0%
 EFF. MASS   4.1506

 VIBRATION   18   18A       ATOM PAIR        ENERGY CONTRIBUTION    RADIAL
 FREQ.       602.89        O 16 --  H 20          +11.7% ( 56.7%)     0.2%
 T-DIPOLE    2.4465        O  4 --  O 17          +10.6% ( 54.1%)    81.9%
 TRAVEL      0.1137        O 16 --  H 21          +10.4% ( 53.6%)     0.1%
 RED. MASS   0.7891        C  2 --  O  4           +9.8% ( 52.0%)     6.5%
 EFF. MASS   8.6457

 VIBRATION   19   19A       ATOM PAIR        ENERGY CONTRIBUTION    RADIAL
 FREQ.       663.91        O  4 --  O 17          +10.6% ( 63.6%)    93.8%
 T-DIPOLE    0.9305        C  2 --  O  3          +10.3% ( 63.0%)     3.2%
 TRAVEL      0.0896        C  1 --  C  2          +10.2% ( 62.5%)    29.4%
 RED. MASS   1.3283        C  2 --  O 17           +9.9% ( 61.7%)     0.0%
 EFF. MASS  12.6426

 VIBRATION   20   20A       ATOM PAIR        ENERGY CONTRIBUTION    RADIAL
 FREQ.       850.91        O  4 --  C  5          +11.3% ( 58.5%)    44.2%
 T-DIPOLE    1.0330        C  2 --  O  4          +10.9% ( 57.5%)    53.9%
 TRAVEL      0.0888        O  4 --  O 17           +7.6% ( 48.1%)    46.5%
 RED. MASS   1.3776        C  6 --  H 12           +7.0% ( 46.2%)     8.4%
 EFF. MASS  10.0478

 VIBRATION   21   21A       ATOM PAIR        ENERGY CONTRIBUTION    RADIAL
 FREQ.       863.98        C  5 --  H 10          +17.5% ( 64.8%)     5.5%
 T-DIPOLE    1.3431        C  5 --  H 11          +17.5% ( 64.7%)    13.7%
 TRAVEL      0.1213        C  6 --  H 13          +10.6% ( 50.3%)     5.4%
 RED. MASS   0.4470        C  2 --  O 17           +7.3% ( 41.9%)    99.0%
 EFF. MASS   5.3039

 VIBRATION   22   22A       ATOM PAIR        ENERGY CONTRIBUTION    RADIAL
 FREQ.       872.32        C  2 --  O 17          +14.3% ( 59.5%)    88.8%
 T-DIPOLE    2.0378        C  1 --  H  7          +12.7% ( 56.1%)    13.0%
 TRAVEL      0.0993        C  2 --  O  4          +11.2% ( 52.8%)    66.4%
 RED. MASS   1.2285        C  1 --  C  2           +7.3% ( 42.5%)     0.3%
 EFF. MASS   7.8410

 VIBRATION   23   23A       ATOM PAIR        ENERGY CONTRIBUTION    RADIAL
 FREQ.       961.47        O 16 --  H 18          +42.1% ( 83.3%)     0.0%
 T-DIPOLE    0.9048        O  3 --  H 18          +40.2% ( 81.4%)     0.1%
 TRAVEL      0.1895        O 16 --  H 21           +2.7% ( 21.2%)     8.9%
 RED. MASS   0.6075        O 16 --  H 20           +2.2% ( 18.8%)     9.0%
 EFF. MASS   1.9523

 VIBRATION   24   24A       ATOM PAIR        ENERGY CONTRIBUTION    RADIAL
 FREQ.       968.22        O  4 --  H 19          +11.3% ( 54.4%)     7.1%
 T-DIPOLE    1.7484        O  4 --  C  5          +10.9% ( 53.4%)    77.0%
 TRAVEL      0.0919        C  2 --  O  4          +10.8% ( 53.1%)    90.4%
 RED. MASS   1.1295        O  4 --  O 17           +9.5% ( 49.7%)    77.7%
 EFF. MASS   8.2446

 VIBRATION   25   25A       ATOM PAIR        ENERGY CONTRIBUTION    RADIAL
 FREQ.      1004.74        C  1 --  H  8          +14.9% ( 59.1%)    62.6%
 T-DIPOLE    0.6931        C  1 --  H  9          +13.1% ( 55.4%)     0.6%
 TRAVEL      0.0829        C  1 --  C  2          +11.9% ( 52.9%)    86.1%
 RED. MASS   1.5186        C  1 --  H  7           +9.9% ( 48.1%)     4.5%
 EFF. MASS   9.7733

 VIBRATION   26   26A       ATOM PAIR        ENERGY CONTRIBUTION    RADIAL
 FREQ.      1042.82        O 17 --  H 19          +17.5% ( 54.9%)     0.0%
 T-DIPOLE    0.8292        O  4 --  H 19          +17.2% ( 54.4%)     1.7%
 TRAVEL      0.1280        H 15 --  O 17          +10.7% ( 43.0%)    12.0%
 RED. MASS   0.2929        C  1 --  H  8           +7.3% ( 35.4%)     6.8%
 EFF. MASS   3.9458

 VIBRATION   27   27A       ATOM PAIR        ENERGY CONTRIBUTION    RADIAL
 FREQ.      1065.50        O  4 --  C  5          +11.4% ( 49.9%)    89.0%
 T-DIPOLE    3.1143        C  5 --  C  6          +10.0% ( 46.7%)    29.7%
 TRAVEL      0.0939        C  1 --  H  7           +8.5% ( 43.1%)    12.2%
 RED. MASS   0.7898        C  2 --  O  4           +7.1% ( 39.2%)    69.0%
 EFF. MASS   7.1733

 VIBRATION   28   28A       ATOM PAIR        ENERGY CONTRIBUTION    RADIAL
 FREQ.      1083.23        H 15 --  O 17          +32.7% ( 69.7%)     1.1%
 T-DIPOLE    0.8389        C  5 --  H 10          +10.2% ( 39.0%)    29.1%
 TRAVEL      0.1265        C  5 --  H 11           +7.6% ( 33.5%)     4.7%
 RED. MASS   0.3777        O  4 --  C  5           +6.0% ( 29.9%)    62.6%
 EFF. MASS   3.8916

 VIBRATION   29   29A       ATOM PAIR        ENERGY CONTRIBUTION    RADIAL
 FREQ.      1118.51        C  1 --  C  2          +12.4% ( 50.2%)    23.4%
 T-DIPOLE    2.4718        C  2 --  O  3          +10.5% ( 46.2%)    40.5%
 TRAVEL      0.1013        C  2 --  O 17           +7.7% ( 39.5%)    96.4%
 RED. MASS   0.6662        C  2 --  O  4           +7.2% ( 38.1%)     0.7%
 EFF. MASS   5.8804

 VIBRATION   30   30A       ATOM PAIR        ENERGY CONTRIBUTION    RADIAL
 FREQ.      1137.45        C  5 --  H 11          +12.2% ( 45.8%)    35.5%
 T-DIPOLE    1.9434        O  4 --  C  5           +9.4% ( 40.2%)    57.1%
 TRAVEL      0.0992        C  5 --  C  6           +9.2% ( 39.6%)    18.1%
 RED. MASS   0.6307        C  5 --  H 10           +8.8% ( 38.9%)     6.0%
 EFF. MASS   6.0222

 VIBRATION   31   31A       ATOM PAIR        ENERGY CONTRIBUTION    RADIAL
 FREQ.      1157.77        C  5 --  H 11          +22.4% ( 56.9%)     4.9%
 T-DIPOLE    0.8402        C  5 --  H 10          +16.1% ( 48.1%)    11.4%
 TRAVEL      0.1274        C  6 --  H 12          +14.1% ( 45.0%)    11.2%
 RED. MASS   0.4082        C  5 --  C  6          +10.3% ( 38.6%)     0.6%
 EFF. MASS   3.5858

 VIBRATION   32   32A       ATOM PAIR        ENERGY CONTRIBUTION    RADIAL
 FREQ.      1164.32        C  5 --  C  6          +24.8% ( 78.7%)    80.1%
 T-DIPOLE    1.4787        O  4 --  C  5          +12.4% ( 55.7%)    26.3%
 TRAVEL      0.0781        C  6 --  H 14           +9.7% ( 49.2%)     0.0%
 RED. MASS   2.2283        C  5 --  H 11           +9.6% ( 48.9%)    38.7%
 EFF. MASS   9.4902

 VIBRATION   33   33A       ATOM PAIR        ENERGY CONTRIBUTION    RADIAL
 FREQ.      1169.67        C  5 --  C  6          +13.5% ( 51.4%)    98.4%
 T-DIPOLE    1.9072        C  5 --  H 10          +10.1% ( 44.4%)    13.8%
 TRAVEL      0.0947        C  1 --  C  2           +7.5% ( 38.3%)    30.2%
 RED. MASS   0.7223        C  5 --  H 11           +6.4% ( 35.5%)     6.4%
 EFF. MASS   6.4342

 VIBRATION   34   34A       ATOM PAIR        ENERGY CONTRIBUTION    RADIAL
 FREQ.      1204.88        C  1 --  H  9          +40.1% ( 53.8%)     0.8%
 T-DIPOLE    0.5527        C  1 --  H  8          +37.9% ( 52.3%)     1.0%
 TRAVEL      0.2016        C  1 --  H  7          +16.2% ( 34.2%)    18.5%
 RED. MASS   0.3626        C  1 --  C  2           +3.0% ( 14.6%)     0.2%
 EFF. MASS   1.3775

 VIBRATION   35   35A       ATOM PAIR        ENERGY CONTRIBUTION    RADIAL
 FREQ.      1216.18        C  1 --  H  7          +45.2% ( 58.0%)     0.0%
 T-DIPOLE    0.4951        C  1 --  H  9          +24.6% ( 42.7%)     5.0%
 TRAVEL      0.1987        C  1 --  H  8          +21.8% ( 40.3%)     6.4%
 RED. MASS   0.3611        C  1 --  C  2           +3.4% ( 15.9%)    25.1%
 EFF. MASS   1.4047

 VIBRATION   36   36A       ATOM PAIR        ENERGY CONTRIBUTION    RADIAL
 FREQ.      1232.52        C  6 --  H 12          +42.8% ( 55.8%)     0.1%
 T-DIPOLE    0.7502        C  6 --  H 14          +33.8% ( 49.5%)     2.0%
 TRAVEL      0.2003        C  6 --  H 13          +18.0% ( 36.2%)    15.4%
 RED. MASS   0.3615        C  5 --  C  6           +3.1% ( 15.0%)     6.6%
 EFF. MASS   1.3639

 VIBRATION   37   37A       ATOM PAIR        ENERGY CONTRIBUTION    RADIAL
 FREQ.      1254.50        C  6 --  H 13          +51.9% ( 62.3%)     0.1%
 T-DIPOLE    0.6422        C  6 --  H 14          +25.5% ( 43.7%)     4.9%
 TRAVEL      0.1889        C  6 --  H 12          +16.3% ( 34.9%)    13.8%
 RED. MASS   0.3966        C  5 --  C  6           +4.1% ( 17.6%)     0.0%
 EFF. MASS   1.5066

 VIBRATION   38   38A       ATOM PAIR        ENERGY CONTRIBUTION    RADIAL
 FREQ.      1297.29        C  5 --  H 11          +43.2% ( 62.6%)     0.6%
 T-DIPOLE    0.4177        C  5 --  H 10          +41.0% ( 60.9%)     0.7%
 TRAVEL      0.1690        C  5 --  C  6           +4.5% ( 20.3%)     2.4%
 RED. MASS   0.4515        O  4 --  C  5           +3.0% ( 16.4%)    96.7%
 EFF. MASS   1.8208

 VIBRATION   39   39A       ATOM PAIR        ENERGY CONTRIBUTION    RADIAL
 FREQ.      1311.98        C  5 --  H 10          +25.9% ( 54.9%)     1.0%
 T-DIPOLE    0.8404        C  5 --  H 11          +23.7% ( 52.6%)     0.9%
 TRAVEL      0.1418        C  6 --  H 13           +7.3% ( 29.2%)     0.6%
 RED. MASS   0.2631        C  5 --  C  6           +7.2% ( 29.0%)    93.9%
 EFF. MASS   2.5553

 VIBRATION   40   40A       ATOM PAIR        ENERGY CONTRIBUTION    RADIAL
 FREQ.      1317.90        C  1 --  H  8          +17.1% ( 51.3%)     1.9%
 T-DIPOLE    2.0607        C  1 --  H  7          +14.7% ( 47.7%)     3.5%
 TRAVEL      0.1089        C  1 --  C  2          +14.5% ( 47.3%)    99.9%
 RED. MASS   0.5332        C  1 --  H  9          +14.1% ( 46.7%)     3.1%
 EFF. MASS   4.3169

 VIBRATION   41   41A       ATOM PAIR        ENERGY CONTRIBUTION    RADIAL
 FREQ.      1348.15        O 16 --  H 20          +38.1% ( 51.4%)     7.1%
 T-DIPOLE    1.1665        O 16 --  H 21          +37.6% ( 51.1%)     7.0%
 TRAVEL      0.1714        C  1 --  H  8           +5.9% ( 20.2%)     0.8%
 RED. MASS   0.3842        C  1 --  H  9           +5.6% ( 19.7%)     0.4%
 EFF. MASS   1.7016

 VIBRATION   42   42A       ATOM PAIR        ENERGY CONTRIBUTION    RADIAL
 FREQ.      1355.48        C  6 --  H 14          +23.1% ( 49.0%)     0.7%
 T-DIPOLE    1.4062        C  6 --  H 13          +20.2% ( 45.8%)     1.0%
 TRAVEL      0.1492        C  6 --  H 12          +17.4% ( 42.6%)     1.8%
 RED. MASS   0.2944        C  5 --  H 10          +12.7% ( 36.3%)     0.8%
 EFF. MASS   2.2337        C  5 --  H 11          +10.4% ( 32.8%)     1.1%

 VIBRATION   43   43A       ATOM PAIR        ENERGY CONTRIBUTION    RADIAL
 FREQ.      1360.10        O  3 --  H 18          +35.7% ( 81.2%)    47.3%
 T-DIPOLE    3.1994        O 16 --  H 18          +27.6% ( 71.4%)    13.4%
 TRAVEL      0.1099        C  2 --  O  3          +10.5% ( 44.0%)    56.0%
 RED. MASS   0.8400        C  1 --  C  2           +6.2% ( 34.0%)     5.1%
 EFF. MASS   4.1057

 VIBRATION   44   44A       ATOM PAIR        ENERGY CONTRIBUTION    RADIAL
 FREQ.      1416.79        C  2 --  O  3          +24.6% ( 70.2%)    82.5%
 T-DIPOLE    2.9177        C  1 --  C  2          +17.0% ( 58.4%)    91.6%
 TRAVEL      0.0784        C  2 --  O  4          +16.1% ( 56.8%)     3.2%
 RED. MASS   2.4606        C  2 --  O 17          +16.1% ( 56.8%)     3.4%
 EFF. MASS   7.7525

 VIBRATION   45   45A       ATOM PAIR        ENERGY CONTRIBUTION    RADIAL
 FREQ.      1831.97        O  3 --  H 18          +42.0% ( 86.4%)   100.0%
 T-DIPOLE    4.9091        O 16 --  H 18          +38.2% ( 82.4%)    93.7%
 TRAVEL      0.1155        C  2 --  O  3           +5.1% ( 30.2%)    89.7%
 RED. MASS   0.9062        C  1 --  C  2           +4.0% ( 26.7%)    27.0%
 EFF. MASS   2.7583

 VIBRATION   46   46A       ATOM PAIR        ENERGY CONTRIBUTION    RADIAL
 FREQ.      2072.79        O  4 --  H 19          +48.7% ( 95.8%)    50.7%
 T-DIPOLE    1.5317        O 17 --  H 19          +48.6% ( 95.8%)    46.3%
 TRAVEL      0.1537        C  2 --  O  3           +0.5% (  9.6%)    27.1%
 RED. MASS   0.9063        C  2 --  O 17           +0.5% (  9.5%)    92.4%
 EFF. MASS   1.3778

 VIBRATION   47   47A       ATOM PAIR        ENERGY CONTRIBUTION    RADIAL
 FREQ.      2621.33        C  1 --  H  8          +66.6% ( 84.4%)    99.7%
 T-DIPOLE    1.2269        C  1 --  H  9          +19.0% ( 45.1%)    88.5%
 TRAVEL      0.1335        C  1 --  H  7          +13.4% ( 37.9%)    82.3%
 RED. MASS   0.5134        C  1 --  C  2           +0.9% (  9.8%)     0.0%
 EFF. MASS   1.4441

 VIBRATION   48   48A       ATOM PAIR        ENERGY CONTRIBUTION    RADIAL
 FREQ.      2627.81        C  1 --  H  7          +49.6% ( 72.8%)    98.2%
 T-DIPOLE    1.2254        C  1 --  H  9          +48.3% ( 71.8%)    97.7%
 TRAVEL      0.1332        C  1 --  H  8           +1.2% ( 11.2%)     8.3%
 RED. MASS   0.4950        C  1 --  C  2           +0.9% (  9.7%)     0.0%
 EFF. MASS   1.4461

 VIBRATION   49   49A       ATOM PAIR        ENERGY CONTRIBUTION    RADIAL
 FREQ.      2631.27        C  5 --  H 11          +39.7% ( 65.5%)    98.1%
 T-DIPOLE    0.2869        C  5 --  H 10          +39.2% ( 65.1%)    98.0%
 TRAVEL      0.1328        C  6 --  H 13           +9.5% ( 32.0%)    98.1%
 RED. MASS   0.3432        C  6 --  H 12           +8.7% ( 30.6%)    98.1%
 EFF. MASS   1.4522

 VIBRATION   50   50A       ATOM PAIR        ENERGY CONTRIBUTION    RADIAL
 FREQ.      2636.78        O 16 --  H 21          +49.8% ( 73.0%)    96.8%
 T-DIPOLE    2.0773        O 16 --  H 20          +48.8% ( 72.2%)    96.7%
 TRAVEL      0.1315        O 16 --  H 18           +0.5% (  7.1%)     0.0%
 RED. MASS   0.5051        C  5 --  H 11           +0.4% (  6.2%)    98.7%
 EFF. MASS   1.4779

 VIBRATION   51   51A       ATOM PAIR        ENERGY CONTRIBUTION    RADIAL
 FREQ.      2651.90        C  6 --  H 14          +66.0% ( 83.9%)    99.7%
 T-DIPOLE    0.9506        C  6 --  H 12          +19.6% ( 45.8%)    88.9%
 TRAVEL      0.1326        C  6 --  H 13          +12.5% ( 36.5%)    81.4%
 RED. MASS   0.5049        C  5 --  C  6           +0.9% (  9.8%)     0.4%
 EFF. MASS   1.4452

 VIBRATION   52   52A       ATOM PAIR        ENERGY CONTRIBUTION    RADIAL
 FREQ.      2663.71        C  6 --  H 13          +43.2% ( 67.6%)    98.3%
 T-DIPOLE    1.1941        C  6 --  H 12          +36.6% ( 62.2%)    97.3%
 TRAVEL      0.1311        C  5 --  H 10           +9.1% ( 31.1%)    97.8%
 RED. MASS   0.3498        C  5 --  H 11           +9.0% ( 31.0%)    97.8%
 EFF. MASS   1.4737

 VIBRATION   53   53A       ATOM PAIR        ENERGY CONTRIBUTION    RADIAL
 FREQ.      2668.02        H 15 --  O 17          +97.4% ( 98.7%)    99.5%
 T-DIPOLE    2.1788        O 17 --  H 19           +0.5% (  7.2%)     0.2%
 TRAVEL      0.1379        O  4 --  O 17           +0.4% (  6.1%)    29.6%
 RED. MASS   0.9138        C  2 --  O 17           +0.4% (  6.0%)     3.2%
 EFF. MASS   1.3296

 VIBRATION   54   54A       ATOM PAIR        ENERGY CONTRIBUTION    RADIAL
 FREQ.      2710.74        C  5 --  H 10          +48.9% ( 68.8%)    96.6%
 T-DIPOLE    0.6780        C  5 --  H 11          +48.1% ( 68.2%)    96.5%
 TRAVEL      0.1424        C  6 --  H 14           +1.5% ( 11.9%)    98.2%
 RED. MASS   0.4641        O  4 --  C  5           +0.5% (  7.0%)    23.5%
 EFF. MASS   1.2259

 VIBRATION   55   55A       ATOM PAIR        ENERGY CONTRIBUTION    RADIAL
 FREQ.      2759.36        C  1 --  H  7          +36.4% ( 57.6%)    96.0%
 T-DIPOLE    0.8155        C  1 --  H  9          +31.4% ( 53.5%)    94.8%
 TRAVEL      0.1457        C  1 --  H  8          +30.8% ( 53.0%)    94.4%
 RED. MASS   0.3215        H 15 --  O 17           +0.4% (  6.4%)    99.6%
 EFF. MASS   1.1508

 VIBRATION   56   56A       ATOM PAIR        ENERGY CONTRIBUTION    RADIAL
 FREQ.      2773.90        C  6 --  H 12          +34.4% ( 56.2%)    95.4%
 T-DIPOLE    0.6146        C  6 --  H 13          +34.2% ( 56.0%)    95.5%
 TRAVEL      0.1458        C  6 --  H 14          +30.2% ( 52.7%)    94.8%
 RED. MASS   0.3219        C  5 --  C  6           +0.3% (  4.9%)   100.0%
 EFF. MASS   1.1437

 VIBRATION   57   57A       ATOM PAIR        ENERGY CONTRIBUTION    RADIAL
 FREQ.      2798.26        O 16 --  H 20          +49.5% ( 67.1%)    99.8%
 T-DIPOLE    0.9070        O 16 --  H 21          +48.2% ( 66.3%)    99.8%
 TRAVEL      0.1426        O 16 --  H 18           +1.2% ( 10.6%)    33.9%
 RED. MASS   0.4662        O  3 --  H 18           +1.0% (  9.7%)    98.3%
 EFF. MASS   1.1854

           FORCE CONSTANT IN CARTESIAN COORDINATES (Millidynes/A)

    ATOM   CHEMICAL       X               Y               Z
   NUMBER   SYMBOL  FORCE CONSTANT  FORCE CONSTANT  FORCE CONSTANT

      1       C        7.200188        6.193344        6.056629
      2       C        9.731353        9.065828        3.989729
      3       O        4.457562        7.827567        0.840600
      4       O        4.327057        3.584053        5.640361
      5       C        6.080253        7.380631        6.475421
      6       C        6.238076        6.707257        6.609491
      7       H        1.273890        0.527402        3.383290
      8       H        1.274200        2.967013        0.941415
      9       H        1.248606        2.356214        1.563131
     10       H        0.864463        3.214110        1.395076
     11       H        2.779939        0.765188        1.926109
     12       H        0.534509        3.375217        1.352019
     13       H        2.633379        0.718014        1.988118
     14       H        2.854894        0.670757        1.744064
     15       H        2.415098        0.851154        1.631138
     16       O        1.868238        3.082240        4.830063
     17       O        3.596313        2.861155        4.915455
     18       H        1.031072        1.676144        0.471072
     19       H        1.024014        1.972167       -0.715457
     20       H        0.611920        1.365283        2.862279
     21       H        0.516702        1.174564        3.138052

 **********************
 *                    *
 * JOB ENDED NORMALLY *
 *                    *
 **********************



 TOTAL JOB TIME:             2.37 SECONDS

 == MOPAC DONE ==
