 *******************************************************************************
 ** Site#: 37037        For non-commercial use only           Version 21.153W **
 *******************************************************************************
 ** Cite this program as: MOPAC2016, Version: 21.153W, James J. P. Stewart,   **
 ** Stewart Computational Chemistry, web: HTTP://OpenMOPAC.net. Days left: 362**
 *******************************************************************************
 **                                                                           **
 **                                MOPAC2016                                  **
 **                                                                           **
 *******************************************************************************

                              PM7 CALCULATION RESULTS

 *******************************************************************************
 *  CALCULATION DONE:                                Sat Jun  5 17:00:21 2021  *
 *  GEO_DAT    - DATA SET GEOMETRY IS IN FILE "SADDLE.arc"
 *
 *
 *
 *                 CHARGE ON SYSTEM = +1
 *
 *
 *
 *  EPS=78.4   - USE ANDREAS KLAMT'S COSMO IMPLICIT SOLVATION MODEL
 *  NLLSQ      - GRADIENTS TO BE MINIMIZED USING NLLSQ.
 *  T=         - A TIME OF 172800.0 SECONDS REQUESTED
 *  DUMP=N     - RESTART FILE WRITTEN EVERY 7200.0 SECONDS REQUESTED
 *  GNORM      - EXIT WHEN GRADIENT NORM DROPS BELOW 2.000
 *******************************************************************************
nllsq charge=1 eps=78.4   geo_dat="SADDLE.arc" gnorm=2
 Refine the transition state geometry

   ATOM                 CHEMICAL                   X               Y               Z
  NUMBER                 SYMBOL               (ANGSTROMS)     (ANGSTROMS)     (ANGSTROMS)
 
     1       C(HETATM    1  C1  ACY A   1)   -0.21798925  *   0.09009554  *   0.30156179  *
     2       C(HETATM    2  C2  ACY A   1)    1.13197972  *   0.12439087  *   0.93042127  *
     3       O(HETATM    3  O   ACY A   1)    1.88770817  *   1.21739964  *   0.91697073  *
     4       O(HETATM    4  O   EOH B   2)    1.88976316  *  -1.06522685  *   0.56115202  *
     5       C(HETATM    5  C1  EOH B   2)    3.29481237  *  -0.88524111  *   0.24482436  *
     6       C(HETATM    6  C2  EOH B   2)    3.72763203  *  -2.24073952  *  -0.26907564  *
     7       H(HETATM    7 1H1  ACY A   1)   -0.16305730  *  -0.18131334  *  -0.76881459  *
     8       H(HETATM    8 2H1  ACY A   1)   -0.88988273  *  -0.65003121  *   0.77740977  *
     9       H(HETATM    9 3H1  ACY A   1)   -0.73097899  *   1.06732632  *   0.36497132  *
    10       H(HETATM   10 1H1  EOH B   2)    3.35502054  *  -0.08899712  *  -0.51919271  *
    11       H(HETATM   11 2H1  EOH B   2)    3.82493088  *  -0.56508168  *   1.15967381  *
    12       H(HETATM   12 1H2  EOH B   2)    3.56004479  *  -3.03846146  *   0.47055877  *
    13       H(HETATM   13 2H2  EOH B   2)    3.18751133  *  -2.52252990  *  -1.18382840  *
    14       H(HETATM   14 3H2  EOH B   2)    4.80208149  *  -2.23823383  *  -0.51076408  *
    15       H(HETATM   15  H   ACY G   1)    1.62175961  *   0.14555489  *   2.96486160  *
    16       O(HETATM   16  O   HOH F   3)    1.24470313  *   2.91569864  *  -0.83766562  *
    17       O(HETATM   17  O   ACY G   1)    1.03516592  *  -0.37245485  *   2.32221680  *
    18       H(HETATM   18  H   UNK G    )    1.60219354  *   1.96465806  *   0.17287994  *
    19       H(HETATM   19  H   EOH B   2)    1.72201575  *  -1.40146329  *   1.91085997  *
    20       H(HETATM   20 1H   HOH F   3)    1.13987242  *   3.76307359  *  -0.34988311  *
    21       H(HETATM   21 2H   HOH F   3)    2.06694445  *   3.05821564  *  -1.35712820  *
 

 General Reference for PM7:
 "Optimization of Parameters for Semiempirical Methods VI: More Modifications to the 
 NDDO Approximations and Re-optimization of Parameters", J. J. P. Stewart, J. Mol. Mod., 1:32, 19 (2013)
 https://link.springer.com/article/10.1007/s00894-012-1667-x

           Empirical Formula: C4 H13 O4  =    21 atoms



      MOLECULAR POINT GROUP   :   C1  


      RHF CALCULATION, NO. OF DOUBLY OCCUPIED LEVELS = 26

      Transition state refinement using NLLSQ
 CYCLE:     1 TIME:   0.094 TIME LEFT:  2.00D  GRAD.:     9.244 HEAT: -104.0208
 CYCLE:     2 TIME:   0.047 TIME LEFT:  2.00D  GRAD.:     5.821 HEAT: -104.0026
 CYCLE:     3 TIME:   0.062 TIME LEFT:  2.00D  GRAD.:     5.469 HEAT: -104.0024
 CYCLE:     4 TIME:   0.047 TIME LEFT:  2.00D  GRAD.:     5.469 HEAT: -104.0024
 CYCLE:     5 TIME:   0.047 TIME LEFT:  2.00D  GRAD.:     5.408 HEAT: -103.9936
 CYCLE:     6 TIME:   0.047 TIME LEFT:  2.00D  GRAD.:     5.362 HEAT: -103.9953
 CYCLE:     7 TIME:   0.047 TIME LEFT:  2.00D  GRAD.:     5.302 HEAT: -103.9942
 CYCLE:     8 TIME:   0.062 TIME LEFT:  2.00D  GRAD.:     5.303 HEAT: -103.9942
 CYCLE:     9 TIME:   0.047 TIME LEFT:  2.00D  GRAD.:     5.262 HEAT: -103.9941
 CYCLE:    10 TIME:   0.078 TIME LEFT:  2.00D  GRAD.:     5.185 HEAT: -103.9914
 CYCLE:    11 TIME:   0.047 TIME LEFT:  2.00D  GRAD.:     5.004 HEAT: -103.9881
 CYCLE:    12 TIME:   0.047 TIME LEFT:  2.00D  GRAD.:     4.712 HEAT: -103.9852
 CYCLE:    13 TIME:   0.047 TIME LEFT:  2.00D  GRAD.:     4.701 HEAT: -103.9853
 CYCLE:    14 TIME:   0.047 TIME LEFT:  2.00D  GRAD.:     4.693 HEAT: -103.9851
 CYCLE:    15 TIME:   0.047 TIME LEFT:  2.00D  GRAD.:     4.670 HEAT: -103.9847
 CYCLE:    16 TIME:   0.051 TIME LEFT:  2.00D  GRAD.:     4.575 HEAT: -103.9693
 CYCLE:    17 TIME:   0.047 TIME LEFT:  2.00D  GRAD.:     4.567 HEAT: -103.9691
 CYCLE:    18 TIME:   0.043 TIME LEFT:  2.00D  GRAD.:     4.566 HEAT: -103.9695
 CYCLE:    19 TIME:   0.047 TIME LEFT:  2.00D  GRAD.:     4.567 HEAT: -103.9692
 CYCLE:    20 TIME:   0.047 TIME LEFT:  2.00D  GRAD.:     4.562 HEAT: -103.9690
 CYCLE:    21 TIME:   0.066 TIME LEFT:  2.00D  GRAD.:     4.561 HEAT: -103.9692
 CYCLE:    22 TIME:   0.027 TIME LEFT:  2.00D  GRAD.:     4.553 HEAT: -103.9693
 CYCLE:    23 TIME:   0.062 TIME LEFT:  2.00D  GRAD.:     4.538 HEAT: -103.9690
 CYCLE:    24 TIME:   0.047 TIME LEFT:  2.00D  GRAD.:     4.537 HEAT: -103.9690
 CYCLE:    25 TIME:   0.047 TIME LEFT:  2.00D  GRAD.:     4.531 HEAT: -103.9692
 CYCLE:    26 TIME:   0.047 TIME LEFT:  2.00D  GRAD.:     4.527 HEAT: -103.9693
 CYCLE:    27 TIME:   0.066 TIME LEFT:  2.00D  GRAD.:     4.424 HEAT: -103.9708
 CYCLE:    28 TIME:   0.043 TIME LEFT:  2.00D  GRAD.:     4.401 HEAT: -103.9680
 CYCLE:    29 TIME:   0.047 TIME LEFT:  2.00D  GRAD.:     4.369 HEAT: -103.9725
 CYCLE:    30 TIME:   0.062 TIME LEFT:  2.00D  GRAD.:     4.363 HEAT: -103.9725
 CYCLE:    31 TIME:   0.051 TIME LEFT:  2.00D  GRAD.:     4.318 HEAT: -103.9605
 CYCLE:    32 TIME:   0.047 TIME LEFT:  2.00D  GRAD.:     4.319 HEAT: -103.9605
 CYCLE:    33 TIME:   0.043 TIME LEFT:  2.00D  GRAD.:     4.320 HEAT: -103.9604
 CYCLE:    34 TIME:   0.047 TIME LEFT:  2.00D  GRAD.:     4.327 HEAT: -103.9724
 CYCLE:    35 TIME:   0.078 TIME LEFT:  2.00D  GRAD.:     4.318 HEAT: -103.9604
 CYCLE:    36 TIME:   0.047 TIME LEFT:  2.00D  GRAD.:     4.319 HEAT: -103.9605
 CYCLE:    37 TIME:   0.062 TIME LEFT:  2.00D  GRAD.:     4.320 HEAT: -103.9605
 CYCLE:    38 TIME:   0.031 TIME LEFT:  2.00D  GRAD.:     4.313 HEAT: -103.9605
 CYCLE:    39 TIME:   0.066 TIME LEFT:  2.00D  GRAD.:     4.314 HEAT: -103.9605
 CYCLE:    40 TIME:   0.043 TIME LEFT:  2.00D  GRAD.:     4.315 HEAT: -103.9605
 CYCLE:    41 TIME:   0.047 TIME LEFT:  2.00D  GRAD.:     4.315 HEAT: -103.9605
 CYCLE:    42 TIME:   0.047 TIME LEFT:  2.00D  GRAD.:     4.317 HEAT: -103.9606
 CYCLE:    43 TIME:   0.047 TIME LEFT:  2.00D  GRAD.:     4.317 HEAT: -103.9606
 CYCLE:    44 TIME:   0.047 TIME LEFT:  2.00D  GRAD.:     4.315 HEAT: -103.9605
 CYCLE:    45 TIME:   0.047 TIME LEFT:  2.00D  GRAD.:     4.311 HEAT: -103.9604
 CYCLE:    46 TIME:   0.062 TIME LEFT:  2.00D  GRAD.:     4.143 HEAT: -103.9741
 CYCLE:    47 TIME:   0.062 TIME LEFT:  2.00D  GRAD.:     4.027 HEAT: -103.9661
 CYCLE:    48 TIME:   0.078 TIME LEFT:  2.00D  GRAD.:     4.014 HEAT: -103.9665
 CYCLE:    49 TIME:   0.047 TIME LEFT:  2.00D  GRAD.:     4.003 HEAT: -103.9693
 CYCLE:    50 TIME:   0.051 TIME LEFT:  2.00D  GRAD.:     3.998 HEAT: -103.9694
 CYCLE:    51 TIME:   0.047 TIME LEFT:  2.00D  GRAD.:     3.994 HEAT: -103.9672
 CYCLE:    52 TIME:   0.043 TIME LEFT:  2.00D  GRAD.:     3.993 HEAT: -103.9673
 CYCLE:    53 TIME:   0.047 TIME LEFT:  2.00D  GRAD.:     3.988 HEAT: -103.9674
 CYCLE:    54 TIME:   0.047 TIME LEFT:  2.00D  GRAD.:     3.986 HEAT: -103.9674
 CYCLE:    55 TIME:   0.078 TIME LEFT:  2.00D  GRAD.:     3.907 HEAT: -103.9565
 CYCLE:    56 TIME:   0.047 TIME LEFT:  2.00D  GRAD.:     3.898 HEAT: -103.9565
 CYCLE:    57 TIME:   0.047 TIME LEFT:  2.00D  GRAD.:     3.892 HEAT: -103.9565
 CYCLE:    58 TIME:   0.047 TIME LEFT:  2.00D  GRAD.:     3.891 HEAT: -103.9565
 CYCLE:    59 TIME:   0.047 TIME LEFT:  2.00D  GRAD.:     3.891 HEAT: -103.9565
 CYCLE:    60 TIME:   0.051 TIME LEFT:  2.00D  GRAD.:     3.890 HEAT: -103.9565
 CYCLE:    61 TIME:   0.059 TIME LEFT:  2.00D  GRAD.:     3.892 HEAT: -103.9565
 CYCLE:    62 TIME:   0.047 TIME LEFT:  2.00D  GRAD.:     3.888 HEAT: -103.9565
 CYCLE:    63 TIME:   0.047 TIME LEFT:  2.00D  GRAD.:     3.879 HEAT: -103.9572
 CYCLE:    64 TIME:   0.047 TIME LEFT:  2.00D  GRAD.:     3.877 HEAT: -103.9571
 CYCLE:    65 TIME:   0.062 TIME LEFT:  2.00D  GRAD.:     3.868 HEAT: -103.9574
 CYCLE:    66 TIME:   0.047 TIME LEFT:  2.00D  GRAD.:     3.869 HEAT: -103.9574
 CYCLE:    67 TIME:   0.047 TIME LEFT:  2.00D  GRAD.:     3.865 HEAT: -103.9574
 CYCLE:    68 TIME:   0.047 TIME LEFT:  2.00D  GRAD.:     3.856 HEAT: -103.9574
 CYCLE:    69 TIME:   0.047 TIME LEFT:  2.00D  GRAD.:     3.849 HEAT: -103.9576
 CYCLE:    70 TIME:   0.062 TIME LEFT:  2.00D  GRAD.:     3.842 HEAT: -103.9578
 CYCLE:    71 TIME:   0.062 TIME LEFT:  2.00D  GRAD.:     3.836 HEAT: -103.9597
 CYCLE:    72 TIME:   0.062 TIME LEFT:  2.00D  GRAD.:     3.820 HEAT: -103.9581
 CYCLE:    73 TIME:   0.062 TIME LEFT:  2.00D  GRAD.:     3.764 HEAT: -103.9585
 CYCLE:    74 TIME:   0.051 TIME LEFT:  2.00D  GRAD.:     3.704 HEAT: -103.9661
 CYCLE:    75 TIME:   0.059 TIME LEFT:  2.00D  GRAD.:     3.692 HEAT: -103.9637
 CYCLE:    76 TIME:   0.094 TIME LEFT:  2.00D  GRAD.:     3.575 HEAT: -103.9646
 TEST ON SSQ SATISFIED, NUMBER OF FUNCTION CALLS =   249

 -------------------------------------------------------------------------------
 nllsq charge=1 eps=78.4 gnorm=2
 Refine the transition state geometry



     GEOMETRY OPTIMIZED USING NLLSQ. GRADIENT NORM MINIMIZED  
     SCF FIELD WAS ACHIEVED                                   


                              PM7 CALCULATION
                                                       MOPAC2016 (Version: 21.153W)
                                                       Sat Jun  5 17:00:25 2021
                                                       No. of days remaining = 362




          FINAL HEAT OF FORMATION =       -103.96827 KCAL/MOL =    -435.00326 KJ/MOL
          VAN DER WAALS AREA      =        171.24 SQUARE ANGSTROMS


          TOTAL ENERGY            =      -1843.93940 EV
          ELECTRONIC ENERGY       =      -2438.75938 EV  POINT GROUP:     C1  
          CORE-CORE REPULSION     =        594.81997 EV

          DIELECTRIC ENERGY       =         -2.60499 EV
          COSMO AREA              =        171.24 SQUARE ANGSTROMS
          COSMO VOLUME            =        164.07 CUBIC ANGSTROMS

          GRADIENT NORM           =          3.48653 = 0.76082 PER ATOM
          IONIZATION POTENTIAL    =         11.903360 EV
          HOMO LUMO ENERGIES (EV) =        -11.903  0.029
          NO. OF FILLED LEVELS    =         26
          MOLECULAR WEIGHT        =        125.1443

          MOLECULAR DIMENSIONS (Angstroms)

            Atom       Atom       Distance
            H    20    H    12     7.26606
            H    14    H     8     5.10575
            H    15    H     7     4.06135


          SCF CALCULATIONS        =        251
 
          WALL-CLOCK TIME         =          4.137 SECONDS
          COMPUTATION TIME        =         16.422 SECONDS



       FINAL  POINT  AND  DERIVATIVES

   PARAMETER     ATOM    TYPE            VALUE        GRADIENT
      1          1  C    CARTESIAN X    -0.216523     -0.442009  KCAL/ANGSTROM
      2          1  C    CARTESIAN Y     0.090461     -0.194893  KCAL/ANGSTROM
      3          1  C    CARTESIAN Z     0.300426     -0.001478  KCAL/ANGSTROM
      4          2  C    CARTESIAN X     1.128340      0.151715  KCAL/ANGSTROM
      5          2  C    CARTESIAN Y     0.128194      0.332211  KCAL/ANGSTROM
      6          2  C    CARTESIAN Z     0.940526      0.387997  KCAL/ANGSTROM
      7          3  O    CARTESIAN X     1.890466      0.243794  KCAL/ANGSTROM
      8          3  O    CARTESIAN Y     1.217668      0.372074  KCAL/ANGSTROM
      9          3  O    CARTESIAN Z     0.917665     -0.038101  KCAL/ANGSTROM
     10          4  O    CARTESIAN X     1.891373     -0.233578  KCAL/ANGSTROM
     11          4  O    CARTESIAN Y    -1.071232     -0.983736  KCAL/ANGSTROM
     12          4  O    CARTESIAN Z     0.575277      0.669508  KCAL/ANGSTROM
     13          5  C    CARTESIAN X     3.295338     -0.019464  KCAL/ANGSTROM
     14          5  C    CARTESIAN Y    -0.885538      0.812625  KCAL/ANGSTROM
     15          5  C    CARTESIAN Z     0.244207     -0.133759  KCAL/ANGSTROM
     16          6  C    CARTESIAN X     3.727382     -0.088591  KCAL/ANGSTROM
     17          6  C    CARTESIAN Y    -2.241954     -0.433103  KCAL/ANGSTROM
     18          6  C    CARTESIAN Z    -0.267637      0.313566  KCAL/ANGSTROM
     19          7  H    CARTESIAN X    -0.158808     -0.134072  KCAL/ANGSTROM
     20          7  H    CARTESIAN Y    -0.177750     -0.119909  KCAL/ANGSTROM
     21          7  H    CARTESIAN Z    -0.769810      0.377812  KCAL/ANGSTROM
     22          8  H    CARTESIAN X    -0.888907     -0.181460  KCAL/ANGSTROM
     23          8  H    CARTESIAN Y    -0.650937      0.014607  KCAL/ANGSTROM
     24          8  H    CARTESIAN Z     0.773473      0.282586  KCAL/ANGSTROM
     25          9  H    CARTESIAN X    -0.730514     -0.073374  KCAL/ANGSTROM
     26          9  H    CARTESIAN Y     1.067059     -0.206686  KCAL/ANGSTROM
     27          9  H    CARTESIAN Z     0.364547     -0.169083  KCAL/ANGSTROM
     28         10  H    CARTESIAN X     3.348717     -0.039689  KCAL/ANGSTROM
     29         10  H    CARTESIAN Y    -0.091718     -0.147038  KCAL/ANGSTROM
     30         10  H    CARTESIAN Z    -0.522048      0.580863  KCAL/ANGSTROM
     31         11  H    CARTESIAN X     3.828398      0.020584  KCAL/ANGSTROM
     32         11  H    CARTESIAN Y    -0.561794     -0.247727  KCAL/ANGSTROM
     33         11  H    CARTESIAN Z     1.155635      0.183187  KCAL/ANGSTROM
     34         12  H    CARTESIAN X     3.561133      0.099507  KCAL/ANGSTROM
     35         12  H    CARTESIAN Y    -3.037439     -0.030745  KCAL/ANGSTROM
     36         12  H    CARTESIAN Z     0.472657     -0.121787  KCAL/ANGSTROM
     37         13  H    CARTESIAN X     3.187200      0.044316  KCAL/ANGSTROM
     38         13  H    CARTESIAN Y    -2.524614      0.301538  KCAL/ANGSTROM
     39         13  H    CARTESIAN Z    -1.182839     -0.441967  KCAL/ANGSTROM
     40         14  H    CARTESIAN X     4.801613      0.035799  KCAL/ANGSTROM
     41         14  H    CARTESIAN Y    -2.240247      0.050242  KCAL/ANGSTROM
     42         14  H    CARTESIAN Z    -0.511117     -0.140816  KCAL/ANGSTROM
     43         15  H    CARTESIAN X     1.616299      0.357979  KCAL/ANGSTROM
     44         15  H    CARTESIAN Y     0.148953      0.434917  KCAL/ANGSTROM
     45         15  H    CARTESIAN Z     2.968662      0.310584  KCAL/ANGSTROM
     46         16  O    CARTESIAN X     1.244072      0.342721  KCAL/ANGSTROM
     47         16  O    CARTESIAN Y     2.915199     -0.048542  KCAL/ANGSTROM
     48         16  O    CARTESIAN Z    -0.836183     -0.196814  KCAL/ANGSTROM
     49         17  O    CARTESIAN X     1.027608     -0.877987  KCAL/ANGSTROM
     50         17  O    CARTESIAN Y    -0.361522      1.054378  KCAL/ANGSTROM
     51         17  O    CARTESIAN Z     2.324027      0.122174  KCAL/ANGSTROM
     52         18  H    CARTESIAN X     1.603658     -0.165731  KCAL/ANGSTROM
     53         18  H    CARTESIAN Y     1.963649     -0.074603  KCAL/ANGSTROM
     54         18  H    CARTESIAN Z     0.175071     -0.219041  KCAL/ANGSTROM
     55         19  H    CARTESIAN X     1.737205      0.951951  KCAL/ANGSTROM
     56         19  H    CARTESIAN Y    -1.411857     -0.937011  KCAL/ANGSTROM
     57         19  H    CARTESIAN Z     1.885545     -1.863001  KCAL/ANGSTROM
     58         20  H    CARTESIAN X     1.139439     -0.042438  KCAL/ANGSTROM
     59         20  H    CARTESIAN Y     3.763612      0.070396  KCAL/ANGSTROM
     60         20  H    CARTESIAN Z    -0.350006      0.143485  KCAL/ANGSTROM
     61         21  H    CARTESIAN X     2.065124      0.050337  KCAL/ANGSTROM
     62         21  H    CARTESIAN Y     3.057151     -0.018721  KCAL/ANGSTROM
     63         21  H    CARTESIAN Z    -1.356786     -0.045628  KCAL/ANGSTROM




   ATOM                 CHEMICAL                   X               Y               Z
  NUMBER                 SYMBOL               (ANGSTROMS)     (ANGSTROMS)     (ANGSTROMS)
 
     1       C(HETATM    1  C1  ACY A   1)   -0.21652336  *   0.09046060  *   0.30042619  *
     2       C(HETATM    2  C2  ACY A   1)    1.12833988  *   0.12819368  *   0.94052607  *
     3       O(HETATM    3  O   ACY A   1)    1.89046570  *   1.21766820  *   0.91766483  *
     4       O(HETATM    4  O   EOH B   2)    1.89137255  *  -1.07123180  *   0.57527726  *
     5       C(HETATM    5  C1  EOH B   2)    3.29533810  *  -0.88553775  *   0.24420674  *
     6       C(HETATM    6  C2  EOH B   2)    3.72738153  *  -2.24195415  *  -0.26763738  *
     7       H(HETATM    7 1H1  ACY A   1)   -0.15880754  *  -0.17774973  *  -0.76980987  *
     8       H(HETATM    8 2H1  ACY A   1)   -0.88890695  *  -0.65093714  *   0.77347284  *
     9       H(HETATM    9 3H1  ACY A   1)   -0.73051385  *   1.06705940  *   0.36454694  *
    10       H(HETATM   10 1H1  EOH B   2)    3.34871736  *  -0.09171804  *  -0.52204775  *
    11       H(HETATM   11 2H1  EOH B   2)    3.82839804  *  -0.56179430  *   1.15563487  *
    12       H(HETATM   12 1H2  EOH B   2)    3.56113280  *  -3.03743949  *   0.47265671  *
    13       H(HETATM   13 2H2  EOH B   2)    3.18719956  *  -2.52461402  *  -1.18283865  *
    14       H(HETATM   14 3H2  EOH B   2)    4.80161322  *  -2.24024693  *  -0.51111661  *
    15       H(HETATM   15  H   ACY G   1)    1.61629853  *   0.14895255  *   2.96866216  *
    16       O(HETATM   16  O   HOH F   3)    1.24407171  *   2.91519858  *  -0.83618310  *
    17       O(HETATM   17  O   ACY G   1)    1.02760827  *  -0.36152220  *   2.32402698  *
    18       H(HETATM   18  H   UNK G    )    1.60365846  *   1.96364901  *   0.17507093  *
    19       H(HETATM   19  H   EOH B   2)    1.73720534  *  -1.41185727  *   1.88554485  *
    20       H(HETATM   20 1H   HOH F   3)    1.13943939  *   3.76361185  *  -0.35000573  *
    21       H(HETATM   21 2H   HOH F   3)    2.06512373  *   3.05715071  *  -1.35678644  *

                             CARTESIAN COORDINATES

   1    C       -0.216523357     0.090460603     0.300426195
   2    C        1.128339883     0.128193676     0.940526072
   3    O        1.890465703     1.217668201     0.917664835
   4    O        1.891372553    -1.071231799     0.575277263
   5    C        3.295338098    -0.885537747     0.244206739
   6    C        3.727381534    -2.241954152    -0.267637381
   7    H       -0.158807545    -0.177749729    -0.769809869
   8    H       -0.888906950    -0.650937139     0.773472843
   9    H       -0.730513854     1.067059396     0.364546943
  10    H        3.348717356    -0.091718035    -0.522047746
  11    H        3.828398037    -0.561794304     1.155634871
  12    H        3.561132802    -3.037439487     0.472656715
  13    H        3.187199563    -2.524614021    -1.182838649
  14    H        4.801613220    -2.240246929    -0.511116605
  15    H        1.616298533     0.148952548     2.968662163
  16    O        1.244071713     2.915198582    -0.836183102
  17    O        1.027608270    -0.361522195     2.324026976
  18    H        1.603658462     1.963649010     0.175070928
  19    H        1.737205337    -1.411857266     1.885544853
  20    H        1.139439387     3.763611849    -0.350005725
  21    H        2.065123728     3.057150712    -1.356786438


           Empirical Formula: C4 H13 O4  =    21 atoms



      MOLECULAR POINT GROUP   :   C1  


                  EIGENVALUES  
 -32.23802 -30.49088 -29.81041 -29.57825 -27.67197 -26.50446 -22.41992 -21.84229
 -19.52679 -18.64203 -18.25517 -18.05557 -16.95065 -16.09641 -15.78142 -15.36875
 -14.98796 -14.66826 -14.12974 -13.84538 -13.58002 -13.19737 -13.01459 -12.72746
 -12.55482 -11.90336   0.02861   1.05392   1.76083   2.39940   2.75967   3.01459
   3.59276   3.92972   4.65599   4.99614   5.01552   5.04193   5.38907   5.51759
   5.58296   5.65165   5.92348   6.17968   6.65999


              NET ATOMIC CHARGES AND DIPOLE CONTRIBUTIONS

  ATOM NO.                 TYPE                        CHARGE      No. of ELECS.   s-Pop       p-Pop       
    1          C(HETATM    1  C1  ACY A   1)          -0.518655        4.5187     1.06233     3.45632
    2          C(HETATM    2  C2  ACY A   1)           0.713536        3.2865     1.10910     2.17736
    3          O(HETATM    3  O   ACY A   1)          -0.670461        6.6705     1.84730     4.82316
    4          O(HETATM    4  O   EOH B   2)          -0.465685        6.4657     1.87960     4.58609
    5          C(HETATM    5  C1  EOH B   2)           0.008642        3.9914     1.10146     2.88990
    6          C(HETATM    6  C2  EOH B   2)          -0.476365        4.4764     1.05579     3.42058
    7          H(HETATM    7 1H1  ACY A   1)           0.208816        0.7912     0.79118
    8          H(HETATM    8 2H1  ACY A   1)           0.213197        0.7868     0.78680
    9          H(HETATM    9 3H1  ACY A   1)           0.209434        0.7906     0.79057
   10          H(HETATM   10 1H1  EOH B   2)           0.154994        0.8450     0.84501
   11          H(HETATM   11 2H1  EOH B   2)           0.152580        0.8474     0.84742
   12          H(HETATM   12 1H2  EOH B   2)           0.171937        0.8281     0.82806
   13          H(HETATM   13 2H2  EOH B   2)           0.168804        0.8312     0.83120
   14          H(HETATM   14 3H2  EOH B   2)           0.180797        0.8192     0.81920
   15          H(HETATM   15  H   ACY G   1)           0.417796        0.5822     0.58220
   16          O(HETATM   16  O   HOH F   3)          -0.678812        6.6788     1.81373     4.86508
   17          O(HETATM   17  O   ACY G   1)          -0.545149        6.5451     1.85764     4.68751
   18          H(HETATM   18  H   UNK G    )           0.444013        0.5560     0.55599
   19          H(HETATM   19  H   EOH B   2)           0.510771        0.4892     0.48923
   20          H(HETATM   20 1H   HOH F   3)           0.400893        0.5991     0.59911
   21          H(HETATM   21 2H   HOH F   3)           0.398918        0.6011     0.60108

          NET CHARGE ON RESIDUES

      Residue         Charge  Anion or
                              Cation?
      ACY A   1       +0.600  CATION
      EOH B   2       +0.406
      HOH F   3       +0.121
      ACY G   1       -0.127
 


 DIPOLE           X         Y         Z       TOTAL
 POINT-CHG.     0.868     2.309     0.500     2.517
 HYBRID         0.417     0.380     0.426     0.706
 SUM            1.285     2.689     0.926     3.120


          ATOMIC ORBITAL ELECTRON POPULATIONS

                   Atom                  s        px        py        pz   
   C(HETATM    1  C1  ACY A   1)   1.06233   1.03121   1.23783   1.18728
   C(HETATM    2  C2  ACY A   1)   1.10910   0.81232   0.68938   0.67566
   O(HETATM    3  O   ACY A   1)   1.84730   1.65391   1.43892   1.73033
   O(HETATM    4  O   EOH B   2)   1.87960   1.38426   1.48129   1.72054
   C(HETATM    5  C1  EOH B   2)   1.10146   0.71731   1.05029   1.12230
   C(HETATM    6  C2  EOH B   2)   1.05579   1.17957   1.05799   1.18302
   H(HETATM    7 1H1  ACY A   1)   0.79118
   H(HETATM    8 2H1  ACY A   1)   0.78680
   H(HETATM    9 3H1  ACY A   1)   0.79057
   H(HETATM   10 1H1  EOH B   2)   0.84501
   H(HETATM   11 2H1  EOH B   2)   0.84742
   H(HETATM   12 1H2  EOH B   2)   0.82806
   H(HETATM   13 2H2  EOH B   2)   0.83120
   H(HETATM   14 3H2  EOH B   2)   0.81920
   H(HETATM   15  H   ACY G   1)   0.58220
   O(HETATM   16  O   HOH F   3)   1.81373   1.61413   1.55351   1.69744
   O(HETATM   17  O   ACY G   1)   1.85764   1.68771   1.59026   1.40954
   H(HETATM   18  H   UNK G    )   0.55599
   H(HETATM   19  H   EOH B   2)   0.48923
   H(HETATM   20 1H   HOH F   3)   0.59911
   H(HETATM   21 2H   HOH F   3)   0.60108
 *******************************************************************************
 ** Site#: 37037        For non-commercial use only           Version 21.153W **
 *******************************************************************************
 ** Cite this program as: MOPAC2016, Version: 21.153W, James J. P. Stewart,   **
 ** Stewart Computational Chemistry, web: HTTP://OpenMOPAC.net. Days left: 362**
 *******************************************************************************
 **                                                                           **
 **                                MOPAC2016                                  **
 **                                                                           **
 *******************************************************************************

                              PM7 CALCULATION RESULTS

 *******************************************************************************
 *  CALCULATION DONE:                                Sat Jun  5 17:00:25 2021  *
 *
 *
 *
 *                 CHARGE ON SYSTEM = +1
 *
 *
 *
 *  EPS=78.4   - USE ANDREAS KLAMT'S COSMO IMPLICIT SOLVATION MODEL
 *  OLDGEO     - PREVIOUS GEOMETRY TO BE USED
 *  FORCE      - FORCE CALCULATION SPECIFIED
 *  T=         - A TIME OF 172800.0 SECONDS REQUESTED
 *  DUMP=N     - RESTART FILE WRITTEN EVERY 7200.0 SECONDS REQUESTED
 *  ISOTOPE    - SAVE THE FORCE MATRIX FOR USE LATER
 *******************************************************************************
oldgeo FORCE ISOTOPE eps=78.4 charge=1
 Verify transition state

   ATOM                 CHEMICAL                   X               Y               Z
  NUMBER                 SYMBOL               (ANGSTROMS)     (ANGSTROMS)     (ANGSTROMS)
 
     1       C(HETATM    1  C1  ACY A   1)   -0.21652336  *   0.09046060  *   0.30042619  *
     2       C(HETATM    2  C2  ACY A   1)    1.12833988  *   0.12819368  *   0.94052607  *
     3       O(HETATM    3  O   ACY A   1)    1.89046570  *   1.21766820  *   0.91766483  *
     4       O(HETATM    4  O   EOH B   2)    1.89137255  *  -1.07123180  *   0.57527726  *
     5       C(HETATM    5  C1  EOH B   2)    3.29533810  *  -0.88553775  *   0.24420674  *
     6       C(HETATM    6  C2  EOH B   2)    3.72738153  *  -2.24195415  *  -0.26763738  *
     7       H(HETATM    7 1H1  ACY A   1)   -0.15880754  *  -0.17774973  *  -0.76980987  *
     8       H(HETATM    8 2H1  ACY A   1)   -0.88890695  *  -0.65093714  *   0.77347284  *
     9       H(HETATM    9 3H1  ACY A   1)   -0.73051385  *   1.06705940  *   0.36454694  *
    10       H(HETATM   10 1H1  EOH B   2)    3.34871736  *  -0.09171804  *  -0.52204775  *
    11       H(HETATM   11 2H1  EOH B   2)    3.82839804  *  -0.56179430  *   1.15563487  *
    12       H(HETATM   12 1H2  EOH B   2)    3.56113280  *  -3.03743949  *   0.47265671  *
    13       H(HETATM   13 2H2  EOH B   2)    3.18719956  *  -2.52461402  *  -1.18283865  *
    14       H(HETATM   14 3H2  EOH B   2)    4.80161322  *  -2.24024693  *  -0.51111661  *
    15       H(HETATM   15  H   ACY G   1)    1.61629853  *   0.14895255  *   2.96866216  *
    16       O(HETATM   16  O   HOH F   3)    1.24407171  *   2.91519858  *  -0.83618310  *
    17       O(HETATM   17  O   ACY G   1)    1.02760827  *  -0.36152220  *   2.32402698  *
    18       H(HETATM   18  H   UNK G    )    1.60365846  *   1.96364901  *   0.17507093  *
    19       H(HETATM   19  H   EOH B   2)    1.73720534  *  -1.41185727  *   1.88554485  *
    20       H(HETATM   20 1H   HOH F   3)    1.13943939  *   3.76361185  *  -0.35000573  *
    21       H(HETATM   21 2H   HOH F   3)    2.06512373  *   3.05715071  *  -1.35678644  *
 

 General Reference for PM7:
 "Optimization of Parameters for Semiempirical Methods VI: More Modifications to the 
 NDDO Approximations and Re-optimization of Parameters", J. J. P. Stewart, J. Mol. Mod., 1:32, 19 (2013)
 https://link.springer.com/article/10.1007/s00894-012-1667-x

           Empirical Formula: C4 H13 O4  =    21 atoms



      MOLECULAR POINT GROUP   :   C1  


      RHF CALCULATION, NO. OF DOUBLY OCCUPIED LEVELS = 26



          HEAT OF FORMATION =    -103.968275 KCALS/MOLE


          CARTESIAN COORDINATE DERIVATIVES

   NUMBER  ATOM         X            Y            Z

     1       C     -0.387689    -0.238674     0.145250
     2       C      0.354748     0.202655     0.383847
     3       O      0.224367     0.447395    -0.005091
     4       O     -0.018783    -1.135309     0.251489
     5       C     -0.124681     0.828325     0.017905
     6       C      0.039449    -0.501475     0.167036
     7       H      0.015815    -0.234137     0.349949
     8       H     -0.028436    -0.075674     0.288767
     9       H     -0.142355    -0.161626    -0.183705
    10       H      0.149984    -0.311203     0.413611
    11       H      0.116630    -0.319239     0.218348
    12       H      0.034676     0.019520    -0.137225
    13       H     -0.128381     0.437678    -0.319895
    14       H     -0.066957     0.095002    -0.134529
    15       H      0.492939     0.361671     0.106284
    16       O      0.400685     0.125104    -0.340296
    17       O     -0.750202     0.841462     0.985291
    18       H     -0.248094    -0.041776    -0.155178
    19       H      0.213136    -0.324384    -2.130064
    20       H      0.012729    -0.048944     0.346359
    21       H     -0.159275     0.033889    -0.267847
 


          GRADIENT NORM =   3.49384


          TIME FOR SCF CALCULATION =    0.02

          TIME FOR DERIVATIVES     =    0.01

          MOLECULAR WEIGHT =  125.14



          ROTATIONAL CONSTANTS IN CM(-1)

          A =    0.07466642   B =    0.03928819   C =    0.03140985



           PRINCIPAL MOMENTS OF INERTIA IN UNITS OF 10**(-40)*GRAM-CM**2

          A =      374.9045   B =      712.4984   C =      891.2102


          ORIENTATION OF MOLECULE IN FORCE CALCULATION

    NO.       ATOM         X         Y         Z

     1          C      -1.8588   -0.1240    0.6315
     2          C      -0.3689   -0.1240    0.6315
     3          O       0.3368    1.0031    0.6315
     4          O       0.1325   -1.0740   -0.3686
     5          C       1.2623   -0.6458   -1.1782
     6          C       1.3980   -1.7395   -2.2146
     7          H      -2.2733   -0.0630   -0.3908
     8          H      -2.2813   -1.0404    1.0868
     9          H      -2.2705    0.7289    1.2017
    10          H       1.0014    0.3365   -1.6107
    11          H       2.1432   -0.5425   -0.5203
    12          H       1.5459   -2.7284   -1.7579
    13          H       0.5101   -1.8034   -2.8602
    14          H       2.2631   -1.5482   -2.8690
    15          H       0.9434   -0.6368    2.1699
    16          O      -0.9572    3.0527   -0.0757
    17          O       0.1221   -1.0010    1.7056
    18          H      -0.2222    1.8953    0.3459
    19          H       0.5477   -1.7941    0.7111
    20          H      -0.8213    3.7071    0.6457
    21          H      -0.4361    3.4294   -0.8186


    FIRST DERIVATIVES WILL BE USED IN THE CALCULATION OF SECOND DERIVATIVES

          ESTIMATED TIME TO COMPLETE CALCULATION =        3.94 SECONDS

    FOR POINT-GROUP C1   THERE ARE   1 UNIQUE SYMMETRY FUNCTIONS.

 STEP:   1 TIME =     0.03 SECS, INTEGRAL =      0.03 TIME LEFT: 172799.94
 STEP:   2 TIME =     0.05 SECS, INTEGRAL =      0.08 TIME LEFT: 172799.89
 STEP:   3 TIME =     0.05 SECS, INTEGRAL =      0.12 TIME LEFT: 172799.84
 STEP:   4 TIME =     0.05 SECS, INTEGRAL =      0.18 TIME LEFT: 172799.79
 STEP:   5 TIME =     0.05 SECS, INTEGRAL =      0.22 TIME LEFT: 172799.75
 STEP:   6 TIME =     0.04 SECS, INTEGRAL =      0.27 TIME LEFT: 172799.70
 STEP:   7 TIME =     0.05 SECS, INTEGRAL =      0.31 TIME LEFT: 172799.66
 STEP:   8 TIME =     0.05 SECS, INTEGRAL =      0.36 TIME LEFT: 172799.61
 STEP:   9 TIME =     0.03 SECS, INTEGRAL =      0.39 TIME LEFT: 172799.58
 STEP:  10 TIME =     0.03 SECS, INTEGRAL =      0.42 TIME LEFT: 172799.55
 STEP:  11 TIME =     0.05 SECS, INTEGRAL =      0.47 TIME LEFT: 172799.50
 STEP:  12 TIME =     0.03 SECS, INTEGRAL =      0.50 TIME LEFT: 172799.47
 STEP:  13 TIME =     0.05 SECS, INTEGRAL =      0.55 TIME LEFT: 172799.42
 STEP:  14 TIME =     0.04 SECS, INTEGRAL =      0.58 TIME LEFT: 172799.39
 STEP:  15 TIME =     0.04 SECS, INTEGRAL =      0.62 TIME LEFT: 172799.34
 STEP:  16 TIME =     0.04 SECS, INTEGRAL =      0.66 TIME LEFT: 172799.31
 STEP:  17 TIME =     0.04 SECS, INTEGRAL =      0.70 TIME LEFT: 172799.27
 STEP:  18 TIME =     0.03 SECS, INTEGRAL =      0.72 TIME LEFT: 172799.25
 STEP:  19 TIME =     0.04 SECS, INTEGRAL =      0.76 TIME LEFT: 172799.21
 STEP:  20 TIME =     0.05 SECS, INTEGRAL =      0.80 TIME LEFT: 172799.16
 STEP:  21 TIME =     0.04 SECS, INTEGRAL =      0.85 TIME LEFT: 172799.12
 STEP:  22 TIME =     0.04 SECS, INTEGRAL =      0.88 TIME LEFT: 172799.09
 STEP:  23 TIME =     0.05 SECS, INTEGRAL =      0.93 TIME LEFT: 172799.04
 STEP:  24 TIME =     0.03 SECS, INTEGRAL =      0.96 TIME LEFT: 172799.01
 STEP:  25 TIME =     0.05 SECS, INTEGRAL =      1.01 TIME LEFT: 172798.96
 STEP:  26 TIME =     0.03 SECS, INTEGRAL =      1.04 TIME LEFT: 172798.93
 STEP:  27 TIME =     0.03 SECS, INTEGRAL =      1.07 TIME LEFT: 172798.90
 STEP:  28 TIME =     0.03 SECS, INTEGRAL =      1.10 TIME LEFT: 172798.87
 STEP:  29 TIME =     0.03 SECS, INTEGRAL =      1.13 TIME LEFT: 172798.84
 STEP:  30 TIME =     0.05 SECS, INTEGRAL =      1.18 TIME LEFT: 172798.79
 STEP:  31 TIME =     0.03 SECS, INTEGRAL =      1.21 TIME LEFT: 172798.76
 STEP:  32 TIME =     0.05 SECS, INTEGRAL =      1.25 TIME LEFT: 172798.71
 STEP:  33 TIME =     0.05 SECS, INTEGRAL =      1.30 TIME LEFT: 172798.67
 STEP:  34 TIME =     0.03 SECS, INTEGRAL =      1.33 TIME LEFT: 172798.64
 STEP:  35 TIME =     0.05 SECS, INTEGRAL =      1.38 TIME LEFT: 172798.59
 STEP:  36 TIME =     0.04 SECS, INTEGRAL =      1.41 TIME LEFT: 172798.55
 STEP:  37 TIME =     0.03 SECS, INTEGRAL =      1.44 TIME LEFT: 172798.53
 STEP:  38 TIME =     0.04 SECS, INTEGRAL =      1.48 TIME LEFT: 172798.49
 STEP:  39 TIME =     0.03 SECS, INTEGRAL =      1.50 TIME LEFT: 172798.46
 STEP:  40 TIME =     0.05 SECS, INTEGRAL =      1.55 TIME LEFT: 172798.42
 STEP:  41 TIME =     0.03 SECS, INTEGRAL =      1.58 TIME LEFT: 172798.39
 STEP:  42 TIME =     0.05 SECS, INTEGRAL =      1.63 TIME LEFT: 172798.34
 STEP:  43 TIME =     0.03 SECS, INTEGRAL =      1.66 TIME LEFT: 172798.31
 STEP:  44 TIME =     0.03 SECS, INTEGRAL =      1.69 TIME LEFT: 172798.28
 STEP:  45 TIME =     0.05 SECS, INTEGRAL =      1.74 TIME LEFT: 172798.23
 STEP:  46 TIME =     0.03 SECS, INTEGRAL =      1.77 TIME LEFT: 172798.20
 STEP:  47 TIME =     0.03 SECS, INTEGRAL =      1.80 TIME LEFT: 172798.17
 STEP:  48 TIME =     0.03 SECS, INTEGRAL =      1.83 TIME LEFT: 172798.14
 STEP:  49 TIME =     0.03 SECS, INTEGRAL =      1.86 TIME LEFT: 172798.11
 STEP:  50 TIME =     0.05 SECS, INTEGRAL =      1.91 TIME LEFT: 172798.06
 STEP:  51 TIME =     0.03 SECS, INTEGRAL =      1.94 TIME LEFT: 172798.03
 STEP:  52 TIME =     0.05 SECS, INTEGRAL =      1.99 TIME LEFT: 172797.98
 STEP:  53 TIME =     0.03 SECS, INTEGRAL =      2.02 TIME LEFT: 172797.95
 STEP:  54 TIME =     0.03 SECS, INTEGRAL =      2.05 TIME LEFT: 172797.92
 STEP:  55 TIME =     0.04 SECS, INTEGRAL =      2.09 TIME LEFT: 172797.88
 STEP:  56 TIME =     0.03 SECS, INTEGRAL =      2.12 TIME LEFT: 172797.85
 STEP:  57 TIME =     0.04 SECS, INTEGRAL =      2.15 TIME LEFT: 172797.82
 STEP:  58 TIME =     0.04 SECS, INTEGRAL =      2.19 TIME LEFT: 172797.78
 STEP:  59 TIME =     0.03 SECS, INTEGRAL =      2.21 TIME LEFT: 172797.75
 STEP:  60 TIME =     0.04 SECS, INTEGRAL =      2.25 TIME LEFT: 172797.72
 STEP:  61 TIME =     0.03 SECS, INTEGRAL =      2.28 TIME LEFT: 172797.69
 STEP:  62 TIME =     0.03 SECS, INTEGRAL =      2.30 TIME LEFT: 172797.66
 STEP:  63 TIME =     0.03 SECS, INTEGRAL =      2.34 TIME LEFT: 172797.63

(To convert to Hartree/Bohr^2, multiply by (10^(-21) x N x a0^2)/(4.184 x 627.51) =  0.0642)


           FORCE MATRIX IN MILLIDYNES/ANGSTROM


                  C  1       C  2       O  3       O  4       C  5       C  6
 ------------------------------------------------------------------------------
     C    1  11.260366
     C    2   3.370081  14.002603
     O    3   0.856979   5.708349   9.140256
     O    4   0.819480   2.497519   1.261576   8.543849
     C    5   0.119333   0.938927   0.138717   3.167807  11.655507
     C    6   0.057371   0.223542   0.074390   1.122680   3.318411  11.342723
     H    7   3.284418   0.771234   0.039992   0.033682   0.025623   0.010394
     H    8   3.270106   0.763510   0.055423   0.027243   0.018665   0.008782
     H    9   3.274727   0.780524   0.057089   0.048045   0.016267   0.006620
     H   10   0.012940   0.091772   0.042231   0.692803   3.305857   0.649315
     H   11   0.012454   0.071266   0.013515   0.665633   3.312298   0.641986
     H   12   0.007552   0.031807   0.011794   0.030754   0.700065   3.370466
     H   13   0.007634   0.031352   0.012346   0.025624   0.706565   3.372084
     H   14   0.006929   0.029787   0.010491   0.071413   0.694127   3.318766
     H   15   0.091898   0.915298   0.108842   0.168061   0.071619   0.027844
     O   16   0.069572   0.419682   1.301344   0.073808   0.033481   0.019604
     O   17   0.841133   2.417942   1.367899   2.496354   0.239616   0.121001
     H   18   0.076305   1.532506   1.837031   0.187771   0.076396   0.043451
     H   19   0.156781   1.842121   0.122771   1.179120   0.487791   0.079758
     H   20   0.027966   0.077610   0.138550   0.011492   0.005169   0.003025
     H   21   0.013272   0.063839   0.116627   0.012291   0.005234   0.003038


                  H  7       H  8       H  9       H 10       H 11       H 12
 ------------------------------------------------------------------------------
     H    7   4.096304
     H    8   0.438906   4.079679
     H    9   0.437607   0.433776   4.081766
     H   10   0.003276   0.001875   0.001935   4.151091
     H   11   0.005446   0.001835   0.001188   0.434794   4.123732
     H   12   0.001486   0.001760   0.000837   0.046317   0.017254   4.165637
     H   13   0.004246   0.001580   0.001026   0.016542   0.047208   0.449535
     H   14   0.001577   0.000942   0.001026   0.015835   0.016567   0.452165
     H   15   0.014232   0.016602   0.011980   0.007547   0.008605   0.004523
     O   16   0.016632   0.010897   0.079931   0.008662   0.005579   0.002694
     O   17   0.047876   0.020251   0.032402   0.027750   0.042434   0.024123
     H   18   0.028167   0.020354   0.070192   0.020981   0.013664   0.005904
     H   19   0.038034   0.018662   0.016320   0.061091   0.054789   0.022715
     H   20   0.004408   0.002889   0.060345   0.002019   0.001461   0.000585
     H   21   0.004000   0.001274   0.013796   0.002671   0.001274   0.000657


                  H 13       H 14       H 15       O 16       O 17       H 18
 ------------------------------------------------------------------------------
     H   13   4.169095
     H   14   0.452597   4.132967
     H   15   0.003764   0.003511   4.042648
     O   16   0.003577   0.003002   0.034857   6.185808
     O   17   0.018353   0.014317   3.516792   0.105556   7.345673
     H   18   0.007726   0.005728   0.079452   0.638039   0.253431   2.092440
     H   19   0.021264   0.014245   0.323623   0.029420   1.259346   0.073704
     H   20   0.000452   0.000382   0.005500   3.742561   0.017206   0.300070
     H   21   0.000738   0.001345   0.005059   3.693050   0.015554   0.301500


                  H 19       H 20       H 21
 ------------------------------------------
     H   19   2.544705
     H   20   0.004049   4.180730
     H   21   0.004186   0.727377   4.155597


          HEAT OF FORMATION =    -103.968275 KCALS/MOLE

          ZERO POINT ENERGY      96.695 KCAL/MOL

         NOTE: SYSTEM IS NOT A GROUND STATE, THEREFORE ZERO POINT
         ENERGY IS NOT MEANINGFULL. ZERO POINT ENERGY PRINTED
         DOES NOT INCLUDE THE  3 IMAGINARY FREQUENCIES


           NORMAL COORDINATE ANALYSIS (Total motion = 1 Angstrom)


   Root No.       1         2         3         4         5         6         7         8

                 1 A       2 A       3 A       4 A       5 A       6 A       7 A       8 A   

               -1229.7    -187.9     -57.0      22.4      67.2     122.8     141.5     157.6
  
           1    0.0002   -0.0020    0.0048   -0.0029   -0.0143    0.0027    0.0003   -0.0087
           2    0.0003   -0.0085    0.0058    0.0134   -0.0517   -0.0001   -0.0283   -0.0118
           3    0.0045   -0.0084   -0.0067    0.0220    0.0201   -0.0288   -0.0273    0.0263
           4    0.0017   -0.0010    0.0042   -0.0030   -0.0148    0.0026   -0.0003   -0.0093
           5   -0.0029    0.0061    0.0021    0.0023   -0.0162   -0.0002   -0.0041   -0.0062
           6   -0.0647   -0.0107   -0.0034   -0.0024    0.0116   -0.0009   -0.0040   -0.0120
           7    0.0001   -0.0135    0.0040    0.0044   -0.0344    0.0038   -0.0102   -0.0119
           8    0.0004    0.0070    0.0031   -0.0014   -0.0054   -0.0002    0.0047   -0.0014
           9    0.0033   -0.0342   -0.0063    0.0027    0.0112    0.0062    0.0017   -0.0319
          10   -0.0096    0.0028    0.0024   -0.0229   -0.0007    0.0154    0.0194   -0.0167
          11    0.0313   -0.0086   -0.0021    0.0144   -0.0047   -0.0045   -0.0044   -0.0094
          12   -0.0093    0.0023    0.0033   -0.0234    0.0072    0.0109    0.0077   -0.0132
          13   -0.0121    0.0013    0.0023   -0.0275   -0.0222   -0.0057   -0.0051    0.0241
          14    0.0008   -0.0115   -0.0070    0.0208    0.0268    0.0027   -0.0010   -0.0282
          15    0.0081   -0.0004    0.0012   -0.0267   -0.0053   -0.0122   -0.0223    0.0279
          16   -0.0006    0.0050   -0.0040    0.0418    0.0025   -0.0088   -0.0094    0.0181
          17   -0.0009   -0.0188   -0.0099   -0.0325    0.0265   -0.0086   -0.0272   -0.0022
          18    0.0002    0.0077    0.0031    0.0388   -0.0016   -0.0009    0.0038    0.0007
          19   -0.0037   -0.0024    0.0128   -0.0197   -0.0211    0.0232    0.0152   -0.0386
          20   -0.0087   -0.0259    0.2802    0.0251   -0.0161   -0.0033   -0.0515   -0.0122
          21    0.0005   -0.0096    0.0066    0.0296    0.0249   -0.0375   -0.0348    0.0388
          22    0.0031    0.0083   -0.0003   -0.0025    0.0111   -0.0060    0.0089    0.0064
          23    0.0011   -0.0086   -0.1128    0.0133   -0.0834    0.0009   -0.0288   -0.0126
          24    0.0048    0.0017   -0.2524    0.0220   -0.0195   -0.0352   -0.0201    0.0393
          25    0.0038   -0.0138    0.0079    0.0137   -0.0332   -0.0087   -0.0232    0.0058
          26    0.0001   -0.0097   -0.1442    0.0124   -0.0894    0.0017   -0.0256   -0.0124
          27    0.0024   -0.0198    0.2206    0.0361    0.0613   -0.0397   -0.0470    0.0402
          28    0.0256   -0.0006    0.0059   -0.0710   -0.0564   -0.0306   -0.0314    0.0725
          29    0.0022   -0.0156   -0.0069   -0.0158    0.0169   -0.0074   -0.0158   -0.0073
          30   -0.0095   -0.0085   -0.0008   -0.0827   -0.0071   -0.0205   -0.0389    0.0452
          31   -0.0134    0.0008    0.0044   -0.0419   -0.0189    0.0041    0.0055    0.0083
          32   -0.0121   -0.0036   -0.0088    0.0993    0.0574    0.0259    0.0290   -0.0769
          33    0.0074   -0.0010   -0.0013   -0.0198   -0.0145   -0.0295   -0.0411    0.0569
          34   -0.0057    0.0056   -0.0156    0.0814    0.0379    0.1747   -0.0944    0.0829
          35    0.0029   -0.0149   -0.0106    0.0022    0.0333    0.0216   -0.0272   -0.0061
          36    0.0064    0.0160    0.0056    0.1028    0.0015    0.0034    0.0330   -0.0302
          37   -0.0003    0.0059   -0.0015    0.0558   -0.0014   -0.0885    0.0243   -0.0113
          38   -0.0006   -0.0249   -0.0026   -0.1131   -0.0044   -0.1337    0.0117   -0.0243
          39    0.0041    0.0072   -0.0007    0.0277    0.0069    0.1201   -0.0460    0.0427
          40   -0.0014    0.0057    0.0008    0.0442   -0.0097   -0.1232    0.0414   -0.0238
          41    0.0013   -0.0224   -0.0196   -0.0308    0.0510    0.0848   -0.0931    0.0504
          42    0.0049    0.0078    0.0067    0.0428   -0.0106   -0.1251    0.0522   -0.0402
          43    0.0293    0.0046   -0.0031    0.0142    0.0059   -0.0207   -0.0078    0.0226
          44   -0.0078    0.0308    0.0094   -0.0263    0.0147    0.0132    0.0308    0.0016
          45    0.0100   -0.0065    0.0061   -0.0269    0.0042    0.0230    0.0132   -0.0350
          46   -0.0001   -0.0023   -0.0116    0.0004    0.0537    0.0017    0.0007   -0.0031
          47    0.0003    0.0115    0.0002    0.0018    0.0276    0.0028    0.0383    0.0441
          48    0.0000    0.0196    0.0051    0.0128   -0.0457    0.0126    0.0300    0.0185
          49    0.0141    0.0046    0.0002    0.0075    0.0130   -0.0100    0.0049    0.0095
          50   -0.0309    0.0214    0.0064   -0.0157   -0.0065    0.0048    0.0108    0.0047
          51   -0.0026    0.0024    0.0026   -0.0227    0.0075    0.0090    0.0049   -0.0122
          52   -0.0005   -0.0286   -0.0007    0.0077   -0.0218    0.0050   -0.0089   -0.0116
          53    0.0010    0.0120    0.0001    0.0006   -0.0104    0.0014    0.0047   -0.0025
          54    0.0149   -0.0744    0.0006    0.0097   -0.0258    0.0173    0.0456    0.0170
          55    0.0217    0.0057    0.0040   -0.0109    0.0303    0.0197    0.0364   -0.0294
          56    0.0333    0.0107    0.0031   -0.0051    0.0074    0.0095    0.0154   -0.0166
          57    0.7080    0.0135    0.0086   -0.0397    0.0048    0.0190    0.0121   -0.0144
          58   -0.0008    0.0516    0.0027    0.0069    0.0504   -0.0107   -0.0310   -0.0083
          59    0.0005   -0.2192    0.0029    0.0111   -0.0161    0.0236    0.1152    0.1061
          60   -0.0003    0.2304   -0.0001    0.0028   -0.0054   -0.0052   -0.0393   -0.0420
          61    0.0007    0.0505   -0.0230   -0.0102    0.1063   -0.0003    0.0030   -0.0117
          62   -0.0006    0.1845   -0.0028   -0.0048    0.0375   -0.0110   -0.0276   -0.0148
          63    0.0006    0.1410   -0.0047    0.0021   -0.0027    0.0048    0.0007   -0.0152


   Root No.       9        10        11        12        13        14        15        16

                 9 A      10 A      11 A      12 A      13 A      14 A      15 A      16 A   

                 189.2     275.6     316.8     338.5     371.2     444.2     477.2     555.7
  
           1    0.0042    0.0157    0.0064    0.0056    0.0197   -0.0073   -0.0266   -0.0374
           2   -0.0217    0.0354    0.0125   -0.0038   -0.0432    0.0119   -0.0088    0.0035
           3   -0.0007    0.0160   -0.0436   -0.0253    0.0004    0.0121    0.0040   -0.0026
           4    0.0062    0.0142    0.0047    0.0034    0.0199   -0.0071   -0.0249   -0.0293
           5    0.0160   -0.0301   -0.0035   -0.0202    0.0232   -0.0027   -0.0202   -0.0071
           6    0.0056    0.0110    0.0157    0.0008    0.0086   -0.0087   -0.0234    0.0480
           7   -0.0152    0.0042   -0.0023    0.0196    0.0557    0.0044    0.0386    0.0074
           8    0.0250   -0.0083    0.0036   -0.0226    0.0062   -0.0081   -0.0399   -0.0324
           9    0.0467    0.0156    0.0319   -0.0418   -0.0095   -0.0068    0.0420   -0.0285
          10    0.0010    0.0241   -0.0414   -0.0041   -0.0258    0.0029   -0.0055    0.0003
          11    0.0432   -0.0193   -0.0172    0.0024    0.0101   -0.0009   -0.0062    0.0566
          12   -0.0218    0.0120   -0.0002   -0.0016    0.0001   -0.0040   -0.0202    0.0042
          13    0.0347    0.0029   -0.0321    0.0051   -0.0224    0.0069    0.0135    0.0196
          14   -0.0110   -0.0041   -0.0236    0.0456   -0.0068    0.0032    0.0077   -0.0000
          15    0.0013   -0.0136    0.0181    0.0334    0.0035   -0.0041   -0.0037   -0.0244
          16   -0.0266    0.0039    0.0113   -0.0443    0.0056   -0.0016   -0.0036    0.0141
          17   -0.0311   -0.0042    0.0054    0.0213    0.0056   -0.0013   -0.0003   -0.0134
          18    0.0112   -0.0136   -0.0049    0.0598   -0.0040   -0.0005    0.0040   -0.0231
          19    0.0068    0.0123    0.0626    0.0325    0.0225   -0.0244   -0.0645    0.0297
          20   -0.0310    0.0542    0.0166   -0.0034   -0.0752    0.0273   -0.0056    0.0158
          21   -0.0022    0.0186   -0.0688   -0.0377   -0.0028    0.0202    0.0210   -0.0331
          22    0.0283   -0.0307   -0.0288   -0.0163    0.0764   -0.0096   -0.0169   -0.0805
          23   -0.0361    0.0608    0.0178    0.0026   -0.0759    0.0130   -0.0074    0.0085
          24   -0.0066    0.0235   -0.0688   -0.0339   -0.0057    0.0127    0.0200   -0.0390
          25   -0.0226    0.0611   -0.0174   -0.0015   -0.0407    0.0055   -0.0032   -0.0641
          26   -0.0366    0.0585    0.0194    0.0040   -0.0753    0.0078   -0.0078    0.0092
          27   -0.0002    0.0169   -0.0730   -0.0427   -0.0019    0.0216    0.0225   -0.0320
          28    0.0941   -0.0248   -0.0233    0.0088   -0.0203    0.0087    0.0293    0.0512
          29    0.0028   -0.0105   -0.0165    0.0466   -0.0069    0.0036    0.0122    0.0001
          30   -0.0004   -0.0116    0.0257    0.0350   -0.0016   -0.0033    0.0003   -0.0381
          31    0.0320    0.0130   -0.0422    0.0008   -0.0271    0.0063    0.0053    0.0203
          32   -0.0617    0.0136   -0.0287    0.0410   -0.0029    0.0001   -0.0076   -0.0244
          33    0.0122   -0.0300    0.0345    0.0381    0.0102   -0.0033    0.0093   -0.0226
          34   -0.0225    0.0016    0.0291   -0.0686    0.0163   -0.0042   -0.0105    0.0179
          35   -0.0251   -0.0053   -0.0038    0.0309    0.0026    0.0000    0.0025   -0.0115
          36    0.0230   -0.0151   -0.0322    0.0931   -0.0153    0.0039    0.0143   -0.0238
          37   -0.0594    0.0075    0.0280   -0.0689    0.0182   -0.0054   -0.0127    0.0182
          38   -0.0273   -0.0032    0.0010    0.0297   -0.0013   -0.0005    0.0021   -0.0166
          39    0.0552   -0.0185   -0.0270    0.0904   -0.0202    0.0044    0.0152   -0.0264
          40   -0.0555    0.0078    0.0208   -0.0580    0.0135   -0.0041   -0.0094    0.0156
          41   -0.0568   -0.0051    0.0485   -0.0332    0.0298   -0.0093   -0.0194   -0.0105
          42   -0.0333   -0.0094    0.0186    0.0294    0.0122   -0.0058   -0.0083   -0.0223
          43    0.0209   -0.0328    0.0899    0.0257   -0.0099   -0.0110   -0.0430    0.0915
          44   -0.0446   -0.0533    0.0122   -0.0251   -0.0631    0.0348    0.1360   -0.0264
          45   -0.0250    0.0472   -0.0636   -0.0202    0.0158    0.0026    0.0183   -0.0696
          46   -0.0078   -0.0409   -0.0078   -0.0049   -0.0096   -0.0018   -0.0019    0.0023
          47    0.0046    0.0659    0.0104    0.0091    0.0129   -0.0161    0.0072    0.0012
          48   -0.0172   -0.0364   -0.0072   -0.0041   -0.0096   -0.0063   -0.0069   -0.0014
          49    0.0090   -0.0141    0.0539    0.0216   -0.0342    0.0019    0.0065    0.0128
          50   -0.0179   -0.0456    0.0060   -0.0254    0.0010    0.0121    0.0436   -0.0109
          51   -0.0222    0.0038   -0.0005   -0.0112    0.0104   -0.0026   -0.0076    0.0467
          52   -0.0179    0.0051   -0.0015    0.0170    0.0530   -0.0152    0.1087    0.0304
          53    0.0202   -0.0541   -0.0044   -0.0318    0.0037    0.0050   -0.0600   -0.0292
          54    0.0029   -0.0114    0.0169   -0.0084    0.0083    0.1005    0.0027   -0.0066
          55   -0.0265    0.0276   -0.0229    0.0076   -0.0795    0.0190    0.0587   -0.0308
          56   -0.0059   -0.0264   -0.0224   -0.0210   -0.0237    0.0143    0.0412    0.0138
          57   -0.0465    0.0069   -0.0005   -0.0289    0.0075   -0.0033   -0.0015    0.0125
          58   -0.0181   -0.0605   -0.0438   -0.0236   -0.0794   -0.2701   -0.0401   -0.0355
          59   -0.0352   -0.0098    0.0009    0.0092    0.0097    0.0349   -0.0172    0.0060
          60    0.0236    0.0300    0.0071   -0.0043    0.0033   -0.0040    0.0135   -0.0030
          61    0.0260    0.0008    0.0256   -0.0066    0.0049    0.2960   -0.1027   -0.0311
          62    0.0341    0.1328    0.0236    0.0191    0.0540   -0.0566    0.1135    0.0377
          63    0.0203    0.0329    0.0240    0.0028    0.0235    0.1795   -0.0150   -0.0029


   Root No.      17        18        19        20        21        22        23        24

                17 A      18 A      19 A      20 A      21 A      22 A      23 A      24 A   

                 572.6     626.5     669.0     853.6     860.1     878.1     953.7     972.3
  
           1   -0.0004    0.0267   -0.0391    0.0268   -0.0021    0.0005    0.0163   -0.0177
           2   -0.0007   -0.0066    0.0003   -0.0165    0.0001   -0.0035    0.0039   -0.0223
           3   -0.0016   -0.0037   -0.0013   -0.0036   -0.0032    0.0345    0.0109   -0.0065
           4    0.0006    0.0197   -0.0243    0.0090    0.0000    0.0028   -0.0026    0.0132
           5    0.0064   -0.0328    0.0234   -0.0358    0.0006   -0.0066    0.0004   -0.0189
           6    0.0288    0.0002    0.0016   -0.0007   -0.0067    0.0609    0.0004   -0.0061
           7    0.0032   -0.0012    0.0373   -0.0106   -0.0006   -0.0008   -0.0081    0.0060
           8    0.0044   -0.0151   -0.0045   -0.0212   -0.0010   -0.0013   -0.0136    0.0141
           9   -0.0176    0.0062    0.0040   -0.0024    0.0003   -0.0011   -0.0120   -0.0021
          10   -0.0239   -0.0242    0.0188    0.0204   -0.0091    0.0109    0.0033   -0.0250
          11    0.0197    0.0082    0.0009    0.0557    0.0084   -0.0194    0.0010    0.0098
          12   -0.0044   -0.0347    0.0288    0.0220   -0.0067   -0.0226   -0.0032    0.0449
          13   -0.0076    0.0103   -0.0055   -0.0329    0.0242    0.0039   -0.0016    0.0190
          14   -0.0119    0.0133   -0.0081   -0.0186   -0.0150    0.0031   -0.0008    0.0029
          15    0.0042   -0.0127    0.0082    0.0210    0.0192    0.0072    0.0024   -0.0144
          16    0.0048    0.0006    0.0007   -0.0162    0.0097    0.0078   -0.0021    0.0175
          17   -0.0049    0.0022   -0.0009   -0.0094   -0.0092   -0.0014   -0.0029    0.0101
          18   -0.0050    0.0002   -0.0013    0.0115    0.0093   -0.0066    0.0019   -0.0167
          19    0.0371    0.0324   -0.0447    0.0152   -0.0168    0.1804    0.0630   -0.0195
          20   -0.0071    0.0007   -0.0228    0.0254    0.0011    0.0040    0.0003    0.0320
          21   -0.0187   -0.0055    0.0002    0.0053    0.0039   -0.0511   -0.0143    0.0017
          22   -0.0066   -0.0036   -0.0041   -0.0394    0.0036   -0.0890    0.0061   -0.0919
          23   -0.0045    0.0114   -0.0187    0.0272    0.0009    0.0020   -0.0019    0.0310
          24   -0.0166    0.0019   -0.0018    0.0147    0.0040   -0.0549   -0.0094    0.0092
          25   -0.0287    0.0566   -0.0732    0.1173    0.0067   -0.0788   -0.0301    0.0902
          26   -0.0020    0.0111   -0.0188    0.0269    0.0003    0.0076   -0.0035    0.0283
          27   -0.0229   -0.0031    0.0023    0.0106    0.0036   -0.0509   -0.0182    0.0049
          28    0.0412    0.0349   -0.0230   -0.0023   -0.1199   -0.0165   -0.0031   -0.0396
          29   -0.0001    0.0196   -0.0137   -0.0207   -0.1010   -0.0088   -0.0010   -0.0006
          30    0.0043   -0.0094    0.0033   -0.0158   -0.1275   -0.0090   -0.0003    0.0196
          31   -0.0149   -0.0070    0.0084   -0.0047   -0.0093    0.0011    0.0019    0.0024
          32   -0.0440   -0.0092    0.0073   -0.0140    0.2012    0.0377    0.0029   -0.0040
          33    0.0222    0.0127   -0.0121   -0.0095    0.0046   -0.0020   -0.0031    0.0027
          34    0.0158   -0.0058    0.0077    0.0421   -0.0415   -0.0269    0.0042   -0.0221
          35   -0.0093    0.0095   -0.0071   -0.0332   -0.0755    0.0014   -0.0078    0.0308
          36   -0.0207    0.0209   -0.0198   -0.0752   -0.1481    0.0103   -0.0144    0.0583
          37    0.0131   -0.0060    0.0066    0.0392   -0.0528   -0.0257    0.0033   -0.0188
          38   -0.0058   -0.0041    0.0039   -0.0108    0.1498    0.0232    0.0025   -0.0036
          39   -0.0154    0.0090   -0.0091   -0.0573    0.0575    0.0338   -0.0055    0.0294
          40    0.0093   -0.0035    0.0043    0.0199   -0.0449   -0.0148    0.0015   -0.0078
          41    0.0192   -0.0228    0.0213    0.1322    0.0282   -0.0428    0.0188   -0.1148
          42    0.0060   -0.0113    0.0082    0.0835   -0.0516   -0.0363    0.0108   -0.0745
          43   -0.2127   -0.0114    0.0196   -0.0075   -0.0154    0.0064   -0.0034   -0.0361
          44    0.1115    0.0358   -0.0050    0.0295    0.0103   -0.0300    0.0036   -0.0202
          45    0.2858    0.0353   -0.0522   -0.0327    0.0270   -0.0039   -0.0073    0.0660
          46   -0.0000   -0.0252   -0.0294    0.0012   -0.0001    0.0007    0.0082    0.0036
          47   -0.0011    0.0145    0.0155   -0.0015    0.0002   -0.0004   -0.0010   -0.0031
          48    0.0010   -0.0037   -0.0070    0.0019    0.0000    0.0024   -0.0175   -0.0004
          49    0.0208   -0.0107    0.0085   -0.0123    0.0056   -0.0172   -0.0040    0.0081
          50   -0.0232    0.0229   -0.0082    0.0231   -0.0032    0.0307    0.0060    0.0085
          51   -0.0114    0.0374   -0.0315   -0.0351    0.0072   -0.0441   -0.0057   -0.0203
          52   -0.0084   -0.0552    0.0100    0.0015    0.0022   -0.0044   -0.0851   -0.0137
          53    0.0048   -0.0478   -0.0005   -0.0626    0.0017   -0.0310    0.0898   -0.0230
          54   -0.0057    0.0266    0.0506   -0.0284   -0.0006   -0.0450    0.4915    0.0409
          55    0.1685   -0.0431    0.0395   -0.0031   -0.0265   -0.0096    0.0006   -0.0999
          56    0.0871   -0.0079    0.0133   -0.0304   -0.0058   -0.0136    0.0043   -0.0812
          57   -0.0171    0.0041   -0.0011   -0.0206   -0.0087    0.1033   -0.0048    0.0061
          58    0.0105    0.1816    0.1856   -0.0061    0.0004   -0.0056    0.0341    0.0008
          59   -0.0003   -0.0436   -0.0533    0.0008    0.0001    0.0066   -0.0746   -0.0113
          60   -0.0008    0.0160    0.0231   -0.0034    0.0001   -0.0049    0.0418    0.0039
          61    0.0056    0.1208    0.1170    0.0057    0.0009    0.0058   -0.1031   -0.0095
          62   -0.0133   -0.1512   -0.1404   -0.0037   -0.0001   -0.0106    0.0814    0.0075
          63   -0.0018    0.0135    0.0139    0.0077    0.0003    0.0022   -0.0434   -0.0002


   Root No.      25        26        27        28        29        30        31        32

                25 A      26 A      27 A      28 A      29 A      30 A      31 A      32 A   

                1002.3    1036.8    1070.6    1094.0    1115.9    1131.2    1163.5    1171.8
  
           1    0.0495    0.0088    0.0024    0.0145   -0.0160   -0.0016    0.0218   -0.0123
           2    0.0289   -0.0246   -0.0040   -0.0095    0.0190    0.0057   -0.0116    0.0064
           3   -0.0005   -0.0008   -0.0307    0.0126   -0.0132   -0.0182   -0.0094    0.0114
           4   -0.0165   -0.0056   -0.0050   -0.0137    0.0157    0.0050   -0.0226    0.0135
           5    0.0042   -0.0014    0.0155    0.0068   -0.0309   -0.0147    0.0169   -0.0149
           6   -0.0012    0.0037    0.0313   -0.0077    0.0247    0.0271    0.0124   -0.0200
           7   -0.0193    0.0098   -0.0047    0.0044    0.0108    0.0037   -0.0018    0.0027
           8   -0.0360    0.0197   -0.0156    0.0072    0.0247    0.0102   -0.0021    0.0053
           9    0.0013   -0.0016   -0.0031   -0.0010   -0.0040   -0.0025   -0.0003    0.0015
          10   -0.0207   -0.0087    0.0236    0.0040    0.0092   -0.0238   -0.0181    0.0075
          11    0.0130   -0.0032    0.0079    0.0081   -0.0005   -0.0026   -0.0196    0.0062
          12    0.0366    0.0035   -0.0263   -0.0100   -0.0032   -0.0013    0.0139    0.0030
          13    0.0058   -0.0111   -0.0324    0.0050   -0.0136    0.0356    0.0252    0.0021
          14    0.0013    0.0018   -0.0076   -0.0149    0.0128   -0.0114    0.0812   -0.0041
          15   -0.0068   -0.0046    0.0373    0.0263   -0.0014    0.0039    0.0326    0.0292
          16    0.0209    0.0144    0.0173   -0.0054    0.0079   -0.0191   -0.0118   -0.0154
          17    0.0049   -0.0018   -0.0006    0.0084   -0.0117    0.0101   -0.0686    0.0041
          18   -0.0128    0.0026   -0.0251   -0.0179   -0.0007   -0.0030   -0.0437   -0.0325
          19    0.0262    0.0090   -0.1257    0.0540   -0.0716   -0.0647   -0.0113    0.0165
          20   -0.0551    0.0342    0.0132    0.0176   -0.0410   -0.0206    0.0218   -0.0086
          21    0.0002    0.0015    0.0367   -0.0102    0.0167    0.0161    0.0064   -0.0047
          22    0.1693   -0.0863    0.0287   -0.0437    0.0709    0.0430   -0.0103    0.0065
          23   -0.0485    0.0310    0.0222    0.0077   -0.0162    0.0006    0.0189   -0.0220
          24   -0.0062    0.0066    0.0576   -0.0151    0.0196    0.0289    0.0243   -0.0322
          25   -0.0680    0.0967    0.0929    0.0052   -0.0506    0.0205    0.0616   -0.0472
          26   -0.0398    0.0301   -0.0036    0.0150   -0.0397   -0.0217    0.0057    0.0082
          27    0.0062   -0.0012    0.0573   -0.0255    0.0376    0.0412    0.0125   -0.0315
          28   -0.0040    0.0520   -0.0402   -0.1035    0.0406   -0.0602    0.0428    0.0482
          29   -0.0020    0.0085   -0.0053   -0.0277    0.0214   -0.0327    0.0682   -0.0502
          30   -0.0008   -0.0206    0.0405    0.0472   -0.0066    0.0017    0.0310   -0.1162
          31   -0.0229   -0.0502   -0.0146    0.0536   -0.0371    0.0784    0.0012   -0.1156
          32   -0.0074   -0.0162    0.0130    0.0385   -0.0198    0.0544    0.0725    0.0890
          33    0.0300    0.0545    0.0100   -0.0546    0.0382   -0.0762    0.0436    0.1618
          34   -0.0288   -0.0230   -0.0421    0.0024   -0.0124    0.0331    0.0310    0.0066
          35    0.0119   -0.0169    0.0258    0.0426   -0.0246    0.0309   -0.0614    0.0499
          36    0.0268   -0.0234    0.0630    0.0740   -0.0342    0.0386   -0.0847    0.0773
          37   -0.0274   -0.0251   -0.0324    0.0073   -0.0112    0.0283    0.0346    0.0165
          38    0.0237    0.0492   -0.0107   -0.0620    0.0275   -0.0579   -0.0579   -0.0912
          39    0.0422    0.0396    0.0438   -0.0164    0.0162   -0.0462   -0.0808   -0.0507
          40   -0.0156   -0.0192   -0.0104    0.0150   -0.0106    0.0248    0.0137    0.0146
          41   -0.0997   -0.0338   -0.0956   -0.0408    0.0004    0.0222    0.0552   -0.0343
          42   -0.0774   -0.0435   -0.0592    0.0028   -0.0171    0.0465    0.0262    0.0032
          43    0.0049    0.0484    0.0106   -0.0380   -0.0190    0.0381   -0.0127    0.0133
          44    0.0477    0.0388   -0.0643    0.2101    0.1550   -0.0369    0.0166   -0.0438
          45   -0.0679   -0.1234    0.0447   -0.0817   -0.0568   -0.0378    0.0007    0.0067
          46   -0.0026    0.0007   -0.0020   -0.0012    0.0065    0.0036   -0.0026    0.0018
          47    0.0024   -0.0015    0.0013    0.0002   -0.0026   -0.0017   -0.0001   -0.0001
          48    0.0005   -0.0002   -0.0017   -0.0001    0.0012    0.0005   -0.0004    0.0004
          49   -0.0089   -0.0177    0.0041   -0.0029   -0.0048   -0.0100    0.0022   -0.0008
          50    0.0014   -0.0100    0.0072   -0.0215   -0.0083    0.0053   -0.0022    0.0030
          51   -0.0169    0.0042    0.0003    0.0077   -0.0043   -0.0080   -0.0075    0.0054
          52    0.0153    0.0001    0.0106    0.0189   -0.0853   -0.0477    0.0475   -0.0289
          53   -0.0197    0.0165    0.0266    0.0268   -0.0713   -0.0451    0.0385   -0.0276
          54   -0.0328    0.0131    0.0207   -0.0094    0.0174    0.0136   -0.0040    0.0015
          55    0.0524    0.1719   -0.0047   -0.0541   -0.0529    0.1070   -0.0449    0.0466
          56    0.0269    0.0897    0.0150   -0.0220   -0.0704    0.0538   -0.0135    0.0077
          57   -0.0038   -0.0103    0.0206   -0.0165    0.0243    0.0363    0.0277   -0.0353
          58   -0.0008    0.0021    0.0035    0.0038   -0.0148   -0.0081    0.0092   -0.0054
          59    0.0061   -0.0031    0.0021    0.0017   -0.0077   -0.0050    0.0028   -0.0029
          60   -0.0039    0.0020    0.0001    0.0002    0.0016    0.0007   -0.0011    0.0012
          61    0.0056    0.0002    0.0019    0.0054   -0.0189   -0.0106    0.0096   -0.0061
          62   -0.0081    0.0037    0.0080   -0.0019    0.0028    0.0031    0.0010   -0.0025
          63    0.0013    0.0011    0.0011    0.0009   -0.0057   -0.0022    0.0047   -0.0032


   Root No.      33        34        35        36        37        38        39        40

                33 A      34 A      35 A      36 A      37 A      38 A      39 A      40 A   

                1179.3    1206.4    1212.1    1243.7    1259.0    1305.2    1312.4    1322.6
  
           1   -0.0146   -0.0036   -0.0024    0.0004   -0.0009   -0.0060    0.0456    0.0137
           2    0.0081    0.0009   -0.0309   -0.0010    0.0005    0.0015   -0.0025   -0.0007
           3    0.0161   -0.0211   -0.0025   -0.0004   -0.0002    0.0020    0.0015   -0.0007
           4    0.0177    0.0036    0.0061   -0.0009    0.0005    0.0082   -0.0289   -0.0089
           5   -0.0225   -0.0030   -0.0048    0.0013    0.0006   -0.0001   -0.0000   -0.0007
           6   -0.0283   -0.0199    0.0067    0.0019    0.0014   -0.0078   -0.0057    0.0036
           7    0.0047    0.0016   -0.0003   -0.0005   -0.0003   -0.0012    0.0087    0.0016
           8    0.0076    0.0004   -0.0006   -0.0004   -0.0006   -0.0025    0.0083    0.0020
           9    0.0014    0.0017   -0.0001   -0.0002   -0.0003    0.0012    0.0013   -0.0008
          10   -0.0041    0.0001   -0.0020    0.0013    0.0041   -0.0116    0.0013    0.0066
          11    0.0142    0.0047   -0.0005   -0.0006    0.0009   -0.0050   -0.0019    0.0055
          12   -0.0028    0.0014    0.0009   -0.0002   -0.0037    0.0104    0.0009   -0.0044
          13   -0.0156   -0.0041    0.0006   -0.0021   -0.0064   -0.0319   -0.0047    0.0088
          14    0.0160    0.0013   -0.0011    0.0015   -0.0005   -0.0232    0.0022   -0.0204
          15    0.0275    0.0071   -0.0019   -0.0046    0.0046    0.0148    0.0051   -0.0238
          16    0.0151    0.0018    0.0003   -0.0196   -0.0288    0.0087    0.0022   -0.0073
          17   -0.0238   -0.0030    0.0013    0.0189   -0.0176    0.0055    0.0002    0.0104
          18   -0.0135   -0.0046    0.0020   -0.0185    0.0140   -0.0059   -0.0026    0.0181
          19    0.0153    0.1775   -0.0344   -0.0027   -0.0008    0.0176   -0.1209   -0.0427
          20   -0.0122    0.0367    0.3570    0.0078   -0.0034   -0.0133    0.0035    0.0047
          21   -0.0028   -0.0817    0.0353    0.0014   -0.0001   -0.0078    0.0607    0.0207
          22    0.0124   -0.0629    0.1582    0.0047    0.0005   -0.0002   -0.1353   -0.0362
          23   -0.0366    0.1555   -0.0045   -0.0014   -0.0008   -0.0030    0.0579    0.0172
          24   -0.0540    0.2471    0.1714    0.0022   -0.0015   -0.0046   -0.0315   -0.0064
          25   -0.0583   -0.1187   -0.1235    0.0028    0.0025    0.0026   -0.1203   -0.0364
          26    0.0190   -0.1848    0.0603    0.0037    0.0003   -0.0008   -0.0462   -0.0141
          27   -0.0524    0.1808   -0.2055   -0.0045    0.0023    0.0064   -0.0398   -0.0119
          28   -0.0932   -0.0179    0.0138    0.0079   -0.0040    0.3586    0.0216   -0.0219
          29    0.0415    0.0029   -0.0011    0.0064    0.0058    0.0838   -0.0187    0.0762
          30    0.1387    0.0185   -0.0099   -0.0035    0.0184    0.0115   -0.0564    0.2008
          31    0.0645   -0.0020    0.0063   -0.0175   -0.0095    0.1093    0.0266   -0.0942
          32   -0.0222   -0.0007    0.0027    0.0056    0.0078    0.2814   -0.0292    0.1405
          33   -0.0730    0.0051   -0.0102    0.0134    0.0062   -0.2146   -0.0318    0.0942
          34   -0.0092    0.0003   -0.0005    0.1948    0.3317   -0.0083    0.0036   -0.0078
          35   -0.0350   -0.0025    0.0025   -0.0317    0.0684    0.0093    0.0113   -0.0483
          36   -0.0409   -0.0025    0.0044   -0.1656    0.0626    0.0142    0.0197   -0.0990
          37   -0.0152   -0.0032    0.0036   -0.1532    0.0979   -0.0069   -0.0101    0.0505
          38    0.0131   -0.0037    0.0055   -0.0170    0.2836    0.0011    0.0209   -0.0925
          39    0.0240    0.0028   -0.0032    0.1914   -0.1766    0.0127    0.0131   -0.0584
          40   -0.0027    0.0015   -0.0047    0.2163   -0.0544   -0.0016    0.0050   -0.0274
          41   -0.0386   -0.0148    0.0033   -0.2021   -0.1684   -0.0333    0.0038   -0.0562
          42   -0.0281   -0.0053   -0.0050    0.2293   -0.0904   -0.0226    0.0045   -0.0380
          43    0.0248    0.0044    0.0022   -0.0017   -0.0003   -0.0054   -0.0038    0.0002
          44   -0.0708   -0.0205    0.0081    0.0039    0.0021    0.0107   -0.0379   -0.0095
          45    0.0053    0.0030   -0.0079    0.0008    0.0005   -0.0018    0.0278    0.0070
          46    0.0027    0.0008    0.0002   -0.0002   -0.0002   -0.0004    0.0061    0.0011
          47   -0.0001    0.0002    0.0014   -0.0001   -0.0001    0.0000    0.0039    0.0008
          48    0.0008    0.0006    0.0001   -0.0000   -0.0001   -0.0001    0.0009    0.0002
          49   -0.0027    0.0007   -0.0024    0.0002    0.0000    0.0002    0.0043    0.0008
          50    0.0051    0.0001    0.0008   -0.0002   -0.0000   -0.0006    0.0019    0.0009
          51    0.0078    0.0045   -0.0027   -0.0004    0.0003    0.0003    0.0011   -0.0005
          52   -0.0452   -0.0172   -0.0032    0.0066    0.0030   -0.0045   -0.0762   -0.0031
          53   -0.0441   -0.0155   -0.0067    0.0037    0.0030    0.0060   -0.0815   -0.0125
          54   -0.0054   -0.0113   -0.0043    0.0004    0.0003    0.0003   -0.0069   -0.0016
          55    0.0851    0.0218    0.0029   -0.0076   -0.0022   -0.0102   -0.0204   -0.0041
          56    0.0327    0.0114   -0.0050   -0.0045   -0.0007   -0.0256    0.0028    0.0040
          57   -0.0456   -0.0259    0.0126    0.0041    0.0028   -0.0164   -0.0061    0.0110
          58   -0.0090   -0.0054   -0.0012    0.0012    0.0009    0.0016   -0.0387   -0.0077
          59   -0.0037    0.0006   -0.0063    0.0003    0.0008    0.0035   -0.0347   -0.0088
          60    0.0015   -0.0003    0.0055   -0.0002   -0.0005   -0.0016    0.0256    0.0064
          61   -0.0083   -0.0030   -0.0036    0.0008    0.0007    0.0007   -0.0245   -0.0045
          62   -0.0043   -0.0031   -0.0111    0.0001    0.0011    0.0035   -0.0445   -0.0118
          63   -0.0043   -0.0021   -0.0062    0.0005    0.0006    0.0008   -0.0257   -0.0056


   Root No.      41        42        43        44        45        46        47        48

                41 A      42 A      43 A      44 A      45 A      46 A      47 A      48 A   

                1361.6    1366.0    1390.3    1411.1    1813.3    2056.3    2624.5    2629.7
  
           1    0.0151    0.0017    0.0029   -0.0149    0.0075   -0.0033   -0.0006    0.0003
           2    0.0020    0.0000    0.0078   -0.0070    0.0068    0.0021   -0.0425   -0.0108
           3   -0.0004    0.0001   -0.0023    0.0007   -0.0000   -0.0001    0.0123   -0.0383
           4    0.0005    0.0025    0.0319    0.0880   -0.0382    0.0211   -0.0002    0.0001
           5   -0.0168   -0.0008   -0.0334    0.0503   -0.0655   -0.0357   -0.0030   -0.0008
           6    0.0006    0.0002    0.0078    0.0025    0.0033    0.0023    0.0006   -0.0021
           7   -0.0020   -0.0003   -0.0178   -0.0095    0.0379   -0.0004    0.0005    0.0002
           8    0.0096   -0.0012    0.0108   -0.0530   -0.0061    0.0051    0.0002   -0.0001
           9   -0.0023   -0.0002   -0.0057    0.0059    0.0096   -0.0005    0.0000   -0.0000
          10   -0.0007    0.0002   -0.0046   -0.0091    0.0005    0.0066   -0.0001   -0.0002
          11    0.0019    0.0044    0.0033   -0.0016    0.0067   -0.0090    0.0001    0.0001
          12    0.0004    0.0018    0.0006    0.0064    0.0034    0.0138    0.0002    0.0001
          13   -0.0010    0.0086   -0.0009    0.0065    0.0011   -0.0058   -0.0005    0.0018
          14   -0.0006   -0.0184    0.0018    0.0087   -0.0012   -0.0005    0.0004   -0.0012
          15    0.0010   -0.0236    0.0040    0.0000   -0.0019    0.0027   -0.0004    0.0016
          16    0.0006    0.0010    0.0007   -0.0023    0.0001    0.0008    0.0004   -0.0018
          17    0.0004   -0.0298    0.0008   -0.0016    0.0015   -0.0006    0.0000    0.0006
          18   -0.0005   -0.0246   -0.0007    0.0009    0.0007   -0.0007    0.0000   -0.0008
          19   -0.0644   -0.0128   -0.0855   -0.1030    0.0024   -0.0031   -0.0594    0.1520
          20   -0.0010    0.0017   -0.0201    0.0026   -0.0034   -0.0032   -0.0136   -0.0264
          21    0.0314    0.0061    0.0391    0.0507   -0.0000    0.0009   -0.1295    0.3281
          22   -0.0509   -0.0115   -0.0573   -0.1365    0.0254    0.0047    0.1840   -0.0328
          23    0.0247    0.0053    0.0292    0.0576   -0.0101   -0.0061    0.3486   -0.0723
          24   -0.0101   -0.0022   -0.0130   -0.0275    0.0048    0.0012   -0.1760    0.0131
          25   -0.0937   -0.0135   -0.1046   -0.0697   -0.0022   -0.0070   -0.1142   -0.1240
          26   -0.0308   -0.0050   -0.0521   -0.0314   -0.0154   -0.0044    0.1971    0.2341
          27   -0.0209   -0.0039   -0.0077   -0.0226   -0.0026   -0.0016    0.1531    0.1398
          28    0.0000   -0.0143   -0.0015   -0.0105    0.0030    0.0143    0.0015   -0.0043
          29   -0.0031    0.0436   -0.0064    0.0012   -0.0062    0.0025   -0.0063    0.0196
          30   -0.0057    0.1328   -0.0152   -0.0015   -0.0071   -0.0013    0.0024   -0.0079
          31    0.0031   -0.0659    0.0102   -0.0001    0.0005    0.0028    0.0050   -0.0200
          32   -0.0033    0.0879   -0.0113   -0.0076   -0.0029    0.0071    0.0009   -0.0036
          33   -0.0042    0.0559   -0.0100    0.0088   -0.0052    0.0063    0.0035   -0.0146
          34   -0.0007    0.0030   -0.0011    0.0039    0.0015   -0.0005    0.0001    0.0008
          35    0.0020    0.0630    0.0007   -0.0072    0.0009   -0.0020    0.0005   -0.0113
          36    0.0040    0.1756   -0.0007   -0.0169   -0.0015    0.0013   -0.0002    0.0047
          37   -0.0018   -0.0958    0.0014    0.0084    0.0022   -0.0018   -0.0036    0.0159
          38    0.0021    0.1548   -0.0027   -0.0121   -0.0002    0.0005   -0.0004    0.0018
          39    0.0025    0.0902   -0.0007   -0.0099    0.0002    0.0018   -0.0028    0.0123
          40    0.0005    0.0519   -0.0008   -0.0011   -0.0003    0.0016   -0.0024    0.0064
          41    0.0003    0.1644   -0.0038   -0.0018   -0.0017   -0.0024   -0.0005    0.0017
          42   -0.0002    0.0962   -0.0030    0.0017    0.0001   -0.0025    0.0020   -0.0062
          43    0.0024    0.0011    0.0081   -0.0056   -0.0140    0.0410    0.0024   -0.0066
          44   -0.0102    0.0008    0.0121    0.0873   -0.0369    0.0316    0.0008   -0.0027
          45    0.0043   -0.0020   -0.0140   -0.0609    0.0156    0.0190    0.0017   -0.0042
          46   -0.0161    0.0001   -0.0022   -0.0018   -0.0025    0.0000   -0.0007   -0.0011
          47   -0.0274    0.0007    0.0063    0.0050    0.0027   -0.0000    0.0006    0.0008
          48    0.0010   -0.0001   -0.0011   -0.0012   -0.0012    0.0001    0.0029    0.0046
          49   -0.0007   -0.0005   -0.0058   -0.0083    0.0023    0.0021   -0.0005    0.0006
          50    0.0021    0.0002    0.0015   -0.0032    0.0094   -0.0129    0.0000    0.0001
          51   -0.0003   -0.0001   -0.0018   -0.0058   -0.0044   -0.0171   -0.0003    0.0002
          52    0.0482    0.0017    0.2967   -0.1596   -0.2578    0.0239   -0.0021   -0.0024
          53    0.0174    0.0051    0.1572    0.0759    0.5139   -0.0098    0.0051    0.0040
          54    0.0249   -0.0023    0.0264   -0.0449   -0.1353    0.0059   -0.0005   -0.0003
          55    0.0078    0.0054    0.0330    0.0234   -0.0107   -0.3613   -0.0006   -0.0007
          56   -0.0087    0.0025   -0.0266    0.0199   -0.0100    0.6701    0.0016    0.0011
          57   -0.0002    0.0010    0.0051    0.0066    0.0053   -0.0240   -0.0007    0.0012
          58    0.1923   -0.0035   -0.0279   -0.0114   -0.0211    0.0009   -0.0076   -0.0102
          59    0.1709   -0.0026   -0.0603    0.0312    0.0474   -0.0019   -0.0224   -0.0340
          60   -0.1534    0.0030    0.0493   -0.0026    0.0412   -0.0014   -0.0190   -0.0307
          61    0.0841   -0.0014   -0.0017   -0.0040    0.0154   -0.0002    0.0189    0.0290
          62    0.2381   -0.0049   -0.0875    0.0212    0.0191   -0.0013    0.0126    0.0197
          63    0.1388   -0.0032   -0.0310   -0.0151   -0.0585    0.0022   -0.0275   -0.0424


   Root No.      49        50        51        52        53        54        55        56

                49 A      50 A      51 A      52 A      53 A      54 A      55 A      56 A   

                2632.1    2643.5    2650.5    2663.6    2664.1    2711.6    2760.5    2772.3
  
           1   -0.0001   -0.0004    0.0000   -0.0001   -0.0002   -0.0003   -0.0212   -0.0011
           2    0.0000   -0.0055    0.0001   -0.0003   -0.0001   -0.0001    0.0005    0.0000
           3    0.0030   -0.0053    0.0010   -0.0004    0.0001   -0.0001   -0.0008    0.0000
           4   -0.0000   -0.0002    0.0001   -0.0034   -0.0028   -0.0010   -0.0074   -0.0003
[...]
 REDUCED MASS        0.4693         O  3 -- H 18          +0.8% (  8.6%)     98.5%
 EFFECTIVE MASS      1.1837
 FORCE CONSTANT      2.1608

           FORCE CONSTANT IN CARTESIAN COORDINATES (Millidynes/A)

    ATOM   CHEMICAL       X               Y               Z
   NUMBER   SYMBOL  FORCE CONSTANT  FORCE CONSTANT  FORCE CONSTANT

      1       C        7.209431        6.208376        6.045380
      2       C        9.746073        8.950513        4.080741
      3       O        4.185004        7.749934        1.110061
      4       O        4.327599        3.540187        5.556469
      5       C        6.149643        7.292627        6.593332
      6       C        6.243349        6.669922        6.705930
      7       H        1.255316        0.497207        3.439840
      8       H        1.289766        2.836507        1.054315
      9       H        1.248960        2.534764        1.392912
     10       H        0.862873        3.388112        1.270169
     11       H        2.834897        0.724377        1.930495
     12       H        0.597099        3.505970        1.193054
     13       H        2.789232        0.679012        1.869792
     14       H        2.658810        0.709852        1.877869
     15       H        2.679682        0.887728        1.336068
     16       O        1.895453        3.158702        4.557120
     17       O        3.788450        2.910652        4.900668
     18       H        1.098524        1.527941        0.552760
     19       H        0.941801        1.987079       -0.674436
     20       H        0.373270        1.874810        2.594863
     21       H        1.179161        0.867113        2.811092
 *******************************************************************************
 ** Site#: 37037        For non-commercial use only           Version 21.153W **
 *******************************************************************************
 ** Cite this program as: MOPAC2016, Version: 21.153W, James J. P. Stewart,   **
 ** Stewart Computational Chemistry, web: HTTP://OpenMOPAC.net. Days left: 362**
 *******************************************************************************
 **                                                                           **
 **                                MOPAC2016                                  **
 **                                                                           **
 *******************************************************************************

                              PM7 CALCULATION RESULTS

 *******************************************************************************
 *  CALCULATION DONE:                                Sat Jun  5 17:00:28 2021  *
 *
 *
 *
 *                 CHARGE ON SYSTEM = +1
 *
 *
 *
 *  EPS=78.4   - USE ANDREAS KLAMT'S COSMO IMPLICIT SOLVATION MODEL
 *  IRC=N      - INTRINSIC REACTION COORDINATE  1 DEFINED
 *  LET        - OVERRIDE SOME SAFETY CHECKS
 *  OLDGEO     - PREVIOUS GEOMETRY TO BE USED
 *  PRECISE    - TIGHTER CRITERIA TO BE USED
 *  T=         - A TIME OF 172800.0 SECONDS REQUESTED
 *  DUMP=N     - RESTART FILE WRITTEN EVERY 7200.0 SECONDS REQUESTED
 *  HTML       - WRITE HTML SCRIPT TO GENERATE ANIMATION USING JSMOL
 *             - TO DISPLAY IN PDB FORMAT, ADD "PDBOUT"
 *  X-PRIOR    - GEOMETRY CHANGES TAKE PRIORITY IN DRC
 *******************************************************************************
oldgeo irc=1* charge=1 eps=78.4  let HTML x-priority=0.05 precise
 IRC for Ester Hydrolysis Reaction

   ATOM                 CHEMICAL                   X               Y               Z
  NUMBER                 SYMBOL               (ANGSTROMS)     (ANGSTROMS)     (ANGSTROMS)
 
     1       C(HETATM    1  C1  ACY A   1)   -0.21652336  *   0.09046060  *   0.30042619  *
     2       C(HETATM    2  C2  ACY A   1)    1.12833988  *   0.12819368  *   0.94052607  *
     3       O(HETATM    3  O   ACY A   1)    1.89046570  *   1.21766820  *   0.91766483  *
     4       O(HETATM    4  O   EOH B   2)    1.89137255  *  -1.07123180  *   0.57527726  *
     5       C(HETATM    5  C1  EOH B   2)    3.29533810  *  -0.88553775  *   0.24420674  *
     6       C(HETATM    6  C2  EOH B   2)    3.72738153  *  -2.24195415  *  -0.26763738  *
     7       H(HETATM    7 1H1  ACY A   1)   -0.15880754  *  -0.17774973  *  -0.76980987  *
     8       H(HETATM    8 2H1  ACY A   1)   -0.88890695  *  -0.65093714  *   0.77347284  *
     9       H(HETATM    9 3H1  ACY A   1)   -0.73051385  *   1.06705940  *   0.36454694  *
    10       H(HETATM   10 1H1  EOH B   2)    3.34871736  *  -0.09171804  *  -0.52204775  *
    11       H(HETATM   11 2H1  EOH B   2)    3.82839804  *  -0.56179430  *   1.15563487  *
    12       H(HETATM   12 1H2  EOH B   2)    3.56113280  *  -3.03743949  *   0.47265671  *
    13       H(HETATM   13 2H2  EOH B   2)    3.18719956  *  -2.52461402  *  -1.18283865  *
    14       H(HETATM   14 3H2  EOH B   2)    4.80161322  *  -2.24024693  *  -0.51111661  *
    15       H(HETATM   15  H   ACY G   1)    1.61629853  *   0.14895255  *   2.96866216  *
    16       O(HETATM   16  O   HOH F   3)    1.24407171  *   2.91519858  *  -0.83618310  *
    17       O(HETATM   17  O   ACY G   1)    1.02760827  *  -0.36152220  *   2.32402698  *
    18       H(HETATM   18  H   UNK G    )    1.60365846  *   1.96364901  *   0.17507093  *
    19       H(HETATM   19  H   EOH B   2)    1.73720534  *  -1.41185727  *   1.88554485  *
    20       H(HETATM   20 1H   HOH F   3)    1.13943939  *   3.76361185  *  -0.35000573  *
    21       H(HETATM   21 2H   HOH F   3)    2.06512373  *   3.05715071  *  -1.35678644  *
 

 General Reference for PM7:
 "Optimization of Parameters for Semiempirical Methods VI: More Modifications to the 
 NDDO Approximations and Re-optimization of Parameters", J. J. P. Stewart, J. Mol. Mod., 1:32, 19 (2013)
 https://link.springer.com/article/10.1007/s00894-012-1667-x

           Empirical Formula: C4 H13 O4  =    21 atoms



      MOLECULAR POINT GROUP   :   C1  


      RHF CALCULATION, NO. OF DOUBLY OCCUPIED LEVELS = 26



          HEAT OF FORMATION =    -103.968275 KCALS/MOLE


          GRADIENT NORM =   3.49345


          TIME FOR SCF CALCULATION =    0.03

          TIME FOR DERIVATIVES     =    0.00

          MOLECULAR WEIGHT =  125.14


          ESTIMATED TIME TO COMPLETE CALCULATION =        7.88 SECONDS

    FOR POINT-GROUP C1   THERE ARE   1 UNIQUE SYMMETRY FUNCTIONS.

 STEP:   1 TIME =     0.08 SECS, INTEGRAL =      0.08 TIME LEFT: 172799.89
 STEP:   2 TIME =     0.10 SECS, INTEGRAL =      0.18 TIME LEFT: 172799.79
 STEP:   3 TIME =     0.09 SECS, INTEGRAL =      0.27 TIME LEFT: 172799.70
 STEP:   4 TIME =     0.09 SECS, INTEGRAL =      0.36 TIME LEFT: 172799.61
 STEP:   5 TIME =     0.09 SECS, INTEGRAL =      0.45 TIME LEFT: 172799.52
 STEP:   6 TIME =     0.10 SECS, INTEGRAL =      0.55 TIME LEFT: 172799.42
 STEP:   7 TIME =     0.11 SECS, INTEGRAL =      0.66 TIME LEFT: 172799.31
 STEP:   8 TIME =     0.12 SECS, INTEGRAL =      0.78 TIME LEFT: 172799.19
 STEP:   9 TIME =     0.09 SECS, INTEGRAL =      0.88 TIME LEFT: 172799.09
 STEP:  10 TIME =     0.09 SECS, INTEGRAL =      0.97 TIME LEFT: 172799.00
 STEP:  11 TIME =     0.11 SECS, INTEGRAL =      1.08 TIME LEFT: 172798.89
 STEP:  12 TIME =     0.09 SECS, INTEGRAL =      1.17 TIME LEFT: 172798.80
 STEP:  13 TIME =     0.11 SECS, INTEGRAL =      1.28 TIME LEFT: 172798.69
 STEP:  14 TIME =     0.11 SECS, INTEGRAL =      1.39 TIME LEFT: 172798.58
 STEP:  15 TIME =     0.11 SECS, INTEGRAL =      1.50 TIME LEFT: 172798.47
 STEP:  16 TIME =     0.09 SECS, INTEGRAL =      1.59 TIME LEFT: 172798.38
 STEP:  17 TIME =     0.11 SECS, INTEGRAL =      1.70 TIME LEFT: 172798.27
 STEP:  18 TIME =     0.09 SECS, INTEGRAL =      1.80 TIME LEFT: 172798.17
 STEP:  19 TIME =     0.10 SECS, INTEGRAL =      1.89 TIME LEFT: 172798.07
 STEP:  20 TIME =     0.09 SECS, INTEGRAL =      1.98 TIME LEFT: 172797.98
 STEP:  21 TIME =     0.08 SECS, INTEGRAL =      2.06 TIME LEFT: 172797.91
 STEP:  22 TIME =     0.09 SECS, INTEGRAL =      2.16 TIME LEFT: 172797.81
 STEP:  23 TIME =     0.08 SECS, INTEGRAL =      2.24 TIME LEFT: 172797.73
 STEP:  24 TIME =     0.09 SECS, INTEGRAL =      2.33 TIME LEFT: 172797.64
 STEP:  25 TIME =     0.10 SECS, INTEGRAL =      2.43 TIME LEFT: 172797.54
 STEP:  26 TIME =     0.10 SECS, INTEGRAL =      2.53 TIME LEFT: 172797.44
 STEP:  27 TIME =     0.08 SECS, INTEGRAL =      2.61 TIME LEFT: 172797.36
 STEP:  28 TIME =     0.09 SECS, INTEGRAL =      2.70 TIME LEFT: 172797.27
 STEP:  29 TIME =     0.11 SECS, INTEGRAL =      2.81 TIME LEFT: 172797.16
 STEP:  30 TIME =     0.08 SECS, INTEGRAL =      2.89 TIME LEFT: 172797.08
 STEP:  31 TIME =     0.08 SECS, INTEGRAL =      2.96 TIME LEFT: 172797.00
 STEP:  32 TIME =     0.09 SECS, INTEGRAL =      3.05 TIME LEFT: 172796.91
 STEP:  33 TIME =     0.08 SECS, INTEGRAL =      3.14 TIME LEFT: 172796.83
 STEP:  34 TIME =     0.08 SECS, INTEGRAL =      3.21 TIME LEFT: 172796.75
 STEP:  35 TIME =     0.09 SECS, INTEGRAL =      3.31 TIME LEFT: 172796.66
 STEP:  36 TIME =     0.09 SECS, INTEGRAL =      3.40 TIME LEFT: 172796.57
 STEP:  37 TIME =     0.09 SECS, INTEGRAL =      3.49 TIME LEFT: 172796.48
 STEP:  38 TIME =     0.09 SECS, INTEGRAL =      3.59 TIME LEFT: 172796.38
 STEP:  39 TIME =     0.10 SECS, INTEGRAL =      3.68 TIME LEFT: 172796.29
 STEP:  40 TIME =     0.09 SECS, INTEGRAL =      3.77 TIME LEFT: 172796.20
 STEP:  41 TIME =     0.09 SECS, INTEGRAL =      3.87 TIME LEFT: 172796.10
 STEP:  42 TIME =     0.09 SECS, INTEGRAL =      3.96 TIME LEFT: 172796.01
 STEP:  43 TIME =     0.10 SECS, INTEGRAL =      4.06 TIME LEFT: 172795.91
 STEP:  44 TIME =     0.11 SECS, INTEGRAL =      4.16 TIME LEFT: 172795.80
 STEP:  45 TIME =     0.09 SECS, INTEGRAL =      4.26 TIME LEFT: 172795.71
 STEP:  46 TIME =     0.10 SECS, INTEGRAL =      4.36 TIME LEFT: 172795.61
 STEP:  47 TIME =     0.08 SECS, INTEGRAL =      4.43 TIME LEFT: 172795.54
 STEP:  48 TIME =     0.08 SECS, INTEGRAL =      4.51 TIME LEFT: 172795.46
 STEP:  49 TIME =     0.09 SECS, INTEGRAL =      4.61 TIME LEFT: 172795.36
 STEP:  50 TIME =     0.08 SECS, INTEGRAL =      4.68 TIME LEFT: 172795.29
 STEP:  51 TIME =     0.09 SECS, INTEGRAL =      4.77 TIME LEFT: 172795.20
 STEP:  52 TIME =     0.09 SECS, INTEGRAL =      4.87 TIME LEFT: 172795.10
 STEP:  53 TIME =     0.09 SECS, INTEGRAL =      4.96 TIME LEFT: 172795.01
 STEP:  54 TIME =     0.08 SECS, INTEGRAL =      5.04 TIME LEFT: 172794.93
 STEP:  55 TIME =     0.08 SECS, INTEGRAL =      5.12 TIME LEFT: 172794.85
 STEP:  56 TIME =     0.09 SECS, INTEGRAL =      5.21 TIME LEFT: 172794.76
 STEP:  57 TIME =     0.09 SECS, INTEGRAL =      5.30 TIME LEFT: 172794.67
 STEP:  58 TIME =     0.10 SECS, INTEGRAL =      5.40 TIME LEFT: 172794.57
 STEP:  59 TIME =     0.09 SECS, INTEGRAL =      5.49 TIME LEFT: 172794.48
 STEP:  60 TIME =     0.08 SECS, INTEGRAL =      5.57 TIME LEFT: 172794.40
 STEP:  61 TIME =     0.09 SECS, INTEGRAL =      5.66 TIME LEFT: 172794.31
 STEP:  62 TIME =     0.10 SECS, INTEGRAL =      5.76 TIME LEFT: 172794.21
 STEP:  63 TIME =     0.08 SECS, INTEGRAL =      5.84 TIME LEFT: 172794.13
           INITIAL VELOCITY IN DRC (Angstroms/Femtosecond)
         0.00027         0.00035         0.00447
         0.00199        -0.00247        -0.06435
         0.00001         0.00057         0.00343
        -0.00999         0.03129        -0.00931
        -0.01199         0.00043         0.00816
        -0.00051        -0.00091         0.00003
        -0.00122        -0.00480         0.00041
         0.00349        -0.00062         0.00210
         0.00360        -0.00057         0.00333
         0.02550         0.00163        -0.00955
        -0.01344        -0.01417         0.00813
        -0.00498         0.00231         0.00334
        -0.00062        -0.00017         0.00415
        -0.00145         0.00189         0.00470
         0.03049        -0.00959         0.00981
        -0.00034         0.00031        -0.00008
         0.01421        -0.03088        -0.00270
        -0.00097         0.00152         0.01519
         0.02038         0.03337         0.71223
        -0.00116         0.00083        -0.00075
         0.00072        -0.00110         0.00036

 GEOMETRY PRIORITY, STEP = 0.0500 ANGSTROMS



     POINT   POTENTIAL  +  ENERGY LOST   =   TOTAL      ERROR    REF%   MOVEMENT
       1    -103.96827      0.00000       -103.96827   0.00000     1   %  0.0000
       3    -105.69621      0.00097       -105.69524  -1.72697     2   %  0.1964
      46    -106.54516      0.82672       -105.71843  -1.75016     3   %  0.2465
     119    -107.37066      1.69128       -105.67937  -1.71110     4   %  0.2948
     179    -108.33699      2.63968       -105.69731  -1.72903     5   %  0.3455
     253    -109.28022      3.56777       -105.71246  -1.74418     6   %  0.3941
     315    -110.21587      4.50163       -105.71425  -1.74597     7   %  0.4435
     402    -111.20086      5.38953       -105.81133  -1.84305     8   %  0.4920
     525    -112.10143      6.23086       -105.87057  -1.90229     9   %  0.5400
     636    -112.92533      7.01811       -105.90722  -1.93894    10   %  0.5877
     754    -113.72451      7.74772       -105.97680  -2.00852    11   %  0.6352
     884    -114.41074      8.41885       -105.99189  -2.02362    12   %  0.6825
    1003    -115.10237      9.04802       -106.05435  -2.08607    13   %  0.7304
    1112    -115.71719      9.62721       -106.08998  -2.12171    14   %  0.7782
    1229    -116.27504     10.16172       -106.11332  -2.14505    15   %  0.8260
    1342    -116.75479     10.65721       -106.09758  -2.12931    16   %  0.8740
    1437    -117.24424     11.11568       -106.12856  -2.16028    17   %  0.9219
    1524    -117.72601     11.53929       -106.18672  -2.21844    18   %  0.9698
    1617    -118.13088     11.93381       -106.19707  -2.22880    19   %  1.0177
    1699    -118.51681     12.29901       -106.21780  -2.24953    20   %  1.0656
    1769    -118.87968     12.64108       -106.23860  -2.27032    21   %  1.1133
    1843    -119.25321     12.96078       -106.29243  -2.32416    22   %  1.1609
    1907    -119.57695     13.26053       -106.31642  -2.34814    23   %  1.2085
    1977    -119.91050     13.54151       -106.36899  -2.40071    24   %  1.2560
    2040    -120.14699     13.80625       -106.34074  -2.37246    25   %  1.3034
    2091    -120.38751     14.05680       -106.33071  -2.36243    26   %  1.3507
    2141    -120.69672     14.29306       -106.40366  -2.43539    27   %  1.3981
    2193    -120.90547     14.51411       -106.39136  -2.42308    28   %  1.4455
    2247    -121.11878     14.72275       -106.39603  -2.42775    29   %  1.4929
    2292    -121.33685     14.91922       -106.41763  -2.44935    30   %  1.5403
    2327    -121.54004     15.10159       -106.43845  -2.47018    31   %  1.5870
    2364    -121.71726     15.27850       -106.43876  -2.47048    32   %  1.6350
    2403    -121.89121     15.44248       -106.44872  -2.48045    33   %  1.6821
    2447    -122.04570     15.59722       -106.44848  -2.48021    34   %  1.7291


           POTENTIAL ENERGY HAS STOPPED DROPPING

           INITIAL VELOCITY IN DRC (Angstroms/Femtosecond)
        -0.00027        -0.00035        -0.00447
        -0.00199         0.00247         0.06435
        -0.00001        -0.00057        -0.00343
         0.00999        -0.03129         0.00931
         0.01199        -0.00043        -0.00816
         0.00051         0.00091        -0.00003
         0.00122         0.00480        -0.00041
        -0.00349         0.00062        -0.00210
        -0.00360         0.00057        -0.00333
        -0.02550        -0.00163         0.00955
         0.01344         0.01417        -0.00813
         0.00498        -0.00231        -0.00334
         0.00062         0.00017        -0.00415
         0.00145        -0.00189        -0.00470
        -0.03049         0.00959        -0.00981
         0.00034        -0.00031         0.00008
        -0.01421         0.03088         0.00270
         0.00097        -0.00152        -0.01519
        -0.02038        -0.03337        -0.71223
         0.00116        -0.00083         0.00075
        -0.00072         0.00110        -0.00036

 GEOMETRY PRIORITY, STEP = 0.0500 ANGSTROMS



     POINT   POTENTIAL  +  ENERGY LOST   =   TOTAL      ERROR    REF%   MOVEMENT
       1    -103.96828      0.00000       -103.96828   0.00000     1   %  0.0000
       4    -105.05046      0.13456       -104.91590  -0.94762     2   %  0.1966
      46    -105.70790      0.78773       -104.92017  -0.95189     3   %  0.2466
      94    -106.24185      1.52283       -104.71902  -0.75075     4   %  0.2960
     134    -107.05735      2.33350       -104.72385  -0.75557     5   %  0.3460
     192    -107.90717      3.16395       -104.74322  -0.77495     6   %  0.3951
     234    -108.73616      4.00198       -104.73418  -0.76590     7   %  0.4440
     285    -109.56726      4.84115       -104.72610  -0.75783     8   %  0.4937
     324    -110.35222      5.61149       -104.74073  -0.77245     9   %  0.5408
     377    -111.12661      6.37437       -104.75224  -0.78396    10   %  0.5897
     453    -111.83540      7.09137       -104.74403  -0.77576    11   %  0.6381
     505    -112.52331      7.75155       -104.77176  -0.80349    12   %  0.6854
     552    -113.16966      8.36469       -104.80496  -0.83669    13   %  0.7321
     590    -113.68812      8.92171       -104.76641  -0.79814    14   %  0.7774
     632    -114.57435      9.44284       -105.13151  -1.16323    15   %  0.8225
     660    -115.06735      9.93250       -105.13485  -1.16657    16   %  0.8679
     678    -115.53890     10.39182       -105.14708  -1.17881    17   %  0.9134
     711    -115.95977     10.80868       -105.15110  -1.18282    18   %  0.9576
     741    -116.34372     11.19265       -105.15107  -1.18280    19   %  1.0011
     769    -116.70193     11.54930       -105.15263  -1.18435    20   %  1.0442
     801    -117.05553     11.89261       -105.16292  -1.19465    21   %  1.0882
     820    -117.35851     12.19276       -105.16575  -1.19747    22   %  1.1293
     847    -117.65338     12.50062       -105.15276  -1.18448    23   %  1.1749
     874    -117.94720     12.78111       -105.16609  -1.19782    24   %  1.2199
     894    -118.22195     13.04051       -105.18144  -1.21317    25   %  1.2648
     916    -118.47619     13.28423       -105.19196  -1.22368    26   %  1.3099
     936    -118.69302     13.51390       -105.17912  -1.21085    27   %  1.3551
     967    -118.84263     13.72977       -105.11287  -1.14459    28   %  1.4002
     989    -119.03273     13.91980       -105.11293  -1.14465    29   %  1.4419
    1026    -118.97284     14.11888       -104.85396  -0.88569    30   %  1.4880
    1053    -119.22827     14.30415       -104.92412  -0.95585    31   %  1.5332
    1078    -119.40871     14.48007       -104.92864  -0.96037    32   %  1.5782
    1093    -119.56447     14.64274       -104.92173  -0.95346    33   %  1.6220
    1107    -119.70553     14.79212       -104.91341  -0.94513    34   %  1.6642
    1125    -119.85758     14.94142       -104.91616  -0.94789    35   %  1.7087
    1146    -120.03096     15.07796       -104.95300  -0.98473    36   %  1.7517
    1384    -120.13046     15.21099       -104.91948  -0.95120    37   %  1.7958


           POTENTIAL ENERGY HAS STOPPED DROPPING


 **********************
 *                    *
 * JOB ENDED NORMALLY *
 *                    *
 **********************



 TOTAL JOB TIME:           113.75 SECONDS

 == MOPAC DONE ==
