 *******************************************************************************
 ** Site#: 10005        For non-commercial use only     Version 15.317W 64BITS**
 *******************************************************************************
 ** Cite this work as:                                                        **
 **                                                                           **
 ** (a) MOPAC2012, James J. P. Stewart, Stewart Computational Chemistry,      **
 **  Version 15.317W web: HTTP://OpenMOPAC.net         Days remaining: 362    **
 **                                                                           **
 **                                 AND                                       **
 **                                                                           **
 ** (b) Maia, J.D.C., et al., J. Chem. Theory Comput. 2012, 8, 3072-3081.     **
 **                DOI: 10.1021/ct3004645.                                    **
 *******************************************************************************
 **                                                                           **
 **                                MOPAC2012                                  **
 **                                                                           **
 *******************************************************************************

                              PM7 CALCULATION RESULTS


 *******************************************************************************
 *  CALCULATION DONE:                                Mon Nov 16 09:58:15 2015  *
 *  GEO_DAT    - DATA SET GEOMETRY IS IN FILE "LOCATE-TS.ARC"
 *
 *
 *
 *                 CHARGE ON SYSTEM =     1
 *
 *
 *
 *  EPS= 78.40 - USE ANDREAS KLAMT'S COSMO IMPLICIT SOLVATION MODEL
 *  TS         - USE EF ROUTINE FOR TS SEARCH
 *  T=         - A TIME OF 172800.0 SECONDS REQUESTED
 *  DUMP=N     - RESTART FILE WRITTEN EVERY  7200.000 SECONDS
 *******************************************************************************
TS charge=1 eps=78.4 HTML geo_dat="Locate-TS.arc"
 Refine Transition State for acid-catalyzed hydrolysis

   ATOM                 CHEMICAL                   X               Y               Z
  NUMBER                 SYMBOL               (ANGSTROMS)     (ANGSTROMS)     (ANGSTROMS)
 
     1       C(HETATM    1  C1  HET A   3)   -0.08355869      0.07350954      0.05698847   
     2       C(HETATM    2  C2  HET A   3)    1.21825004  *   0.12954635  *   0.78291846  *
     3       O(HETATM    3  O1  HET A   3)    1.96967746      1.22035216      0.82624765   
     4       O(HETATM    4  O2  HET A   3)    2.02055700  *  -1.05426798  *   0.45018090  *
     5       C(HETATM    5  C3  HET A   3)    3.44666766     -0.87169206      0.22078912   
     6       C(HETATM    6  C4  HET A   3)    3.91432232     -2.25603209     -0.17224558   
     7       H(HETATM    7 1H1  HET A   3)    0.03647032     -0.13564615     -1.02122838   
     8       H(HETATM    8 2H1  HET A   3)   -0.73740738     -0.72539860      0.45873335   
     9       H(HETATM    9 3H1  HET A   3)   -0.64328241      1.02244095      0.14285195   
    10       H(HETATM   10 1H3  HET A   3)    3.56010880     -0.12280109     -0.58387420   
    11       H(HETATM   11 2H3  HET A   3)    3.90407023     -0.49099343      1.15080442   
    12       H(HETATM   12 1H4  HET A   3)    3.64341116     -3.01185106      0.58007094   
    13       H(HETATM   13 2H4  HET A   3)    3.48335944     -2.58120057     -1.12974786   
    14       H(HETATM   14 3H4  HET A   3)    5.00977442     -2.27999678     -0.27872071   
    15       H(HETATM   15 1H   HOH A   5)    1.47068944      0.12200546      2.86510273   
    16       O(HETATM   16  O   HOH A   4)    1.00615879  *   3.16094471  *  -0.44171570  *
    17       O(HETATM   17  O   HOH A   5)    1.00952229  *  -0.39985786  *   2.13993652  *
    18       H(HETATM   18 1H   HOH A   4)    1.55730771  *   2.08139036  *   0.27679778  *
    19       H(HETATM   19 2H   HOH A   5)    1.79204123  *  -1.42578731  *   1.72350214  *
    20       H(HETATM   20 2H   HOH A   4)    1.02782866      3.90307990      0.20411191   
    21       H(HETATM   21 3H   HOH A   4)    1.72311538      3.39322745     -1.07491265   
 

     ===================== shared-memory parallel CPU Section ======================
     **                                                                           **
     **  MOPAC calculations will run in shared-memory parallel CPUs               **
     **                                                                           **
     **  Number of Threads =  4                                                   **
     **                                                                           **
     **                                                                           **
     **  For information on this work, see:                                       **
     **                                                                           **
     **  Maia, J.D.C., et al., J. Chem. Theory Comput. 2012, 8, 3072-3081.        **
     **        DOI: 10.1021/ct3004645.                                            **
     **                                                                           **
     ===================== shared-memory parallel CPU Section ======================
      


 General Reference for PM7:
 "Optimization of Parameters for Semiempirical Methods VI: More Modifications to the 
 NDDO Approximations and Re-optimization of Parameters", J. J. P. Stewart, J. Mol. Mod., 1:32, 19 (2013)
 http://www.springerlink.com/openurl.asp?genre=article&id=doi:10.1007/s00894-012-1667-x

           Empirical Formula: C4 H13 O4  =    21 atoms



      MOLECULAR POINT GROUP   :   C1  


      RHF CALCULATION, NO. OF DOUBLY OCCUPIED LEVELS =   26

      Transition state refinement using EF

          HESSIAN CALCULATED NUMERICALLY

 CYCLE:     1 TIME:   0.281 TIME LEFT:  2.00D  GRAD.:     2.410 HEAT: -104.1473
 CYCLE:     2 TIME:   0.016 TIME LEFT:  2.00D  GRAD.:     0.213 HEAT: -104.1799

     GRADIENT =  0.21252  IS LESS THAN CUTOFF =  1.00000



 -------------------------------------------------------------------------------
TS charge=1 eps=78.4 HTML geo_dat="Locate-TS.arc"
 Refine Transition State for acid-catalyzed hydrolysis



     GEOMETRY OPTIMISED USING EIGENVECTOR FOLLOWING (TS).     
     SCF FIELD WAS ACHIEVED                                   


                              PM7 CALCULATION
                                                       MOPAC2012 (Version: 15.317W)
                                                       Mon Nov 16 09:58:16 2015
                                                       No. of days left = 362




          FINAL HEAT OF FORMATION =       -104.17989 KCAL/MOL =    -435.88867 KJ/MOL
          VAN DER WAALS AREA      =        171.47 SQUARE ANGSTROMS


          TOTAL ENERGY            =      -1843.94962 EV
          ELECTRONIC ENERGY       =      -2413.72423 EV  POINT GROUP:     C1  
          CORE-CORE REPULSION     =        569.77461 EV
          DIELECTRIC ENERGY       =         -2.59431 EV
          COSMO AREA              =        171.47 SQUARE ANGSTROMS
          COSMO VOLUME            =        162.41 CUBIC ANGSTROMS

          GRADIENT NORM           =          0.21252
          WARNING -- GEOMETRY IS NOT AT A STATIONARY POINT

          For more information, see: HTTP://OpenMOPAC.net/Manual/Warning_geometry.html

          IONIZATION POTENTIAL    =         11.931418 EV
          HOMO LUMO ENERGIES (EV) =        -11.931 -0.006
          NO. OF FILLED LEVELS    =         26
          MOLECULAR WEIGHT        =        125.144

          MOLECULAR DIMENSIONS (Angstroms)

            Atom       Atom       Distance
            H    12    H    20     6.06010
            H    20    H    12     5.99208
            H    15    H     7     4.06678


          SCF CALCULATIONS        =         22
 




   ATOM                 CHEMICAL                   X               Y               Z
  NUMBER                 SYMBOL               (ANGSTROMS)     (ANGSTROMS)     (ANGSTROMS)
 
     1       C(HETATM    1  C1  HET A   3)   -0.08355869      0.07350954      0.05698847   
     2       C(HETATM    2  C2  HET A   3)    1.21649023  *   0.12796102  *   0.78430596  *
     3       O(HETATM    3  O1  HET A   3)    1.96967746      1.22035216      0.82624765   
     4       O(HETATM    4  O2  HET A   3)    2.02125560  *  -1.05645555  *   0.45855102  *
     5       C(HETATM    5  C3  HET A   3)    3.44666766     -0.87169206      0.22078912   
     6       C(HETATM    6  C4  HET A   3)    3.91432232     -2.25603209     -0.17224558   
     7       H(HETATM    7 1H1  HET A   3)    0.03647032     -0.13564615     -1.02122838   
     8       H(HETATM    8 2H1  HET A   3)   -0.73740738     -0.72539860      0.45873335   
     9       H(HETATM    9 3H1  HET A   3)   -0.64328241      1.02244095      0.14285195   
    10       H(HETATM   10 1H3  HET A   3)    3.56010880     -0.12280109     -0.58387420   
    11       H(HETATM   11 2H3  HET A   3)    3.90407023     -0.49099343      1.15080442   
    12       H(HETATM   12 1H4  HET A   3)    3.64341116     -3.01185106      0.58007094   
    13       H(HETATM   13 2H4  HET A   3)    3.48335944     -2.58120057     -1.12974786   
    14       H(HETATM   14 3H4  HET A   3)    5.00977442     -2.27999678     -0.27872071   
    15       H(HETATM   15 1H   HOH A   5)    1.47068944      0.12200546      2.86510273   
    16       O(HETATM   16  O   HOH A   4)    1.00548982  *   3.16301720  *  -0.44316622  *
    17       O(HETATM   17  O   HOH A   5)    1.00384242  *  -0.39756974  *   2.14214080  *
    18       H(HETATM   18 1H   HOH A   4)    1.55838860  *   2.07545248  *   0.28102545  *
    19       H(HETATM   19 2H   HOH A   5)    1.79509537  *  -1.42348545  *   1.72870456  *
    20       H(HETATM   20 2H   HOH A   4)    1.02782866      3.90307990      0.20411191   
    21       H(HETATM   21 3H   HOH A   4)    1.72311538      3.39322745     -1.07491265   

                             CARTESIAN COORDINATES

   1    C       -0.083558690     0.073509540     0.056988470
   2    C        1.216490227     0.127961023     0.784305964
   3    O        1.969677460     1.220352160     0.826247650
   4    O        2.021255604    -1.056455553     0.458551022
   5    C        3.446667660    -0.871692060     0.220789120
   6    C        3.914322320    -2.256032090    -0.172245580
   7    H        0.036470320    -0.135646150    -1.021228380
   8    H       -0.737407380    -0.725398600     0.458733350
   9    H       -0.643282410     1.022440950     0.142851950
  10    H        3.560108800    -0.122801090    -0.583874200
  11    H        3.904070230    -0.490993430     1.150804420
  12    H        3.643411160    -3.011851060     0.580070940
  13    H        3.483359440    -2.581200570    -1.129747860
  14    H        5.009774420    -2.279996780    -0.278720710
  15    H        1.470689440     0.122005460     2.865102730
  16    O        1.005489818     3.163017205    -0.443166219
  17    O        1.003842424    -0.397569740     2.142140797
  18    H        1.558388605     2.075452479     0.281025451
  19    H        1.795095365    -1.423485446     1.728704564
  20    H        1.027828660     3.903079900     0.204111910
  21    H        1.723115380     3.393227450    -1.074912650


           Empirical Formula: C4 H13 O4  =    21 atoms



      MOLECULAR POINT GROUP   :   C1  


                  EIGENVALUES  
 -32.16057 -30.54433 -29.78757 -29.53239 -27.66685 -26.50180 -22.42044 -21.87546
 -19.49093 -18.48988 -18.29961 -18.07885 -16.95940 -16.07468 -15.71670 -15.41699
 -14.99505 -14.62701 -14.10980 -13.82853 -13.52323 -13.18862 -13.05309 -12.70501
 -12.54893 -11.93142  -0.00628   1.15520   1.78710   2.43601   2.76873   3.01939
   3.60014   3.90180   4.79928   4.98512   5.04729   5.07715   5.37867   5.53231
   5.57619   5.62809   5.90605   6.20248   6.64174


              NET ATOMIC CHARGES AND DIPOLE CONTRIBUTIONS

  ATOM NO.                 TYPE                        CHARGE      No. of ELECS.   s-Pop       p-Pop       
    1          C(HETATM    1  C1  HET A   3)          -0.518132        4.5181     1.06275     3.45538
    2          C(HETATM    2  C2  HET A   3)           0.718817        3.2812     1.10829     2.17289
    3          O(HETATM    3  O1  HET A   3)          -0.668261        6.6683     1.84846     4.81981
    4          O(HETATM    4  O2  HET A   3)          -0.452508        6.4525     1.87799     4.57451
    5          C(HETATM    5  C3  HET A   3)           0.008694        3.9913     1.10308     2.88823
    6          C(HETATM    6  C4  HET A   3)          -0.478195        4.4782     1.05606     3.42213
    7          H(HETATM    7 1H1  HET A   3)           0.209252        0.7907     0.79075
    8          H(HETATM    8 2H1  HET A   3)           0.211658        0.7883     0.78834
    9          H(HETATM    9 3H1  HET A   3)           0.208621        0.7914     0.79138
   10          H(HETATM   10 1H3  HET A   3)           0.158005        0.8420     0.84200
   11          H(HETATM   11 2H3  HET A   3)           0.152828        0.8472     0.84717
   12          H(HETATM   12 1H4  HET A   3)           0.172829        0.8272     0.82717
   13          H(HETATM   13 2H4  HET A   3)           0.169587        0.8304     0.83041
   14          H(HETATM   14 3H4  HET A   3)           0.182272        0.8177     0.81773
   15          H(HETATM   15 1H   HOH A   5)           0.418365        0.5816     0.58164
   16          O(HETATM   16  O   HOH A   4)          -0.671458        6.6715     1.81449     4.85697
   17          O(HETATM   17  O   HOH A   5)          -0.574212        6.5742     1.85482     4.71939
   18          H(HETATM   18 1H   HOH A   4)           0.442005        0.5580     0.55799
   19          H(HETATM   19 2H   HOH A   5)           0.509882        0.4901     0.49012
   20          H(HETATM   20 2H   HOH A   4)           0.400186        0.5998     0.59981
   21          H(HETATM   21 3H   HOH A   4)           0.399765        0.6002     0.60023
 DIPOLE           X         Y         Z       TOTAL
 POINT-CHG.     0.637     2.520     0.690     2.690
 HYBRID         0.364     0.388     0.505     0.733
 SUM            1.001     2.908     1.195     3.299


          ATOMIC ORBITAL ELECTRON POPULATIONS

                   Atom                  s        px        py        pz   
   C(HETATM    1  C1  HET A   3)   1.06275   1.04436   1.23567   1.17535
   C(HETATM    2  C2  HET A   3)   1.10829   0.79562   0.68944   0.68783
   O(HETATM    3  O1  HET A   3)   1.84846   1.61606   1.40103   1.80271
   O(HETATM    4  O2  HET A   3)   1.87799   1.37063   1.48247   1.72142
   C(HETATM    5  C3  HET A   3)   1.10308   0.69902   1.04685   1.14236
   C(HETATM    6  C4  HET A   3)   1.05606   1.17749   1.05088   1.19376
   H(HETATM    7 1H1  HET A   3)   0.79075
   H(HETATM    8 2H1  HET A   3)   0.78834
   H(HETATM    9 3H1  HET A   3)   0.79138
   H(HETATM   10 1H3  HET A   3)   0.84200
   H(HETATM   11 2H3  HET A   3)   0.84717
   H(HETATM   12 1H4  HET A   3)   0.82717
   H(HETATM   13 2H4  HET A   3)   0.83041
   H(HETATM   14 3H4  HET A   3)   0.81773
   H(HETATM   15 1H   HOH A   5)   0.58164
   O(HETATM   16  O   HOH A   4)   1.81449   1.67700   1.60416   1.57581
   O(HETATM   17  O   HOH A   5)   1.85482   1.73063   1.59120   1.39756
   H(HETATM   18 1H   HOH A   4)   0.55799
   H(HETATM   19 2H   HOH A   5)   0.49012
   H(HETATM   20 2H   HOH A   4)   0.59981
   H(HETATM   21 3H   HOH A   4)   0.60023
 *******************************************************************************
 ** Site#: 10005        For non-commercial use only     Version 15.317W 64BITS**
 *******************************************************************************
 ** Cite this work as:                                                        **
 **                                                                           **
 ** (a) MOPAC2012, James J. P. Stewart, Stewart Computational Chemistry,      **
 **  Version 15.317W web: HTTP://OpenMOPAC.net         Days remaining: 362    **
 **                                                                           **
 **                                 AND                                       **
 **                                                                           **
 ** (b) Maia, J.D.C., et al., J. Chem. Theory Comput. 2012, 8, 3072-3081.     **
 **                DOI: 10.1021/ct3004645.                                    **
 *******************************************************************************
 **                                                                           **
 **                                MOPAC2012                                  **
 **                                                                           **
 *******************************************************************************

                              PM7 CALCULATION RESULTS


 *******************************************************************************
 *  CALCULATION DONE:                                Mon Nov 16 09:58:16 2015  *
 *
 *
 *
 *                 CHARGE ON SYSTEM =     1
 *
 *
 *
 *  EPS= 78.40 - USE ANDREAS KLAMT'S COSMO IMPLICIT SOLVATION MODEL
 *  OLDGEO     - PREVIOUS GEOMETRY TO BE USED
 *  FORCE      - FORCE CALCULATION SPECIFIED
 *  T=         - A TIME OF 172800.0 SECONDS REQUESTED
 *  DUMP=N     - RESTART FILE WRITTEN EVERY  7200.000 SECONDS
 *******************************************************************************
Oldgeo FORCE charge=1 EPS=78.4

   ATOM                 CHEMICAL                   X               Y               Z
  NUMBER                 SYMBOL               (ANGSTROMS)     (ANGSTROMS)     (ANGSTROMS)
 
     1       C(HETATM    1  C1  HET A   3)   -0.08355869      0.07350954      0.05698847   
     2       C(HETATM    2  C2  HET A   3)    1.21649023  *   0.12796102  *   0.78430596  *
     3       O(HETATM    3  O1  HET A   3)    1.96967746      1.22035216      0.82624765   
     4       O(HETATM    4  O2  HET A   3)    2.02125560  *  -1.05645555  *   0.45855102  *
     5       C(HETATM    5  C3  HET A   3)    3.44666766     -0.87169206      0.22078912   
     6       C(HETATM    6  C4  HET A   3)    3.91432232     -2.25603209     -0.17224558   
     7       H(HETATM    7 1H1  HET A   3)    0.03647032     -0.13564615     -1.02122838   
     8       H(HETATM    8 2H1  HET A   3)   -0.73740738     -0.72539860      0.45873335   
     9       H(HETATM    9 3H1  HET A   3)   -0.64328241      1.02244095      0.14285195   
    10       H(HETATM   10 1H3  HET A   3)    3.56010880     -0.12280109     -0.58387420   
    11       H(HETATM   11 2H3  HET A   3)    3.90407023     -0.49099343      1.15080442   
    12       H(HETATM   12 1H4  HET A   3)    3.64341116     -3.01185106      0.58007094   
    13       H(HETATM   13 2H4  HET A   3)    3.48335944     -2.58120057     -1.12974786   
    14       H(HETATM   14 3H4  HET A   3)    5.00977442     -2.27999678     -0.27872071   
    15       H(HETATM   15  H   HOH A   5)    1.47068944      0.12200546      2.86510273   
    16       O(HETATM   16  O   HOH A   4)    1.00548982  *   3.16301720  *  -0.44316622  *
    17       O(HETATM   17  O   HOH A   5)    1.00384242  *  -0.39756974  *   2.14214080  *
    18       H(HETATM   18  H1  HET A   3)    1.55838860  *   2.07545248  *   0.28102545  *
    19       H(HETATM   19 2H   HOH A   5)    1.79509537  *  -1.42348545  *   1.72870456  *
    20       H(HETATM   20 1H   HOH A   4)    1.02782866      3.90307990      0.20411191   
    21       H(HETATM   21 2H   HOH A   4)    1.72311538      3.39322745     -1.07491265   
 

 General Reference for PM7:
 "Optimization of Parameters for Semiempirical Methods VI: More Modifications to the 
 NDDO Approximations and Re-optimization of Parameters", J. J. P. Stewart, J. Mol. Mod., 1:32, 19 (2013)
 http://www.springerlink.com/openurl.asp?genre=article&id=doi:10.1007/s00894-012-1667-x

           Empirical Formula: C4 H13 O4  =    21 atoms



      MOLECULAR POINT GROUP   :   C1  


      RHF CALCULATION, NO. OF DOUBLY OCCUPIED LEVELS =   26



          HEAT OF FORMATION =    -104.179893 KCALS/MOLE


          CARTESIAN COORDINATE DERIVATIVES

   NUMBER  ATOM         X            Y            Z

     1       C      0.058246     0.470843     0.557662
     2       C      0.042113     0.023351    -0.055417
     3       O     -0.144335     2.796713    -0.509328
     4       O     -0.102254     0.001111    -0.070713
     5       C     -0.273332     0.928097    -1.166279
     6       C     -0.168547    -0.317252    -0.632662
     7       H     -1.342113    -0.523933     0.332366
     8       H      1.595160    -0.592226     0.130386
     9       H     -0.035617    -0.116912    -0.236675
    10       H      1.534211     0.314685    -1.039159
    11       H     -0.420480    -0.511369     0.520656
    12       H     -0.252014    -0.005793     0.146766
    13       H     -0.058321    -0.019369    -0.154687
    14       H     -0.197880    -0.010622     0.228099
    15       H     -1.171593    -0.364018     1.469127
    16       O      0.143033     0.023285     0.053921
    17       O      0.006150    -0.068394     0.380267
    18       H      0.025144    -0.080300     0.000471
    19       H      0.285199    -0.075349     0.050920
    20       H      0.220368    -0.922560     0.239110
    21       H      0.257223    -0.949613    -0.244520
 


          GRADIENT NORM =   5.19788


          TIME FOR SCF CALCULATION =    0.02

          TIME FOR DERIVATIVES     =    0.02

          MOLECULAR WEIGHT =  125.14



          ROTATIONAL CONSTANTS IN CM(-1)

          A =    0.08575903   B =    0.03570823   C =    0.03045111



           PRINCIPAL MOMENTS OF INERTIA IN UNITS OF 10**(-40)*GRAM-CM**2

          A =      326.4120   B =      783.9306   C =      919.2695


          ORIENTATION OF MOLECULE IN FORCE CALCULATION

    NO.       ATOM         X         Y         Z

     1          C      -1.8480   -0.1110    0.5245
     2          C      -0.3574   -0.1110    0.5245
     3          O       0.3599    1.0061    0.5245
     4          O       0.1423   -1.0597   -0.4790
     5          C       1.2762   -0.6549   -1.2993
     6          C       1.4417   -1.8143   -2.2574
     7          H      -2.2771    0.0004   -0.4875
     8          H      -2.2514   -1.0590    0.9317
     9          H      -2.2596    0.7070    1.1430
    10          H       1.0099    0.2947   -1.7978
    11          H       2.1428   -0.4957   -0.6339
    12          H       1.5449   -2.7741   -1.7293
    13          H       0.5868   -1.9099   -2.9417
    14          H       2.3442   -1.6826   -2.8738
    15          H       0.8794   -0.6614    2.1252
    16          O      -1.0294    3.1000    0.5074
    17          O       0.1005   -1.0113    1.5946
    18          H      -0.2336    1.9255    0.5220
    19          H       0.5514   -1.7860    0.5718
    20          H      -0.6671    3.6304    1.2520
    21          H      -0.7034    3.5759   -0.2891


    FIRST DERIVATIVES WILL BE USED IN THE CALCULATION OF SECOND DERIVATIVES

          ESTIMATED TIME TO COMPLETE CALCULATION =        3.94 SECONDS

    FOR POINT-GROUP C1   THERE ARE   1 UNIQUE SYMMETRY FUNCTIONS.

 STEP:   1 TIME =     0.03 SECS, INTEGRAL =      0.03 TIME LEFT: 172799.94
 STEP:   2 TIME =     0.03 SECS, INTEGRAL =      0.06 TIME LEFT: 172799.91
 STEP:   3 TIME =     0.03 SECS, INTEGRAL =      0.09 TIME LEFT: 172799.88
 STEP:   4 TIME =     0.03 SECS, INTEGRAL =      0.12 TIME LEFT: 172799.85
 STEP:   5 TIME =     0.04 SECS, INTEGRAL =      0.16 TIME LEFT: 172799.81
 STEP:   6 TIME =     0.02 SECS, INTEGRAL =      0.17 TIME LEFT: 172799.80
 STEP:   7 TIME =     0.03 SECS, INTEGRAL =      0.20 TIME LEFT: 172799.77
 STEP:   8 TIME =     0.04 SECS, INTEGRAL =      0.23 TIME LEFT: 172799.73
 STEP:   9 TIME =     0.03 SECS, INTEGRAL =      0.27 TIME LEFT: 172799.70
 STEP:  10 TIME =     0.03 SECS, INTEGRAL =      0.30 TIME LEFT: 172799.67
 STEP:  11 TIME =     0.03 SECS, INTEGRAL =      0.32 TIME LEFT: 172799.64
 STEP:  12 TIME =     0.03 SECS, INTEGRAL =      0.36 TIME LEFT: 172799.61
 STEP:  13 TIME =     0.02 SECS, INTEGRAL =      0.37 TIME LEFT: 172799.60
 STEP:  14 TIME =     0.03 SECS, INTEGRAL =      0.40 TIME LEFT: 172799.57
 STEP:  15 TIME =     0.05 SECS, INTEGRAL =      0.45 TIME LEFT: 172799.52
 STEP:  16 TIME =     0.03 SECS, INTEGRAL =      0.48 TIME LEFT: 172799.49
 STEP:  17 TIME =     0.02 SECS, INTEGRAL =      0.50 TIME LEFT: 172799.47
 STEP:  18 TIME =     0.03 SECS, INTEGRAL =      0.53 TIME LEFT: 172799.44
 STEP:  19 TIME =     0.03 SECS, INTEGRAL =      0.56 TIME LEFT: 172799.41
 STEP:  20 TIME =     0.03 SECS, INTEGRAL =      0.59 TIME LEFT: 172799.38
 STEP:  21 TIME =     0.02 SECS, INTEGRAL =      0.61 TIME LEFT: 172799.36
 STEP:  22 TIME =     0.03 SECS, INTEGRAL =      0.64 TIME LEFT: 172799.33
 STEP:  23 TIME =     0.03 SECS, INTEGRAL =      0.67 TIME LEFT: 172799.30
 STEP:  24 TIME =     0.02 SECS, INTEGRAL =      0.68 TIME LEFT: 172799.29
 STEP:  25 TIME =     0.03 SECS, INTEGRAL =      0.71 TIME LEFT: 172799.25
 STEP:  26 TIME =     0.03 SECS, INTEGRAL =      0.75 TIME LEFT: 172799.22
 STEP:  27 TIME =     0.02 SECS, INTEGRAL =      0.76 TIME LEFT: 172799.21
 STEP:  28 TIME =     0.03 SECS, INTEGRAL =      0.79 TIME LEFT: 172799.18
 STEP:  29 TIME =     0.03 SECS, INTEGRAL =      0.82 TIME LEFT: 172799.14
 STEP:  30 TIME =     0.03 SECS, INTEGRAL =      0.86 TIME LEFT: 172799.11
 STEP:  31 TIME =     0.02 SECS, INTEGRAL =      0.87 TIME LEFT: 172799.10
 STEP:  32 TIME =     0.03 SECS, INTEGRAL =      0.90 TIME LEFT: 172799.07
 STEP:  33 TIME =     0.03 SECS, INTEGRAL =      0.93 TIME LEFT: 172799.04
 STEP:  34 TIME =     0.02 SECS, INTEGRAL =      0.95 TIME LEFT: 172799.02
 STEP:  35 TIME =     0.03 SECS, INTEGRAL =      0.98 TIME LEFT: 172798.99
 STEP:  36 TIME =     0.03 SECS, INTEGRAL =      1.01 TIME LEFT: 172798.96
 STEP:  37 TIME =     0.03 SECS, INTEGRAL =      1.04 TIME LEFT: 172798.93
 STEP:  38 TIME =     0.02 SECS, INTEGRAL =      1.06 TIME LEFT: 172798.91
 STEP:  39 TIME =     0.03 SECS, INTEGRAL =      1.09 TIME LEFT: 172798.88
 STEP:  40 TIME =     0.02 SECS, INTEGRAL =      1.11 TIME LEFT: 172798.86
 STEP:  41 TIME =     0.03 SECS, INTEGRAL =      1.14 TIME LEFT: 172798.83
 STEP:  42 TIME =     0.03 SECS, INTEGRAL =      1.17 TIME LEFT: 172798.80
 STEP:  43 TIME =     0.02 SECS, INTEGRAL =      1.18 TIME LEFT: 172798.79
 STEP:  44 TIME =     0.03 SECS, INTEGRAL =      1.21 TIME LEFT: 172798.75
 STEP:  45 TIME =     0.03 SECS, INTEGRAL =      1.25 TIME LEFT: 172798.72
 STEP:  46 TIME =     0.03 SECS, INTEGRAL =      1.28 TIME LEFT: 172798.69
 STEP:  47 TIME =     0.02 SECS, INTEGRAL =      1.29 TIME LEFT: 172798.68
 STEP:  48 TIME =     0.03 SECS, INTEGRAL =      1.32 TIME LEFT: 172798.64
 STEP:  49 TIME =     0.03 SECS, INTEGRAL =      1.36 TIME LEFT: 172798.61
 STEP:  50 TIME =     0.02 SECS, INTEGRAL =      1.37 TIME LEFT: 172798.60
 STEP:  51 TIME =     0.03 SECS, INTEGRAL =      1.40 TIME LEFT: 172798.57
 STEP:  52 TIME =     0.03 SECS, INTEGRAL =      1.43 TIME LEFT: 172798.54
 STEP:  53 TIME =     0.02 SECS, INTEGRAL =      1.45 TIME LEFT: 172798.52
 STEP:  54 TIME =     0.03 SECS, INTEGRAL =      1.48 TIME LEFT: 172798.49
 STEP:  55 TIME =     0.03 SECS, INTEGRAL =      1.51 TIME LEFT: 172798.46
 STEP:  56 TIME =     0.02 SECS, INTEGRAL =      1.53 TIME LEFT: 172798.44
 STEP:  57 TIME =     0.03 SECS, INTEGRAL =      1.56 TIME LEFT: 172798.41
 STEP:  58 TIME =     0.03 SECS, INTEGRAL =      1.59 TIME LEFT: 172798.38
 STEP:  59 TIME =     0.02 SECS, INTEGRAL =      1.61 TIME LEFT: 172798.36
 STEP:  60 TIME =     0.03 SECS, INTEGRAL =      1.64 TIME LEFT: 172798.33
 STEP:  61 TIME =     0.03 SECS, INTEGRAL =      1.67 TIME LEFT: 172798.30
 STEP:  62 TIME =     0.02 SECS, INTEGRAL =      1.68 TIME LEFT: 172798.29
 STEP:  63 TIME =     0.03 SECS, INTEGRAL =      1.71 TIME LEFT: 172798.25

(To convert to Hartree/Bohr^2, multiply by (10^(-21) x N x a0^2)/(4.184 x 627.51) =  0.0642)


           FORCE MATRIX IN MILLIDYNES/ANGSTROM


                  C  1       C  2       O  3       O  4       C  5       C  6
 ------------------------------------------------------------------------------
     C    1  11.259624
     C    2   3.347451  14.010328
     O    3   0.839079   5.797200   9.240577
     O    4   0.818456   2.480807   1.296990   8.586757
     C    5   0.122013   0.916119   0.133596   3.086259  11.581765
     C    6   0.057721   0.219320   0.072435   1.129773   3.297597  11.297503
     H    7   3.282781   0.753392   0.043443   0.029291   0.022829   0.010133
     H    8   3.257371   0.782693   0.057603   0.026468   0.021043   0.009362
     H    9   3.274252   0.782022   0.044443   0.050042   0.017498   0.007174
     H   10   0.012946   0.085921   0.029531   0.674620   3.305966   0.645853
     H   11   0.012210   0.072385   0.015060   0.674235   3.309602   0.627332
     H   12   0.007728   0.031743   0.012153   0.021672   0.699467   3.355372
     H   13   0.007497   0.030671   0.012182   0.022329   0.703654   3.376522
     H   14   0.007137   0.030590   0.010547   0.072042   0.690041   3.322373
     H   15   0.094390   0.895935   0.125130   0.187409   0.073481   0.027921
     O   16   0.066616   0.443374   1.481189   0.087392   0.037349   0.020650
     O   17   0.889607   2.345539   1.332247   2.525399   0.268281   0.105036
     H   18   0.074690   1.557576   1.794521   0.214581   0.082768   0.045720
     H   19   0.157228   1.838696   0.125529   1.234060   0.504452   0.073370
     H   20   0.013599   0.069535   0.124613   0.013487   0.006124   0.003139
     H   21   0.014946   0.072518   0.128417   0.015354   0.006372   0.003261


                  H  7       H  8       H  9       H 10       H 11       H 12
 ------------------------------------------------------------------------------
     H    7   4.093043
     H    8   0.438194   4.080374
     H    9   0.438603   0.434353   4.080181
     H   10   0.002834   0.001973   0.002022   4.138342
     H   11   0.002600   0.002106   0.001357   0.433998   4.131984
     H   12   0.002039   0.001808   0.000818   0.046033   0.033424   4.158372
     H   13   0.003948   0.001596   0.000954   0.018619   0.047553   0.451852
     H   14   0.001662   0.000975   0.001064   0.017258   0.016769   0.450415
     H   15   0.016594   0.016730   0.012803   0.008357   0.006216   0.004859
     O   16   0.018343   0.010431   0.019196   0.009967   0.006669   0.002971
     O   17   0.054718   0.019513   0.034301   0.032374   0.036018   0.016899
     H   18   0.030760   0.020660   0.045309   0.020568   0.013710   0.006719
     H   19   0.029042   0.020617   0.017825   0.061654   0.051936   0.026531
     H   20   0.003645   0.001508   0.006353   0.001766   0.001769   0.000669
     H   21   0.004477   0.001557   0.006566   0.003623   0.001037   0.000515


                  H 13       H 14       H 15       O 16       O 17       H 18
 ------------------------------------------------------------------------------
     H   13   4.171724
     H   14   0.451802   4.136030
     H   15   0.003832   0.003507   4.057817
     O   16   0.003429   0.002546   0.035179   6.175742
     O   17   0.015157   0.013016   3.517893   0.101610   7.307096
     H   18   0.007568   0.005365   0.080369   0.642754   0.246498   2.072030
     H   19   0.020004   0.014508   0.314262   0.032962   1.225994   0.081644
     H   20   0.000423   0.000626   0.005698   3.708767   0.016613   0.322196
     H   21   0.000643   0.000995   0.005580   3.697014   0.016522   0.332046


                  H 19       H 20       H 21
 ------------------------------------------
     H   19   2.593313
     H   20   0.004691   4.165118
     H   21   0.004783   0.726468   4.153024


          HEAT OF FORMATION =    -104.179893 KCALS/MOLE

          ZERO POINT ENERGY      96.703 KCAL/MOL

         NOTE: SYSTEM IS NOT A GROUND STATE, THEREFORE ZERO POINT
         ENERGY IS NOT MEANINGFULL. ZERO POINT ENERGY PRINTED
         DOES NOT INCLUDE THE  2 IMAGINARY FREQUENCIES


           NORMAL COORDINATE ANALYSIS (Total motion = 1 Angstrom)


   Root No.       1         2         3         4         5         6         7         8

                 1 A       2 A       3 A       4 A       5 A       6 A       7 A       8 A   

               -1277.0     -64.6      17.2      28.5      76.0     100.5     132.0     164.9
  
           1    0.0004   -0.0013   -0.0021   -0.0055    0.0131    0.0098   -0.0061   -0.0058
           2    0.0007   -0.0089    0.0033    0.0018    0.0518    0.0219   -0.0054    0.0144
           3    0.0048    0.0162   -0.0109    0.0261    0.0048    0.0002    0.0351    0.0225
           4    0.0004   -0.0012   -0.0021   -0.0055    0.0139    0.0097   -0.0057   -0.0059
           5    0.0006   -0.0057    0.0073   -0.0039    0.0126    0.0115    0.0014   -0.0013
           6   -0.0622    0.0102   -0.0186    0.0058    0.0010    0.0019   -0.0047   -0.0062
           7   -0.0001   -0.0036   -0.0045   -0.0014    0.0352    0.0171   -0.0107    0.0019
           8    0.0002   -0.0044    0.0089   -0.0065    0.0009    0.0062    0.0036   -0.0061
           9    0.0026    0.0159   -0.0386    0.0193    0.0162    0.0090   -0.0168   -0.0291
          10   -0.0081   -0.0026   -0.0038   -0.0205   -0.0096   -0.0042   -0.0220   -0.0178
          11    0.0282    0.0017   -0.0040    0.0134    0.0157    0.0110    0.0065   -0.0098
          12   -0.0076    0.0021   -0.0083   -0.0179   -0.0119   -0.0053   -0.0199   -0.0062
          13   -0.0117   -0.0082   -0.0091   -0.0274    0.0047    0.0043    0.0174    0.0135
          14    0.0004    0.0111   -0.0089    0.0266   -0.0044   -0.0073   -0.0129   -0.0123
          15    0.0082   -0.0007   -0.0185   -0.0207   -0.0016   -0.0017    0.0217    0.0312
          16   -0.0004   -0.0044    0.0236    0.0334   -0.0030   -0.0062    0.0139    0.0150
          17   -0.0006    0.0153   -0.0426   -0.0058   -0.0112   -0.0154    0.0002    0.0187
          18   -0.0001   -0.0052    0.0282    0.0293    0.0052    0.0060    0.0057   -0.0041
          19   -0.0046   -0.0059   -0.0073   -0.0193    0.0113    0.0155   -0.0356   -0.0257
          20   -0.0002   -0.0064   -0.0054    0.0110   -0.0648    0.2317   -0.0046    0.0289
          21    0.0041    0.0186   -0.0096    0.0330   -0.0073    0.0212    0.0480    0.0328
          22    0.0030    0.0026    0.0025   -0.0033   -0.0117    0.0047    0.0089   -0.0083
          23   -0.0007   -0.0113    0.0053    0.0004    0.1146   -0.0588   -0.0075    0.0162
          24    0.0011    0.0145   -0.0016    0.0248    0.1264   -0.1936    0.0452    0.0238
          25    0.0030    0.0000   -0.0012    0.0062    0.0358    0.0172    0.0084    0.0170
          26   -0.0009   -0.0123    0.0069   -0.0014    0.1431   -0.1028   -0.0088    0.0141
          27    0.0046    0.0214   -0.0151    0.0382   -0.1004    0.1701    0.0495    0.0389
          28    0.0235   -0.0160   -0.0327   -0.0674    0.0224    0.0178    0.0663    0.0469
          29    0.0006    0.0111   -0.0351   -0.0056   -0.0026   -0.0066    0.0054    0.0091
          30   -0.0080    0.0036   -0.0556   -0.0603   -0.0077   -0.0075    0.0307    0.0523
          31   -0.0112   -0.0066   -0.0155   -0.0401    0.0013    0.0036    0.0019   -0.0001
          32   -0.0122    0.0145    0.0402    0.0942   -0.0144   -0.0144   -0.0554   -0.0505
          33    0.0066   -0.0036   -0.0220   -0.0204    0.0055    0.0011    0.0534    0.0581
          34   -0.0060    0.0033    0.0522    0.0881   -0.0209   -0.0147   -0.1109    0.1689
          35    0.0039    0.0143   -0.0184    0.0229   -0.0104   -0.0127   -0.0230    0.0198
          36    0.0045   -0.0085    0.0670    0.0715    0.0102    0.0126   -0.0117   -0.0347
          37   -0.0013   -0.0061    0.0263    0.0375    0.0020   -0.0079    0.0693   -0.0554
          38   -0.0003    0.0123   -0.0954   -0.0827   -0.0023   -0.0131    0.0854   -0.0490
          39    0.0043   -0.0026    0.0322    0.0349   -0.0023    0.0077   -0.0750    0.0917
          40   -0.0017   -0.0070    0.0197    0.0253    0.0044   -0.0056    0.0816   -0.0716
          41    0.0027    0.0226   -0.0414    0.0164   -0.0266   -0.0277   -0.0556    0.1201
          42    0.0040   -0.0075    0.0226    0.0222    0.0126    0.0043    0.0928   -0.1098
          43    0.0317    0.0060    0.0051    0.0123    0.0053    0.0043    0.0330    0.0092
          44   -0.0152   -0.0112    0.0312   -0.0367   -0.0383   -0.0164   -0.0154   -0.0040
          45    0.0087    0.0023   -0.0153   -0.0191   -0.0098   -0.0038   -0.0379   -0.0175
          46   -0.0002    0.0104   -0.0071    0.0159   -0.0363   -0.0222   -0.0015    0.0024
          47    0.0002    0.0027    0.0085    0.0041   -0.0446   -0.0211    0.0105   -0.0071
          48    0.0002   -0.0561    0.0550   -0.0152   -0.0026   -0.0041    0.0001   -0.0007
          49    0.0137    0.0055    0.0052    0.0052   -0.0059   -0.0013    0.0144   -0.0026
          50   -0.0307   -0.0110    0.0220   -0.0254   -0.0112   -0.0017   -0.0033    0.0035
          51   -0.0064    0.0025   -0.0088   -0.0165   -0.0114   -0.0052   -0.0168   -0.0039
          52    0.0005   -0.0041   -0.0061    0.0038    0.0345    0.0110   -0.0122    0.0058
          53   -0.0020   -0.0040    0.0074   -0.0033    0.0005    0.0059    0.0034   -0.0034
          54    0.0173   -0.0132   -0.0007    0.0064    0.0086    0.0036   -0.0104   -0.0183
          55    0.0131    0.0049    0.0042   -0.0086   -0.0294   -0.0153   -0.0337   -0.0321
          56    0.0438   -0.0027    0.0110   -0.0070   -0.0109   -0.0029   -0.0144   -0.0150
          57    0.7170   -0.0029   -0.0024   -0.0343   -0.0215   -0.0102   -0.0304   -0.0038
          58   -0.0013   -0.2304   -0.0579    0.0490   -0.0935   -0.0505    0.0064    0.0058
          59    0.0007   -0.1357   -0.0580    0.0317   -0.0308   -0.0138    0.0024   -0.0139
          60    0.0001    0.1601    0.1268   -0.0509    0.0149    0.0046    0.0021    0.0024
          61    0.0009    0.2844    0.0486   -0.0097   -0.0407   -0.0227   -0.0001   -0.0051
          62   -0.0009    0.1433    0.0793   -0.0324   -0.0166   -0.0075    0.0128    0.0027
          63    0.0004    0.1398    0.1201   -0.0475    0.0129    0.0036    0.0019    0.0020


   Root No.       9        10        11        12        13        14        15        16

                 9 A      10 A      11 A      12 A      13 A      14 A      15 A      16 A   

                 182.4     297.0     318.4     349.5     387.8     446.2     478.0     559.4
  
           1    0.0028    0.0092    0.0074    0.0111    0.0230   -0.0052    0.0264   -0.0325
           2   -0.0239    0.0369    0.0057    0.0172   -0.0439   -0.0011    0.0066    0.0029
           3   -0.0057    0.0211   -0.0461   -0.0210    0.0013    0.0016   -0.0047   -0.0036
           4    0.0042    0.0079    0.0053    0.0079    0.0228   -0.0051    0.0252   -0.0262
           5    0.0073   -0.0200   -0.0008   -0.0306    0.0160   -0.0066    0.0222   -0.0043
           6    0.0005    0.0037    0.0138    0.0038    0.0056   -0.0114    0.0263    0.0409
           7   -0.0165   -0.0100    0.0024    0.0018    0.0552    0.0091   -0.0366    0.0029
           8    0.0189    0.0000    0.0030   -0.0167    0.0051   -0.0106    0.0425   -0.0249
           9    0.0359    0.0095    0.0297   -0.0368   -0.0190   -0.0115   -0.0354   -0.0258
          10    0.0054    0.0195   -0.0469    0.0062   -0.0209    0.0002    0.0008    0.0013
          11    0.0294   -0.0295   -0.0193   -0.0102    0.0049   -0.0070    0.0131    0.0455
          12   -0.0184    0.0113   -0.0020    0.0049    0.0014   -0.0034    0.0171    0.0054
          13    0.0335   -0.0009   -0.0356    0.0037   -0.0199    0.0040   -0.0134    0.0154
          14   -0.0170   -0.0258   -0.0256    0.0358   -0.0028    0.0044   -0.0103   -0.0015
          15    0.0014   -0.0196    0.0205    0.0242    0.0066    0.0006    0.0027   -0.0194
          16   -0.0218    0.0270    0.0145   -0.0364    0.0012   -0.0031    0.0052    0.0122
          17   -0.0323   -0.0104    0.0063    0.0170    0.0071    0.0020   -0.0015   -0.0114
          18    0.0071   -0.0351   -0.0074    0.0463    0.0013    0.0044   -0.0072   -0.0187
          19    0.0037   -0.0021    0.0636    0.0418    0.0199   -0.0171    0.0667    0.0259
          20   -0.0563    0.0653    0.0050    0.0403   -0.0814    0.0028   -0.0031    0.0139
          21   -0.0095    0.0293   -0.0728   -0.0333   -0.0013    0.0073   -0.0241   -0.0303
          22    0.0213   -0.0290   -0.0173   -0.0356    0.0743   -0.0034    0.0206   -0.0641
          23   -0.0237    0.0552    0.0057    0.0318   -0.0692   -0.0006    0.0049    0.0066
          24    0.0136    0.0239   -0.0721   -0.0369    0.0023    0.0053   -0.0177   -0.0329
          25   -0.0179    0.0569   -0.0268    0.0251   -0.0269    0.0039   -0.0043   -0.0598
          26   -0.0194    0.0528    0.0089    0.0318   -0.0682   -0.0016    0.0064    0.0092
          27   -0.0261    0.0352   -0.0751   -0.0302   -0.0044    0.0087   -0.0279   -0.0313
          28    0.0848   -0.0294   -0.0250   -0.0056   -0.0217    0.0029   -0.0220    0.0386
          29   -0.0045   -0.0308   -0.0169    0.0348   -0.0031    0.0052   -0.0135   -0.0026
          30   -0.0010   -0.0148    0.0285    0.0281    0.0040    0.0030   -0.0014   -0.0305
          31    0.0332    0.0063   -0.0478    0.0039   -0.0229    0.0018   -0.0063    0.0183
          32   -0.0602   -0.0088   -0.0315    0.0397    0.0018    0.0033   -0.0006   -0.0198
          33    0.0112   -0.0327    0.0405    0.0217    0.0104    0.0036   -0.0084   -0.0197
          34    0.0431    0.0352    0.0358   -0.0588    0.0101   -0.0066    0.0141    0.0168
          35   -0.0206   -0.0183   -0.0069    0.0262    0.0041    0.0030   -0.0058   -0.0094
          36    0.0146   -0.0524   -0.0373    0.0712   -0.0063    0.0078   -0.0187   -0.0186
          37   -0.0798    0.0416    0.0335   -0.0540    0.0110   -0.0064    0.0155    0.0159
          38   -0.0603   -0.0126    0.0013    0.0255    0.0013    0.0036   -0.0041   -0.0153
          39    0.0823   -0.0523   -0.0299    0.0654   -0.0097    0.0077   -0.0185   -0.0210
          40   -0.0798    0.0362    0.0234   -0.0437    0.0065   -0.0046    0.0105    0.0134
          41   -0.0230    0.0166    0.0570   -0.0303    0.0256   -0.0064    0.0215   -0.0065
          42   -0.0752   -0.0178    0.0148    0.0282    0.0119    0.0006    0.0044   -0.0176
          43    0.0188   -0.0277    0.0948    0.0197   -0.0199   -0.0104    0.0396    0.0887
          44   -0.0331   -0.0263    0.0167   -0.0364   -0.0740    0.0287   -0.1295   -0.0295
          45   -0.0222    0.0303   -0.0591   -0.0054    0.0223    0.0011   -0.0099   -0.0571
          46   -0.0114   -0.0319   -0.0066   -0.0152   -0.0128   -0.0022    0.0040    0.0098
          47    0.0316    0.0586    0.0127    0.0274    0.0281    0.0067   -0.0176    0.0004
          48    0.0013   -0.0005    0.0010   -0.0022   -0.0016    0.0140    0.0030   -0.0004
          49    0.0097   -0.0122    0.0520    0.0242   -0.0365    0.0020   -0.0095    0.0116
          50   -0.0151   -0.0247    0.0117   -0.0393   -0.0084    0.0087   -0.0367   -0.0140
          51   -0.0196    0.0041    0.0012   -0.0102    0.0064   -0.0031    0.0098    0.0375
          52   -0.0264   -0.0147   -0.0007    0.0049    0.0685    0.0249   -0.1007    0.0551
          53    0.0128   -0.0215   -0.0002   -0.0370   -0.0031   -0.0141    0.0484   -0.0083
          54    0.0225    0.0035    0.0166   -0.0259   -0.0099    0.1845    0.0269   -0.0069
          55   -0.0157    0.0216   -0.0313    0.0246   -0.0681    0.0124   -0.0568   -0.0194
          56   -0.0056   -0.0183   -0.0231   -0.0287   -0.0298    0.0046   -0.0337    0.0151
          57   -0.0362    0.0176    0.0023   -0.0218    0.0042   -0.0072   -0.0001    0.0112
          58   -0.0118   -0.0308   -0.0162   -0.0018   -0.0560   -0.2089    0.0455   -0.0874
          59    0.0343    0.0541    0.0221    0.0069    0.0475    0.2393   -0.0138    0.0555
          60   -0.0006   -0.0030   -0.0019    0.0012   -0.0007   -0.0571   -0.0085   -0.0001
          61    0.0061   -0.0283    0.0003   -0.0290   -0.0605    0.1786    0.1164   -0.0780
          62    0.0175    0.0529    0.0041    0.0417    0.0597   -0.2193   -0.1035    0.0511
          63    0.0001    0.0024   -0.0007    0.0053    0.0036   -0.0472   -0.0142    0.0006


   Root No.      17        18        19        20        21        22        23        24

                17 A      18 A      19 A      20 A      21 A      22 A      23 A      24 A   

                 576.3     603.1     663.9     852.4     865.5     868.9     962.2     969.9
  
           1   -0.0034    0.0094    0.0471    0.0252   -0.0045    0.0054   -0.0009   -0.0181
           2    0.0005   -0.0030   -0.0032   -0.0153    0.0020   -0.0052   -0.0048   -0.0187
           3   -0.0005   -0.0010   -0.0013   -0.0075   -0.0103    0.0267    0.0049   -0.0082
           4   -0.0024    0.0078    0.0295    0.0087   -0.0011    0.0033    0.0039    0.0127
           5    0.0096   -0.0281   -0.0299   -0.0355    0.0046   -0.0108   -0.0062   -0.0180
           6    0.0268    0.0104   -0.0078   -0.0094   -0.0208    0.0520   -0.0024   -0.0041
           7    0.0016    0.0166   -0.0380   -0.0116    0.0014   -0.0038   -0.0023    0.0050
           8    0.0070   -0.0215    0.0001   -0.0220    0.0015   -0.0057   -0.0001    0.0125
           9   -0.0144   -0.0044    0.0038   -0.0019    0.0003   -0.0012   -0.0092    0.0022
          10   -0.0200   -0.0226   -0.0252    0.0194   -0.0111    0.0070   -0.0071   -0.0225
          11    0.0171    0.0228   -0.0024    0.0574    0.0088   -0.0093    0.0024    0.0098
          12    0.0002   -0.0249   -0.0387    0.0214   -0.0007   -0.0207    0.0146    0.0395
          13   -0.0086    0.0119    0.0084   -0.0326    0.0215    0.0078    0.0074    0.0183
          14   -0.0125    0.0084    0.0123   -0.0194   -0.0127   -0.0014    0.0005    0.0023
          15    0.0054   -0.0157   -0.0120    0.0231    0.0163    0.0127   -0.0052   -0.0137
          16    0.0050    0.0037   -0.0009   -0.0153    0.0079    0.0078    0.0043    0.0156
          17   -0.0058   -0.0022    0.0032   -0.0092   -0.0057   -0.0046    0.0026    0.0095
          18   -0.0052   -0.0047    0.0022    0.0108    0.0076   -0.0013   -0.0047   -0.0154
          19    0.0301    0.0281    0.0482   -0.0025   -0.0564    0.1469    0.0312   -0.0247
          20   -0.0068    0.0050    0.0181    0.0300   -0.0022    0.0077    0.0119    0.0303
          21   -0.0170   -0.0091    0.0006    0.0119    0.0145   -0.0409   -0.0087    0.0046
          22   -0.0039   -0.0188    0.0088   -0.0332    0.0222   -0.0666   -0.0266   -0.0759
          23   -0.0051    0.0073    0.0184    0.0261   -0.0013    0.0041    0.0064    0.0250
          24   -0.0151   -0.0067    0.0054    0.0215    0.0130   -0.0382   -0.0042    0.0123
          25   -0.0330    0.0175    0.0913    0.1243    0.0174   -0.0541    0.0037    0.0802
          26   -0.0022    0.0060    0.0195    0.0244   -0.0041    0.0111    0.0078    0.0241
          27   -0.0194   -0.0076    0.0020    0.0193    0.0148   -0.0421   -0.0102    0.0081
          28    0.0335    0.0453    0.0323   -0.0112   -0.0996   -0.0427   -0.0165   -0.0406
          29   -0.0024    0.0143    0.0202   -0.0261   -0.0953   -0.0405    0.0012    0.0005
          30    0.0040   -0.0189   -0.0068   -0.0139   -0.1038   -0.0460    0.0098    0.0199
          31   -0.0121   -0.0020   -0.0117   -0.0017   -0.0096   -0.0028    0.0038    0.0038
          32   -0.0386   -0.0181   -0.0066   -0.0104    0.1677    0.0883   -0.0013   -0.0054
          33    0.0193    0.0081    0.0176   -0.0121   -0.0069   -0.0072   -0.0021    0.0012
          34    0.0169    0.0020   -0.0104    0.0445   -0.0294   -0.0305   -0.0044   -0.0212
          35   -0.0123    0.0040    0.0132   -0.0430   -0.0663   -0.0231    0.0106    0.0369
          36   -0.0221    0.0077    0.0256   -0.0778   -0.1144   -0.0357    0.0165    0.0568
          37    0.0136    0.0014   -0.0095    0.0413   -0.0455   -0.0355   -0.0036   -0.0172
          38   -0.0066   -0.0087   -0.0036   -0.0056    0.1331    0.0644   -0.0049   -0.0098
          39   -0.0150   -0.0012    0.0128   -0.0547    0.0377    0.0354    0.0055    0.0250
          40    0.0084    0.0024   -0.0051    0.0160   -0.0350   -0.0223    0.0002   -0.0033
          41    0.0211   -0.0162   -0.0272    0.1388    0.0157   -0.0232   -0.0321   -0.1103
          42    0.0035   -0.0100   -0.0084    0.0700   -0.0497   -0.0390   -0.0156   -0.0571
          43   -0.2406   -0.0218   -0.0358   -0.0097   -0.0148    0.0002   -0.0143   -0.0337
          44    0.1061    0.0468    0.0273    0.0368    0.0158   -0.0265   -0.0132   -0.0288
          45    0.2720    0.0472    0.0656   -0.0268    0.0225    0.0031    0.0180    0.0574
          46    0.0051   -0.0378    0.0241    0.0021   -0.0006    0.0012    0.0026    0.0030
          47   -0.0043    0.0191   -0.0106   -0.0003    0.0003   -0.0006   -0.0015   -0.0024
          48   -0.0001   -0.0004    0.0004    0.0005   -0.0007    0.0015   -0.0180    0.0033
          49    0.0243   -0.0049   -0.0115   -0.0083    0.0094   -0.0144    0.0015    0.0084
          50   -0.0240    0.0143    0.0126    0.0188   -0.0121    0.0298    0.0083    0.0084
          51   -0.0177    0.0364    0.0417   -0.0261    0.0183   -0.0370   -0.0109   -0.0172
          52    0.0087   -0.0249   -0.0422    0.0036    0.0007   -0.0005   -0.0000   -0.0039
          53    0.0121   -0.0708    0.0073   -0.0477    0.0070   -0.0177   -0.0135   -0.0261
          54   -0.0024    0.0102   -0.0073   -0.0096    0.0123   -0.0286    0.4218   -0.0810
          55    0.1536   -0.0158   -0.0419   -0.0100   -0.0218   -0.0147   -0.0387   -0.0978
          56    0.0810    0.0089   -0.0113   -0.0330   -0.0041   -0.0089   -0.0312   -0.0823
          57   -0.0134    0.0086    0.0044   -0.0312   -0.0287    0.0799   -0.0025    0.0094
          58   -0.0208    0.1922   -0.1160   -0.0120    0.0046   -0.0106    0.0640   -0.0184
          59    0.0122   -0.1197    0.0722    0.0041   -0.0041    0.0089   -0.0937    0.0149
          60    0.0001   -0.0062    0.0038   -0.0014    0.0008   -0.0020    0.0180   -0.0030
          61   -0.0180    0.1777   -0.1066   -0.0068   -0.0016    0.0036   -0.0888    0.0100
          62    0.0088   -0.1116    0.0654   -0.0019    0.0041   -0.0089    0.1012   -0.0216
          63   -0.0011    0.0042   -0.0031    0.0009    0.0004   -0.0009    0.0141   -0.0025


   Root No.      25        26        27        28        29        30        31        32

                25 A      26 A      27 A      28 A      29 A      30 A      31 A      32 A   

                1006.6    1039.5    1063.3    1082.9    1116.1    1131.4    1161.5    1164.2
  
           1    0.0545    0.0074   -0.0039    0.0074   -0.0166    0.0005   -0.0058    0.0214
           2    0.0291   -0.0251    0.0025   -0.0053    0.0196    0.0082    0.0038   -0.0134
           3    0.0021   -0.0033    0.0313    0.0114   -0.0098   -0.0236   -0.0034   -0.0106
           4   -0.0195   -0.0052    0.0052   -0.0081    0.0173    0.0044    0.0069   -0.0232
           5    0.0067   -0.0023   -0.0151    0.0011   -0.0256   -0.0180   -0.0043    0.0223
           6   -0.0047    0.0059   -0.0298   -0.0032    0.0188    0.0390    0.0091    0.0191
           7   -0.0207    0.0095    0.0059    0.0065    0.0066    0.0041   -0.0002   -0.0048
           8   -0.0390    0.0198    0.0167    0.0120    0.0147    0.0132   -0.0008   -0.0045
           9    0.0001   -0.0014    0.0034   -0.0019   -0.0023   -0.0031   -0.0011   -0.0010
          10   -0.0212   -0.0084   -0.0196    0.0097    0.0132   -0.0230    0.0006   -0.0095
          11    0.0144   -0.0023   -0.0061    0.0092    0.0004   -0.0060    0.0087   -0.0154
          12    0.0385    0.0061    0.0249   -0.0145   -0.0007    0.0003   -0.0130    0.0056
          13    0.0064   -0.0123    0.0289   -0.0028   -0.0215    0.0369   -0.0164    0.0104
          14    0.0006    0.0018    0.0030   -0.0108    0.0151   -0.0055   -0.0507    0.0394
          15   -0.0070   -0.0045   -0.0327    0.0309   -0.0064    0.0003   -0.0440   -0.0121
          16    0.0201    0.0155   -0.0168   -0.0001    0.0127   -0.0209    0.0241    0.0045
          17    0.0046   -0.0016    0.0032    0.0040   -0.0125    0.0067    0.0427   -0.0327
          18   -0.0123    0.0015    0.0222   -0.0214    0.0031   -0.0030    0.0585    0.0067
          19    0.0271    0.0076    0.1282    0.0457   -0.0670   -0.0949   -0.0159   -0.0169
          20   -0.0641    0.0407   -0.0136    0.0108   -0.0430   -0.0295   -0.0073    0.0386
          21   -0.0009    0.0034   -0.0407   -0.0095    0.0146    0.0266    0.0032    0.0126
          22    0.1682   -0.0842   -0.0354   -0.0309    0.0673    0.0576    0.0122   -0.0073
          23   -0.0477    0.0307   -0.0171    0.0038   -0.0180   -0.0019   -0.0007    0.0185
          24   -0.0129    0.0137   -0.0577   -0.0115    0.0099    0.0345    0.0075    0.0338
          25   -0.0672    0.1004   -0.0896   -0.0155   -0.0540    0.0303   -0.0082    0.0614
          26   -0.0418    0.0315    0.0037    0.0070   -0.0368   -0.0282   -0.0087    0.0110
          27    0.0037    0.0017   -0.0492   -0.0189    0.0272    0.0486    0.0096    0.0046
          28   -0.0068    0.0558    0.0390   -0.1101    0.0650   -0.0310   -0.1006    0.0005
          29   -0.0025    0.0079   -0.0033   -0.0159    0.0267   -0.0279    0.0148    0.0635
          30    0.0006   -0.0234   -0.0468    0.0675   -0.0212   -0.0125    0.1166    0.0615
          31   -0.0213   -0.0536    0.0075    0.0465   -0.0563    0.0591    0.1366    0.0587
          32   -0.0081   -0.0147   -0.0092    0.0291   -0.0332    0.0548   -0.1510   -0.0319
          33    0.0285    0.0579   -0.0019   -0.0497    0.0577   -0.0567   -0.1970   -0.0613
          34   -0.0272   -0.0243    0.0402   -0.0081   -0.0185    0.0346   -0.0407    0.0023
          35    0.0171   -0.0144   -0.0265    0.0433   -0.0322    0.0233   -0.0156   -0.0654
          36    0.0280   -0.0178   -0.0525    0.0690   -0.0403    0.0238   -0.0276   -0.0819
          37   -0.0270   -0.0286    0.0311    0.0010   -0.0196    0.0332   -0.0416    0.0075
          38    0.0199    0.0503    0.0131   -0.0620    0.0496   -0.0576    0.1232    0.0390
          39    0.0366    0.0379   -0.0394   -0.0033    0.0255   -0.0474    0.0964   -0.0078
          40   -0.0115   -0.0175    0.0066    0.0122   -0.0167    0.0220   -0.0261   -0.0101
          41   -0.1033   -0.0440    0.0943   -0.0579   -0.0054    0.0403   -0.0027    0.0651
          42   -0.0671   -0.0457    0.0466   -0.0032   -0.0309    0.0511   -0.0304   -0.0002
          43    0.0068    0.0460   -0.0093   -0.0327   -0.0151    0.0282    0.0066   -0.0241
          44    0.0535    0.0587    0.0851    0.2358    0.1021    0.0276    0.0128    0.0608
          45   -0.0688   -0.1094   -0.0517   -0.0856   -0.0237   -0.0513   -0.0100   -0.0049
          46   -0.0030    0.0009    0.0035    0.0001    0.0051    0.0039    0.0009   -0.0037
          47    0.0027   -0.0014   -0.0021   -0.0006   -0.0016   -0.0016    0.0001    0.0001
          48    0.0008   -0.0005    0.0008    0.0000   -0.0003   -0.0004   -0.0001   -0.0000
          49   -0.0084   -0.0164   -0.0046   -0.0036   -0.0016   -0.0105   -0.0028    0.0034
          50    0.0007   -0.0107   -0.0086   -0.0227   -0.0035    0.0015    0.0002   -0.0055
          51   -0.0175    0.0008   -0.0011    0.0067   -0.0041   -0.0114    0.0002   -0.0064
          52    0.0168    0.0035   -0.0246   -0.0001   -0.0606   -0.0369   -0.0169    0.0691
          53   -0.0081    0.0105   -0.0260    0.0119   -0.0527   -0.0408   -0.0120    0.0503
          54   -0.0204    0.0146   -0.0227   -0.0004    0.0098    0.0123    0.0022    0.0004
          55    0.0494    0.1558   -0.0019   -0.0699   -0.0649    0.0735    0.0191   -0.0928
          56    0.0300    0.0850   -0.0227   -0.0419   -0.0741    0.0350    0.0196   -0.0340
          57   -0.0105   -0.0077   -0.0181   -0.0110    0.0200    0.0495    0.0108    0.0350
          58   -0.0006    0.0034   -0.0109    0.0014   -0.0143   -0.0098   -0.0033    0.0142
          59    0.0047   -0.0048    0.0025    0.0001   -0.0018   -0.0043    0.0001   -0.0008
          60   -0.0020    0.0011    0.0005    0.0001    0.0030    0.0026    0.0008   -0.0032
          61    0.0060   -0.0010   -0.0046    0.0014   -0.0165   -0.0128   -0.0035    0.0139
          62   -0.0031    0.0008   -0.0052   -0.0002    0.0009   -0.0008    0.0006   -0.0001
          63    0.0008   -0.0000   -0.0011   -0.0003   -0.0016   -0.0012   -0.0005    0.0026


   Root No.      33        34        35        36        37        38        39        40

                33 A      34 A      35 A      36 A      37 A      38 A      39 A      40 A   

                1168.5    1207.0    1216.1    1244.7    1261.3    1297.9    1316.9    1321.7
  
           1   -0.0121   -0.0016   -0.0010    0.0006   -0.0015   -0.0032   -0.0221    0.0358
           2    0.0099   -0.0052   -0.0260   -0.0002   -0.0004   -0.0006    0.0016   -0.0011
           3    0.0096   -0.0267    0.0065   -0.0004   -0.0001    0.0022   -0.0010    0.0005
           4    0.0147    0.0026    0.0101   -0.0013    0.0013    0.0060    0.0157   -0.0250
           5   -0.0218   -0.0002   -0.0108    0.0010    0.0003    0.0037   -0.0006   -0.0023
           6   -0.0213   -0.0115    0.0018    0.0015    0.0012   -0.0082    0.0037   -0.0009
           7    0.0059    0.0021    0.0005   -0.0007   -0.0005    0.0008   -0.0059    0.0069
           8    0.0083   -0.0022    0.0012    0.0001   -0.0007   -0.0048   -0.0044    0.0079
           9    0.0014    0.0009    0.0001   -0.0001   -0.0002    0.0009   -0.0006   -0.0000
          10   -0.0131   -0.0018   -0.0030    0.0012    0.0027   -0.0131    0.0019    0.0048
          11    0.0090    0.0018    0.0024   -0.0001    0.0010   -0.0067    0.0042    0.0023
          12    0.0011    0.0021    0.0010   -0.0007   -0.0032    0.0122   -0.0015   -0.0016
          13   -0.0049   -0.0005    0.0004   -0.0044   -0.0072   -0.0312    0.0059    0.0015
          14    0.0332    0.0014    0.0001    0.0019   -0.0046   -0.0136   -0.0183   -0.0132
          15    0.0274    0.0024    0.0020   -0.0051    0.0027    0.0209   -0.0177   -0.0113
          16    0.0127    0.0005    0.0007   -0.0224   -0.0217    0.0124   -0.0035   -0.0019
          17   -0.0387   -0.0017   -0.0005    0.0104   -0.0175    0.0036    0.0049    0.0053
          18   -0.0168   -0.0021   -0.0018   -0.0159    0.0180   -0.0102    0.0095    0.0072
          19    0.0181    0.1610   -0.0870   -0.0012   -0.0014    0.0104    0.0529   -0.0924
          20   -0.0416    0.1314    0.3194   -0.0006    0.0084   -0.0014    0.0021   -0.0081
          21   -0.0119   -0.0672    0.0781    0.0004    0.0010   -0.0044   -0.0274    0.0470
          22   -0.0000   -0.0182    0.1666    0.0010    0.0062   -0.0051    0.0687   -0.1100
          23   -0.0180    0.1470   -0.0539   -0.0005   -0.0017   -0.0007   -0.0278    0.0462
          24   -0.0405    0.3171    0.0757   -0.0005    0.0032   -0.0048    0.0161   -0.0242
          25   -0.0370   -0.1454   -0.1273    0.0037   -0.0006    0.0011    0.0518   -0.0897
          26   -0.0051   -0.1901    0.1135    0.0011    0.0029    0.0027    0.0195   -0.0369
          27   -0.0044    0.1367   -0.2508    0.0007   -0.0036   -0.0018    0.0175   -0.0249
          28   -0.0918   -0.0066   -0.0048    0.0096    0.0131    0.3351    0.0116    0.0141
          29    0.0626    0.0023    0.0013    0.0221    0.0210    0.0630    0.0799    0.0457
          30    0.1433    0.0076    0.0064    0.0236    0.0410   -0.0373    0.1582    0.0883
          31    0.0728    0.0000    0.0032   -0.0086   -0.0013    0.1365   -0.0739   -0.0428
          32   -0.0096    0.0013    0.0044    0.0107    0.0292    0.2067    0.1404    0.0827
          33   -0.0692    0.0015   -0.0034   -0.0036   -0.0134   -0.2460    0.0538    0.0279
          34   -0.0057    0.0012   -0.0047    0.2671    0.2521   -0.0287   -0.0194   -0.0082
          35   -0.0515   -0.0018   -0.0024   -0.0391    0.0696    0.0181   -0.0396   -0.0235
          36   -0.0546   -0.0023   -0.0035   -0.1417    0.1014    0.0288   -0.0609   -0.0387
          37   -0.0032   -0.0010   -0.0029   -0.1365    0.1377   -0.0213    0.0240    0.0171
          38    0.0020   -0.0022   -0.0083    0.0677    0.2459    0.0010   -0.0633   -0.0372
          39    0.0016    0.0004    0.0039    0.1409   -0.2104    0.0305   -0.0216   -0.0151
          40   -0.0030    0.0015    0.0033    0.1820   -0.0921    0.0057   -0.0145   -0.0108
          41   -0.0147   -0.0050   -0.0011   -0.2136   -0.1229   -0.0115   -0.0184   -0.0194
          42   -0.0236   -0.0005    0.0029    0.2285   -0.1328   -0.0103   -0.0181   -0.0151
          43    0.0289    0.0028    0.0068   -0.0019    0.0002   -0.0062    0.0024   -0.0037
          44   -0.0758   -0.0100   -0.0060    0.0033    0.0020    0.0097    0.0197   -0.0278
          45    0.0009   -0.0007   -0.0051    0.0014   -0.0001   -0.0013   -0.0120    0.0203
          46    0.0037    0.0009    0.0012   -0.0004   -0.0003   -0.0001   -0.0043    0.0056
          47   -0.0005    0.0002    0.0003   -0.0001   -0.0000    0.0003   -0.0031    0.0042
          48    0.0001    0.0002    0.0001    0.0001    0.0000    0.0000    0.0002   -0.0002
          49   -0.0043    0.0001   -0.0032    0.0004   -0.0002    0.0008   -0.0022    0.0033
          50    0.0059    0.0001    0.0022   -0.0001    0.0001   -0.0006   -0.0009    0.0016
          51    0.0042    0.0016   -0.0013   -0.0002    0.0003   -0.0002   -0.0009    0.0009
          52   -0.0603   -0.0337   -0.0200    0.0100    0.0032   -0.0342    0.0539   -0.0442
          53   -0.0473   -0.0161   -0.0209    0.0040    0.0029   -0.0033    0.0456   -0.0561
          54   -0.0047   -0.0067   -0.0039   -0.0007   -0.0000    0.0001   -0.0003   -0.0022
          55    0.1054    0.0153    0.0245   -0.0089    0.0009   -0.0156    0.0079   -0.0180
          56    0.0472    0.0082    0.0022   -0.0049   -0.0004   -0.0259   -0.0001    0.0016
          57   -0.0303   -0.0109    0.0019    0.0042    0.0030   -0.0158    0.0082    0.0015
          58   -0.0134   -0.0056   -0.0051    0.0014    0.0010   -0.0009    0.0236   -0.0313
          59    0.0001    0.0031   -0.0010    0.0001    0.0010    0.0057    0.0271   -0.0413
          60    0.0030    0.0005    0.0018   -0.0007   -0.0007   -0.0010   -0.0225    0.0318
          61   -0.0122   -0.0039   -0.0037    0.0014    0.0011   -0.0007    0.0239   -0.0316
          62   -0.0019    0.0009   -0.0024   -0.0002    0.0011    0.0054    0.0287   -0.0443
          63   -0.0026   -0.0006   -0.0017    0.0006    0.0007    0.0006    0.0192   -0.0272


   Root No.      41        42        43        44        45        46        47        48

                41 A      42 A      43 A      44 A      45 A      46 A      47 A      48 A   

                1348.6    1360.6    1365.0    1418.6    1834.5    2068.6    2627.9    2628.1
  
           1    0.0176    0.0077    0.0034   -0.0098    0.0074   -0.0030    0.0004   -0.0008
           2    0.0010    0.0094    0.0031   -0.0026    0.0059    0.0020   -0.0417    0.0243
           3    0.0003   -0.0003    0.0001    0.0001   -0.0005    0.0004   -0.0235   -0.0440
           4    0.0068   -0.0056   -0.0003    0.0815   -0.0367    0.0205    0.0000    0.0004
           5   -0.0078   -0.0443   -0.0145    0.0252   -0.0668   -0.0361   -0.0031    0.0020
           6   -0.0003   -0.0038   -0.0015    0.0031    0.0015   -0.0011   -0.0015   -0.0028
           7    0.0011   -0.0146   -0.0046   -0.0179    0.0363   -0.0004    0.0004   -0.0002
           8    0.0011    0.0330    0.0095   -0.0347   -0.0038    0.0056    0.0002   -0.0002
           9   -0.0002    0.0001   -0.0001   -0.0004   -0.0007    0.0001   -0.0000   -0.0000
          10   -0.0016   -0.0006   -0.0004   -0.0088    0.0001    0.0075   -0.0003   -0.0001
          11    0.0017    0.0008    0.0039    0.0000    0.0072   -0.0100    0.0001    0.0001
          12    0.0017   -0.0028    0.0008    0.0052    0.0036    0.0154    0.0003    0.0000
          13    0.0005   -0.0081    0.0041    0.0044    0.0009   -0.0061    0.0000   -0.0001
          14    0.0005    0.0035   -0.0159    0.0066   -0.0010    0.0004    0.0000   -0.0000
          15    0.0002    0.0122   -0.0146    0.0009   -0.0016    0.0038    0.0002    0.0001
          16    0.0001    0.0015    0.0040   -0.0015   -0.0001    0.0009   -0.0003   -0.0001
          17   -0.0003    0.0109   -0.0267   -0.0014    0.0013   -0.0005   -0.0000   -0.0004
          18   -0.0005    0.0055   -0.0212    0.0002    0.0007   -0.0010    0.0001    0.0005
          19   -0.0886   -0.0206   -0.0128   -0.1079    0.0020   -0.0024    0.0760    0.1946
          20   -0.0101   -0.0125   -0.0054   -0.0125   -0.0053   -0.0001   -0.0411   -0.0345
          21    0.0435    0.0088    0.0060    0.0530    0.0018   -0.0014    0.1527    0.4112
          22   -0.0967    0.0066   -0.0056   -0.1366    0.0249    0.0058    0.1171   -0.1654
          23    0.0414    0.0032    0.0041    0.0598   -0.0109   -0.0070    0.2256   -0.3348
          24   -0.0210    0.0047   -0.0006   -0.0270    0.0039    0.0020   -0.1181    0.1262
          25   -0.0930   -0.0677   -0.0288   -0.1001   -0.0114   -0.0070   -0.1948   -0.0278
          26   -0.0388   -0.0351   -0.0139   -0.0451   -0.0106   -0.0041    0.3379    0.0632
          27   -0.0221    0.0011   -0.0013   -0.0223   -0.0034   -0.0019    0.2598    0.0148
          28   -0.0027    0.0175   -0.0042   -0.0089    0.0022    0.0137   -0.0001   -0.0002
          29   -0.0032   -0.0188    0.0301   -0.0011   -0.0064    0.0020    0.0006    0.0006
          30   -0.0045   -0.0481    0.0799   -0.0034   -0.0046   -0.0064   -0.0004   -0.0004
          31    0.0017    0.0327   -0.0405    0.0020    0.0003    0.0031   -0.0013    0.0013
          32   -0.0055   -0.0245    0.0552   -0.0071   -0.0039    0.0040   -0.0004    0.0003
          33   -0.0005   -0.0324    0.0238    0.0050   -0.0043    0.0026   -0.0011    0.0009
          34    0.0009   -0.0010   -0.0125    0.0034    0.0016    0.0004   -0.0001   -0.0004
          35    0.0017   -0.0207    0.0739   -0.0052    0.0007   -0.0006   -0.0004    0.0046
          36    0.0029   -0.0501    0.1653   -0.0102   -0.0016    0.0013    0.0002   -0.0023
          37   -0.0010    0.0291   -0.0897    0.0053    0.0020   -0.0023    0.0009   -0.0020
          38    0.0029   -0.0513    0.1477   -0.0076    0.0000    0.0005    0.0001   -0.0003
          39    0.0008   -0.0216    0.0723   -0.0054    0.0001   -0.0012    0.0008   -0.0017
          40    0.0010   -0.0168    0.0447   -0.0006   -0.0006    0.0014    0.0024    0.0034
          41    0.0015   -0.0609    0.1511   -0.0011   -0.0019   -0.0029    0.0003    0.0002
          42    0.0012   -0.0335    0.0760    0.0013    0.0002   -0.0028   -0.0018   -0.0022
          43    0.0002    0.0094    0.0037    0.0016   -0.0147    0.0307   -0.0016    0.0041
          44   -0.0030   -0.0289   -0.0087    0.0671   -0.0339    0.0293   -0.0011    0.0012
          45   -0.0007    0.0129    0.0031   -0.0463    0.0110    0.0242   -0.0011    0.0031
          46   -0.0144   -0.0020   -0.0004   -0.0020   -0.0046   -0.0000   -0.0001   -0.0000
          47   -0.0261   -0.0022    0.0000    0.0099    0.0031    0.0001   -0.0001   -0.0000
          48    0.0012   -0.0002   -0.0001   -0.0003   -0.0000   -0.0000   -0.0004   -0.0000
          49   -0.0011   -0.0013   -0.0006   -0.0080    0.0021    0.0036   -0.0000    0.0002
          50    0.0018    0.0020    0.0007   -0.0021    0.0084   -0.0121    0.0001   -0.0003
          51   -0.0014    0.0028    0.0007   -0.0048   -0.0036   -0.0156   -0.0000    0.0002
          52   -0.0134    0.3092    0.0948    0.0432   -0.2109    0.0251   -0.0002   -0.0000
          53    0.0140    0.0621    0.0208    0.1353    0.5458   -0.0137    0.0025   -0.0017
          54    0.0029    0.0012   -0.0005   -0.0002    0.0056   -0.0001    0.0001   -0.0001
          55    0.0078    0.0248    0.0113    0.0328   -0.0089   -0.3838   -0.0012    0.0004
          56   -0.0016   -0.0277   -0.0047    0.0085   -0.0109    0.6632    0.0023   -0.0006
          57   -0.0000   -0.0057   -0.0027    0.0045    0.0056   -0.0389   -0.0002   -0.0010
          58    0.1174    0.0131    0.0012   -0.0191    0.0086   -0.0002    0.0021    0.0003
          59    0.2047   -0.0379   -0.0159   -0.0467    0.0129   -0.0014    0.0031    0.0004
          60   -0.1631    0.0041    0.0051    0.0489    0.0690   -0.0026    0.0046    0.0008
          61    0.1219    0.0117    0.0008   -0.0209    0.0054   -0.0000   -0.0007   -0.0000
          62    0.2163   -0.0358   -0.0159   -0.0496    0.0101   -0.0013   -0.0012   -0.0000
          63    0.1421   -0.0013   -0.0038   -0.0447   -0.0713    0.0028    0.0018   -0.0003


   Root No.      49        50        51        52        53        54        55        56

                49 A      50 A      51 A      52 A      53 A      54 A      55 A      56 A   

                2630.4    2637.0    2653.1    2664.0    2666.0    2710.3    2760.6    2773.9
  
           1   -0.0000    0.0000    0.0001    0.0000   -0.0005   -0.0004   -0.0212   -0.0015
           2    0.0002    0.0004    0.0000    0.0001   -0.0009   -0.0002   -0.0005   -0.0000
           3   -0.0001    0.0003    0.0004   -0.0001    0.0010    0.0001   -0.0003   -0.0001
           4    0.0001    0.0000    0.0001   -0.0005   -0.0058   -0.0010   -0.0074   -0.0004
           5   -0.0000   -0.0000    0.0000    0.0005    0.0047    0.0004   -0.0004   -0.0004
           6    0.0000    0.0000    0.0000   -0.0008   -0.0072    0.0004    0.0002   -0.0003
           7    0.0000    0.0000   -0.0000   -0.0000    0.0002    0.0001    0.0007    0.0000
           8   -0.0000   -0.0001   -0.0000   -0.0001   -0.0014   -0.0003    0.0009    0.0002
           9    0.0001   -0.0001    0.0000   -0.0000   -0.0001    0.0000    0.0001    0.0000
          10    0.0005   -0.0000    0.0007   -0.0003   -0.0005   -0.0019    0.0006   -0.0003
          11   -0.0004    0.0000   -0.0001    0.0002    0.0001   -0.0011   -0.0002   -0.0000
          12    0.0007   -0.0001   -0.0005   -0.0002    0.0017    0.0009   -0.0004    0.0004
          13    0.0215   -0.0020    0.0021   -0.0107    0.0046   -0.0156   -0.0001    0.0004
          14   -0.0149    0.0011   -0.0002    0.0086   -0.0004   -0.0284    0.0007   -0.0054
          15    0.0221   -0.0020    0.0049   -0.0110    0.0026   -0.0045    0.0005   -0.0041
          16   -0.0080    0.0011   -0.0328   -0.0225    0.0044   -0.0044   -0.0001    0.0013
          17    0.0083   -0.0014   -0.0216    0.0132   -0.0027   -0.0041    0.0012   -0.0163
          18   -0.0111    0.0018    0.0205   -0.0193    0.0040   -0.0003    0.0008   -0.0139
          19    0.0004   -0.0010   -0.0020    0.0014    0.0093    0.0023    0.1113    0.0081
          20    0.0001    0.0006    0.0006   -0.0002   -0.0025   -0.0007   -0.0295   -0.0021
          21    0.0008   -0.0021   -0.0044    0.0028    0.0181    0.0058    0.2596    0.0185
          22   -0.0012   -0.0009    0.0003   -0.0003    0.0085    0.0034    0.1069    0.0075
          23   -0.0024   -0.0018    0.0007    0.0000    0.0242    0.0080    0.2409    0.0165
          24    0.0010    0.0010   -0.0001   -0.0001   -0.0107   -0.0033   -0.1039   -0.0072
          25    0.0004    0.0019    0.0007    0.0006    0.0075    0.0029    0.1037    0.0066
          26   -0.0007   -0.0034   -0.0014   -0.0012   -0.0160   -0.0055   -0.2029   -0.0132
          27   -0.0007   -0.0027   -0.0008   -0.0011   -0.0122   -0.0041   -0.1539   -0.0101
          28   -0.0591    0.0047    0.0013    0.0303   -0.0025   -0.1004    0.0022   -0.0047
          29    0.2532   -0.0209   -0.0003   -0.1273    0.0127    0.3441   -0.0073    0.0157
          30   -0.1227    0.0099    0.0034    0.0592   -0.0049   -0.1828    0.0037   -0.0061
          31   -0.2241    0.0223   -0.0594    0.0933   -0.0432    0.3193   -0.0057    0.0129
          32   -0.0568    0.0054   -0.0108    0.0248   -0.0097    0.0559   -0.0010    0.0044
          33   -0.1692    0.0168   -0.0427    0.0713   -0.0330    0.2443   -0.0048    0.0121
          34    0.0102   -0.0017   -0.0447    0.0126   -0.0029   -0.0014    0.0018   -0.0274
          35   -0.1361    0.0210    0.2358   -0.2136    0.0479   -0.0008   -0.0169    0.2463
          36    0.0683   -0.0104   -0.1173    0.1031   -0.0243    0.0047    0.0094   -0.1353
          37    0.1104   -0.0155    0.1055    0.2201   -0.0387    0.0026   -0.0147    0.2309
          38    0.0181   -0.0027    0.0047    0.0390   -0.0076    0.0018   -0.0015    0.0255
          39    0.0871   -0.0123    0.1122    0.1824   -0.0329    0.0064   -0.0117    0.1856
          40   -0.0075    0.0031    0.3517    0.0440   -0.0144    0.0536    0.0153   -0.2266
          41    0.0047   -0.0005    0.0316    0.0135   -0.0030    0.0051    0.0021   -0.0325
          42   -0.0040   -0.0008   -0.2490   -0.0497    0.0140   -0.0384   -0.0107    0.1545
          43   -0.0059   -0.0013   -0.0024    0.0490    0.4567    0.0226   -0.0233   -0.0071
          44   -0.0023   -0.0006   -0.0009    0.0182    0.1687    0.0083   -0.0103   -0.0027
          45   -0.0048   -0.0011   -0.0019    0.0377    0.3498    0.0173   -0.0174   -0.0052
          46   -0.0001   -0.0007    0.0000   -0.0000   -0.0001    0.0000    0.0001    0.0001
          47   -0.0001   -0.0011    0.0000   -0.0000   -0.0004   -0.0001    0.0002    0.0001
          48   -0.0025   -0.0409    0.0003   -0.0005   -0.0001    0.0002    0.0000    0.0000
          49    0.0004    0.0001    0.0001   -0.0028   -0.0260   -0.0014    0.0018    0.0004
          50    0.0001    0.0000    0.0000   -0.0012   -0.0112   -0.0005    0.0003    0.0001
          51    0.0002    0.0001    0.0001   -0.0018   -0.0169   -0.0010    0.0012    0.0004
          52   -0.0001   -0.0011    0.0001   -0.0007   -0.0094   -0.0022    0.0011    0.0006
          53    0.0003    0.0024   -0.0001    0.0011    0.0148    0.0043   -0.0068   -0.0016
          54   -0.0005   -0.0039   -0.0000    0.0002    0.0017   -0.0002   -0.0004    0.0001
          55   -0.0000   -0.0000    0.0001    0.0010    0.0129    0.0021   -0.0025   -0.0008
          56    0.0027   -0.0002    0.0007   -0.0045   -0.0366   -0.0054    0.0043    0.0024
          57   -0.0007    0.0002   -0.0005   -0.0026   -0.0284    0.0027    0.0007   -0.0020
          58    0.0091    0.1493   -0.0012    0.0020    0.0017   -0.0005   -0.0009   -0.0006
          59    0.0138    0.2264   -0.0018    0.0030    0.0028   -0.0008   -0.0015   -0.0011
          60    0.0189    0.3113   -0.0026    0.0042    0.0050   -0.0010   -0.0029   -0.0020
          61   -0.0084   -0.1382    0.0009   -0.0017    0.0008    0.0011   -0.0008   -0.0005
          62   -0.0128   -0.2081    0.0013   -0.0025    0.0016    0.0014   -0.0013   -0.0009
          63    0.0211    0.3436   -0.0021    0.0041   -0.0038   -0.0027    0.0029    0.0020


   Root No.      57

                57 A   

                2797.9
  
           1    0.0002
           2   -0.0002
           3   -0.0001
           4   -0.0004
           5   -0.0013
           6   -0.0001
           7    0.0021
           8   -0.0029
           9    0.0000
          10   -0.0000
          11    0.0001
          12    0.0001
          13    0.0000
          14    0.0000
          15   -0.0000
          16    0.0000
          17    0.0001
          18    0.0001
          19   -0.0002
          20    0.0004
          21   -0.0012
          22   -0.0005
          23   -0.0022
          24    0.0008
          25   -0.0012
          26    0.0039
          27    0.0020
          28   -0.0000
          29    0.0002
          30   -0.0001
          31    0.0002
          32    0.0001
          33    0.0001
          34    0.0003
          35   -0.0017
          36    0.0009
          37   -0.0018
          38   -0.0002
          39   -0.0016
          40    0.0011
          41    0.0002
          42   -0.0007
          43    0.0036
          44    0.0010
          45    0.0031
          46    0.0143
          47    0.0211
          48   -0.0004
          49   -0.0002
          50    0.0001
          51   -0.0002
          52   -0.0377
          53    0.0865
          54   -0.0014
          55    0.0003
          56   -0.0011
          57   -0.0001
          58   -0.1203
          59   -0.1975
          60   -0.3661
          61   -0.0987
          62   -0.1659
          63    0.3739


           MASS-WEIGHTED COORDINATE ANALYSIS (NORMAL COORDINATES)


   Root No.       1         2         3         4         5         6         7         8

                 1 A       2 A       3 A       4 A       5 A       6 A       7 A       8 A   

               -1277.0     -64.6      17.2      28.5      76.0     100.5     132.0     164.9
  
           1    0.0017   -0.0081   -0.0156   -0.0473    0.0977    0.0796   -0.0575   -0.0522
           2    0.0030   -0.0570    0.0247    0.0153    0.3870    0.1776   -0.0511    0.1286
           3    0.0215    0.1035   -0.0813    0.2253    0.0361    0.0015    0.3295    0.2010
           4    0.0017   -0.0078   -0.0156   -0.0479    0.1038    0.0790   -0.0533   -0.0528
           5    0.0027   -0.0361    0.0545   -0.0340    0.0944    0.0932    0.0129   -0.0114
           6   -0.2770    0.0652   -0.1393    0.0504    0.0072    0.0155   -0.0441   -0.0554
           7   -0.0005   -0.0264   -0.0393   -0.0142    0.3033    0.1600   -0.1161    0.0200
           8    0.0013   -0.0327    0.0765   -0.0652    0.0076    0.0580    0.0387   -0.0627
           9    0.0133    0.1170   -0.3332    0.1920    0.1392    0.0845   -0.1819   -0.3000
          10   -0.0416   -0.0191   -0.0329   -0.2042   -0.0826   -0.0389   -0.2387   -0.1836
          11    0.1448    0.0125   -0.0348    0.1333    0.1351    0.1029    0.0706   -0.1007
          12   -0.0391    0.0152   -0.0715   -0.1783   -0.1024   -0.0498   -0.2157   -0.0642
          13   -0.0521   -0.0522   -0.0678   -0.2370    0.0354    0.0353    0.1634    0.1209
          14    0.0019    0.0707   -0.0669    0.2301   -0.0327   -0.0592   -0.1211   -0.1094
          15    0.0367   -0.0043   -0.1384   -0.1785   -0.0121   -0.0141    0.2041    0.2782
          16   -0.0016   -0.0280    0.1768    0.2881   -0.0223   -0.0501    0.1304    0.1340
          17   -0.0027    0.0979   -0.3191   -0.0505   -0.0838   -0.1251    0.0017    0.1671
[...]
 FREQ.       387.76        C  1 --  C  2          +14.2% (112.3%)     0.0%
 T-DIPOLE    1.0903        C  1 --  H  8           +9.9% ( 93.6%)    70.7%
 TRAVEL      0.0865        C  2 --  O 17           +9.7% ( 92.6%)     0.2%
 RED. MASS   1.8319        C  1 --  H  7           +9.6% ( 92.3%)    14.8%
 EFF. MASS  23.2510

 VIBRATION   14   14A       ATOM PAIR        ENERGY CONTRIBUTION    RADIAL
 FREQ.       446.23        O 16 --  H 20          +26.9% ( 94.3%)     2.0%
 T-DIPOLE    0.2146        O 16 --  H 21          +25.1% ( 91.2%)     0.7%
 TRAVEL      0.2480        O  3 --  H 18          +18.9% ( 79.1%)     1.6%
 RED. MASS   0.3482        O 16 --  H 18          +17.9% ( 77.0%)    15.1%
 EFF. MASS   2.4567

 VIBRATION   15   15A       ATOM PAIR        ENERGY CONTRIBUTION    RADIAL
 FREQ.       477.96        C  2 --  O  3          +16.6% (100.6%)     2.0%
 T-DIPOLE    0.8149        C  2 --  O 17          +12.5% ( 87.2%)     5.3%
 TRAVEL      0.0897        O 16 --  H 18           +9.6% ( 76.5%)    95.7%
 RED. MASS   2.1149        C  1 --  C  2           +9.1% ( 74.3%)     0.1%
 EFF. MASS  17.5452

 VIBRATION   16   16A       ATOM PAIR        ENERGY CONTRIBUTION    RADIAL
 FREQ.       559.36        C  2 --  O  4          +10.6% ( 76.6%)     0.2%
 T-DIPOLE    0.3760        C  2 --  O 17          +10.1% ( 74.8%)    26.4%
 TRAVEL      0.0929        O  4 --  O 17           +8.7% ( 69.3%)    19.9%
 RED. MASS   1.3632        C  2 --  O  3           +8.6% ( 69.2%)     0.3%
 EFF. MASS  13.9808

 VIBRATION   17   17A       ATOM PAIR        ENERGY CONTRIBUTION    RADIAL
 FREQ.       576.27        H 15 --  O 17          +36.4% ( 99.1%)     0.0%
 T-DIPOLE    1.1430        O  4 --  H 19          +18.3% ( 70.3%)     5.1%
 TRAVEL      0.1716        O 17 --  H 19          +12.5% ( 58.1%)    41.3%
 RED. MASS   0.6086        C  2 --  O 17           +6.4% ( 41.5%)     0.1%
 EFF. MASS   3.9732

 VIBRATION   18   18A       ATOM PAIR        ENERGY CONTRIBUTION    RADIAL
 FREQ.       603.09        O  4 --  O 17          +11.2% ( 56.9%)    88.9%
 T-DIPOLE    2.5961        O 16 --  H 20          +11.1% ( 56.7%)     0.2%
 TRAVEL      0.1098        O 16 --  H 21          +10.1% ( 54.1%)     0.1%
 RED. MASS   0.8680        C  2 --  O  4           +9.6% ( 52.7%)     7.0%
 EFF. MASS   9.2660

 VIBRATION   19   19A       ATOM PAIR        ENERGY CONTRIBUTION    RADIAL
 FREQ.       663.89        O  4 --  O 17          +10.5% ( 63.5%)    94.1%
 T-DIPOLE    0.9318        C  2 --  O  3          +10.4% ( 63.2%)     3.2%
 TRAVEL      0.0895        C  1 --  C  2          +10.2% ( 62.7%)    28.9%
 RED. MASS   1.3309        C  2 --  O 17          +10.0% ( 62.0%)     0.0%
 EFF. MASS  12.6795

 VIBRATION   20   20A       ATOM PAIR        ENERGY CONTRIBUTION    RADIAL
 FREQ.       852.39        C  2 --  O  4          +12.5% ( 62.9%)    60.8%
 T-DIPOLE    1.4516        O  4 --  C  5          +12.4% ( 62.7%)    41.6%
 TRAVEL      0.0841        O  4 --  O 17           +8.7% ( 52.5%)    50.7%
 RED. MASS   1.8748        O  4 --  H 19           +7.2% ( 47.8%)     0.6%
 EFF. MASS  11.1788

 VIBRATION   21   21A       ATOM PAIR        ENERGY CONTRIBUTION    RADIAL
 FREQ.       865.48        C  5 --  H 10          +21.3% ( 68.2%)     8.4%
 T-DIPOLE    1.1539        C  5 --  H 11          +20.2% ( 66.5%)     9.6%
 TRAVEL      0.1430        C  6 --  H 13          +12.8% ( 53.0%)     4.6%
 RED. MASS   0.2923        C  6 --  H 12          +11.0% ( 49.1%)     4.1%
 EFF. MASS   3.8098

 VIBRATION   22   22A       ATOM PAIR        ENERGY CONTRIBUTION    RADIAL
 FREQ.       868.93        C  2 --  O 17          +16.8% ( 65.9%)    92.5%
 T-DIPOLE    2.1154        C  1 --  H  7          +11.1% ( 53.6%)    16.0%
 TRAVEL      0.0966        C  2 --  O  4           +9.6% ( 49.8%)    49.5%
 RED. MASS   1.5433        C  1 --  C  2           +7.3% ( 43.4%)     0.7%
 EFF. MASS   8.3108

 VIBRATION   23   23A       ATOM PAIR        ENERGY CONTRIBUTION    RADIAL
 FREQ.       962.17        O 16 --  H 18          +42.4% ( 83.5%)     0.0%
 T-DIPOLE    0.9143        O  3 --  H 18          +40.5% ( 81.6%)     0.1%
 TRAVEL      0.1915        O 16 --  H 21           +2.8% ( 21.4%)     8.8%
 RED. MASS   0.6114        O 16 --  H 20           +2.2% ( 18.8%)     8.8%
 EFF. MASS   1.9116

 VIBRATION   24   24A       ATOM PAIR        ENERGY CONTRIBUTION    RADIAL
 FREQ.       969.95        O  4 --  H 19          +11.4% ( 54.7%)     7.6%
 T-DIPOLE    1.7711        O  4 --  C  5          +10.9% ( 53.4%)    76.7%
 TRAVEL      0.0917        C  2 --  O  4          +10.8% ( 53.2%)    90.5%
 RED. MASS   1.1457        O  4 --  O 17           +9.6% ( 50.1%)    78.8%
 EFF. MASS   8.2745

 VIBRATION   25   25A       ATOM PAIR        ENERGY CONTRIBUTION    RADIAL
 FREQ.      1006.59        C  1 --  H  8          +13.4% ( 56.6%)    70.6%
 T-DIPOLE    0.7293        C  1 --  C  2          +12.3% ( 54.1%)    90.9%
 TRAVEL      0.0831        C  1 --  H  9          +12.1% ( 53.8%)     0.2%
 RED. MASS   1.4684        C  1 --  H  7           +9.6% ( 47.9%)     5.3%
 EFF. MASS   9.7010

 VIBRATION   26   26A       ATOM PAIR        ENERGY CONTRIBUTION    RADIAL
 FREQ.      1039.53        O 17 --  H 19          +16.4% ( 52.7%)     0.1%
 T-DIPOLE    0.7421        O  4 --  H 19          +14.7% ( 50.0%)     0.7%
 TRAVEL      0.1291        H 15 --  O 17           +9.3% ( 39.8%)    10.9%
 RED. MASS   0.2881        C  1 --  H  9           +9.2% ( 39.4%)    22.7%
 EFF. MASS   3.8909

 VIBRATION   27   27A       ATOM PAIR        ENERGY CONTRIBUTION    RADIAL
 FREQ.      1063.29        O  4 --  C  5          +11.4% ( 49.5%)    91.9%
 T-DIPOLE    3.0932        C  1 --  H  7           +9.3% ( 44.8%)    14.6%
 TRAVEL      0.0937        C  5 --  C  6           +9.0% ( 44.1%)    31.2%
 RED. MASS   0.7441        C  2 --  O  4           +7.1% ( 39.2%)    70.0%
 EFF. MASS   7.2193

 VIBRATION   28   28A       ATOM PAIR        ENERGY CONTRIBUTION    RADIAL
 FREQ.      1082.88        H 15 --  O 17          +31.3% ( 68.7%)     1.3%
 T-DIPOLE    0.8936        C  5 --  H 10          +10.7% ( 40.3%)    30.2%
 TRAVEL      0.1251        C  5 --  H 11           +8.0% ( 34.9%)     5.1%
 RED. MASS   0.3960        C  5 --  C  6           +7.2% ( 32.9%)    16.4%
 EFF. MASS   3.9758

 VIBRATION   29   29A       ATOM PAIR        ENERGY CONTRIBUTION    RADIAL
 FREQ.      1116.13        C  1 --  C  2          +10.4% ( 45.7%)    28.5%
 T-DIPOLE    2.1225        C  2 --  O  3           +7.9% ( 39.8%)    39.5%
 TRAVEL      0.1041        C  1 --  H  8           +6.3% ( 35.7%)     7.8%
 RED. MASS   0.4797        C  5 --  H 11           +6.2% ( 35.4%)    17.9%
 EFF. MASS   5.5736

 VIBRATION   30   30A       ATOM PAIR        ENERGY CONTRIBUTION    RADIAL
 FREQ.      1131.40        O  4 --  C  5           +8.4% ( 38.7%)    61.5%
 T-DIPOLE    2.4088        C  1 --  C  2           +8.3% ( 38.5%)     0.3%
 TRAVEL      0.0954        C  5 --  H 11           +7.6% ( 36.8%)    44.9%
 RED. MASS   0.7396        C  5 --  C  6           +7.5% ( 36.5%)     5.3%
 EFF. MASS   6.5540

 VIBRATION   31   31A       ATOM PAIR        ENERGY CONTRIBUTION    RADIAL
 FREQ.      1161.51        C  5 --  C  6          +24.6% ( 69.6%)    83.5%
 T-DIPOLE    0.3239        C  5 --  H 11          +18.7% ( 60.6%)    41.0%
 TRAVEL      0.0940        C  5 --  H 10          +14.0% ( 52.4%)     2.5%
 RED. MASS   1.4404        C  6 --  H 12          +10.6% ( 45.8%)     0.4%
 EFF. MASS   6.5640        C  6 --  H 14          +10.2% ( 44.9%)     0.6%
                           C  6 --  H 13          +10.2% ( 44.9%)    99.6%

 VIBRATION   32   32A       ATOM PAIR        ENERGY CONTRIBUTION    RADIAL
 FREQ.      1164.21        C  5 --  C  6          +11.5% ( 48.3%)    32.7%
 T-DIPOLE    1.8939        C  5 --  H 11           +8.9% ( 42.5%)     1.1%
 TRAVEL      0.0927        C  1 --  C  2           +8.7% ( 42.1%)    48.0%
 RED. MASS   0.7522        O  4 --  C  5           +8.2% ( 40.8%)    45.4%
 EFF. MASS   6.7429

 VIBRATION   33   33A       ATOM PAIR        ENERGY CONTRIBUTION    RADIAL
 FREQ.      1168.47        C  5 --  C  6          +16.3% ( 55.6%)    97.2%
 T-DIPOLE    1.5468        C  5 --  H 10          +14.0% ( 51.7%)    22.3%
 TRAVEL      0.0970        C  5 --  H 11          +10.4% ( 44.5%)     4.2%
 RED. MASS   0.7195        O  4 --  C  5           +6.0% ( 33.9%)     0.0%
 EFF. MASS   6.1279

 VIBRATION   34   34A       ATOM PAIR        ENERGY CONTRIBUTION    RADIAL
 FREQ.      1207.05        C  1 --  H  8          +44.6% ( 56.9%)     0.1%
 T-DIPOLE    0.5625        C  1 --  H  9          +29.9% ( 46.6%)     2.7%
 TRAVEL      0.2025        C  1 --  H  7          +19.0% ( 37.2%)    10.4%
 RED. MASS   0.3598        C  1 --  C  2           +2.8% ( 14.3%)     6.5%
 EFF. MASS   1.3622

 VIBRATION   35   35A       ATOM PAIR        ENERGY CONTRIBUTION    RADIAL
 FREQ.      1216.05        C  1 --  H  7          +41.9% ( 56.1%)     0.3%
 T-DIPOLE    0.4423        C  1 --  H  9          +32.8% ( 49.6%)     1.5%
 TRAVEL      0.1979        C  1 --  H  8          +16.0% ( 34.7%)    16.2%
 RED. MASS   0.3659        C  1 --  C  2           +3.4% ( 15.9%)    32.8%
 EFF. MASS   1.4162

 VIBRATION   36   36A       ATOM PAIR        ENERGY CONTRIBUTION    RADIAL
 FREQ.      1244.66        C  6 --  H 14          +44.8% ( 56.4%)     0.3%
 T-DIPOLE    0.7101        C  6 --  H 12          +34.5% ( 49.5%)     2.4%
 TRAVEL      0.2022        C  6 --  H 13          +16.5% ( 34.3%)    14.4%
 RED. MASS   0.3728        C  5 --  C  6           +2.8% ( 14.2%)     0.5%
 EFF. MASS   1.3255

 VIBRATION   37   37A       ATOM PAIR        ENERGY CONTRIBUTION    RADIAL
 FREQ.      1261.27        C  6 --  H 13          +47.2% ( 59.1%)     0.2%
 T-DIPOLE    0.6737        C  6 --  H 12          +29.8% ( 46.9%)     3.3%
 TRAVEL      0.1909        C  6 --  H 14          +16.5% ( 35.0%)    18.2%
 RED. MASS   0.3721        C  5 --  C  6           +3.8% ( 16.7%)     0.3%
 EFF. MASS   1.4672

 VIBRATION   38   38A       ATOM PAIR        ENERGY CONTRIBUTION    RADIAL
 FREQ.      1297.89        C  5 --  H 11          +42.3% ( 62.3%)     0.6%
 T-DIPOLE    0.4433        C  5 --  H 10          +40.6% ( 61.1%)     0.6%
 TRAVEL      0.1670        C  5 --  C  6           +4.8% ( 20.9%)     4.0%
 RED. MASS   0.4461        O  4 --  C  5           +2.9% ( 16.4%)    95.2%
 EFF. MASS   1.8633

 VIBRATION   39   39A       ATOM PAIR        ENERGY CONTRIBUTION    RADIAL
 FREQ.      1316.92        C  5 --  H 10          +23.4% ( 53.4%)     1.0%
 T-DIPOLE    1.1295        C  5 --  H 11          +20.9% ( 50.4%)     0.9%
 TRAVEL      0.1355        C  1 --  H  8           +6.6% ( 28.3%)     1.3%
 RED. MASS   0.2570        C  1 --  C  2           +5.7% ( 26.4%)    98.1%
 EFF. MASS   2.7879

 VIBRATION   40   40A       ATOM PAIR        ENERGY CONTRIBUTION    RADIAL
 FREQ.      1321.72        C  1 --  H  8          +14.9% ( 47.0%)     1.8%
 T-DIPOLE    1.9052        C  1 --  C  2          +13.0% ( 44.0%)    99.9%
 TRAVEL      0.1112        C  1 --  H  7          +12.0% ( 42.3%)     3.6%
 RED. MASS   0.4029        C  1 --  H  9          +11.7% ( 41.6%)     3.4%
 EFF. MASS   4.1264

 VIBRATION   41   41A       ATOM PAIR        ENERGY CONTRIBUTION    RADIAL
 FREQ.      1348.60        O 16 --  H 20          +36.8% ( 50.7%)     7.0%
 T-DIPOLE    0.9624        O 16 --  H 21          +36.4% ( 50.4%)     6.9%
 TRAVEL      0.1702        C  1 --  H  8           +7.6% ( 23.0%)     1.0%
 RED. MASS   0.3705        C  1 --  H  9           +6.9% ( 21.9%)     0.7%
 EFF. MASS   1.7251

 VIBRATION   42   42A       ATOM PAIR        ENERGY CONTRIBUTION    RADIAL
 FREQ.      1360.57        O  3 --  H 18          +34.6% ( 78.9%)    47.4%
 T-DIPOLE    3.4822        O 16 --  H 18          +26.8% ( 69.4%)    13.5%
 TRAVEL      0.1119        C  2 --  O  3          +10.0% ( 42.4%)    57.7%
 RED. MASS   0.7341        C  1 --  C  2           +5.8% ( 32.4%)     5.8%
 EFF. MASS   3.9581

 VIBRATION   43   43A       ATOM PAIR        ENERGY CONTRIBUTION    RADIAL
 FREQ.      1365.05        C  6 --  H 13          +22.6% ( 49.3%)     1.1%
 T-DIPOLE    0.6719        C  6 --  H 12          +21.4% ( 48.0%)     1.3%
 TRAVEL      0.1465        C  6 --  H 14          +19.8% ( 46.2%)     1.0%
 RED. MASS   0.2924        O  3 --  H 18           +6.5% ( 26.6%)    43.9%
 EFF. MASS   2.3011

 VIBRATION   44   44A       ATOM PAIR        ENERGY CONTRIBUTION    RADIAL
 FREQ.      1418.61        C  2 --  O  3          +24.4% ( 69.6%)    82.4%
 T-DIPOLE    2.8732        C  1 --  C  2          +16.8% ( 57.7%)    91.4%
 TRAVEL      0.0791        C  2 --  O  4          +16.0% ( 56.4%)     3.2%
 RED. MASS   2.3890        C  2 --  O 17          +16.0% ( 56.3%)     3.4%
 EFF. MASS   7.6018

 VIBRATION   45   45A       ATOM PAIR        ENERGY CONTRIBUTION    RADIAL
 FREQ.      1834.54        O  3 --  H 18          +42.2% ( 86.5%)   100.0%
 T-DIPOLE    4.9263        O 16 --  H 18          +38.3% ( 82.5%)    93.9%
 TRAVEL      0.1157        C  2 --  O  3           +5.1% ( 30.0%)    89.5%
 RED. MASS   0.9037        C  1 --  C  2           +4.0% ( 26.5%)    26.9%
 EFF. MASS   2.7438

 VIBRATION   46   46A       ATOM PAIR        ENERGY CONTRIBUTION    RADIAL
 FREQ.      2068.61        O  4 --  H 19          +48.7% ( 95.7%)    50.7%
 T-DIPOLE    1.5474        O 17 --  H 19          +48.6% ( 95.7%)    46.3%
 TRAVEL      0.1534        C  2 --  O  3           +0.5% (  9.7%)    26.7%
 RED. MASS   0.9050        C  2 --  O 17           +0.5% (  9.6%)    91.8%
 EFF. MASS   1.3844

 VIBRATION   47   47A       ATOM PAIR        ENERGY CONTRIBUTION    RADIAL
 FREQ.      2627.86        C  1 --  H  9          +65.4% ( 83.6%)    99.5%
 T-DIPOLE    1.2345        C  1 --  H  8          +23.9% ( 50.5%)    91.5%
 TRAVEL      0.1332        C  1 --  H  7           +9.8% ( 32.3%)    76.5%
 RED. MASS   0.5095        C  1 --  C  2           +0.9% (  9.7%)     0.0%
 EFF. MASS   1.4461

 VIBRATION   48   48A       ATOM PAIR        ENERGY CONTRIBUTION    RADIAL
 FREQ.      2628.08        C  1 --  H  7          +55.6% ( 77.1%)    98.7%
 T-DIPOLE    1.2257        C  1 --  H  8          +41.6% ( 66.6%)    96.8%
 TRAVEL      0.1335        C  1 --  H  9           +2.0% ( 14.4%)    26.4%
 RED. MASS   0.4961        C  1 --  C  2           +0.9% (  9.6%)     0.1%
 EFF. MASS   1.4392

 VIBRATION   49   49A       ATOM PAIR        ENERGY CONTRIBUTION    RADIAL
 FREQ.      2630.44        C  5 --  H 10          +38.7% ( 64.7%)    98.0%
 T-DIPOLE    0.2842        C  5 --  H 11          +38.5% ( 64.5%)    98.2%
 TRAVEL      0.1330        C  6 --  H 12          +10.8% ( 34.2%)    98.6%
 RED. MASS   0.3323        C  6 --  H 13           +9.4% ( 31.9%)    97.6%
 EFF. MASS   1.4496

 VIBRATION   50   50A       ATOM PAIR        ENERGY CONTRIBUTION    RADIAL
 FREQ.      2637.04        O 16 --  H 21          +50.7% ( 73.6%)    96.9%
 T-DIPOLE    2.0658        O 16 --  H 20          +48.2% ( 71.7%)    96.6%
 TRAVEL      0.1315        O 16 --  H 18           +0.5% (  7.2%)     0.0%
 RED. MASS   0.5083        C  5 --  H 11           +0.2% (  4.9%)    98.8%
 EFF. MASS   1.4782

 VIBRATION   51   51A       ATOM PAIR        ENERGY CONTRIBUTION    RADIAL
 FREQ.      2653.06        C  6 --  H 14          +63.7% ( 82.4%)    99.6%
 T-DIPOLE    0.9620        C  6 --  H 12          +24.9% ( 51.5%)    92.2%
 TRAVEL      0.1327        C  6 --  H 13           +8.7% ( 30.5%)    73.6%
 RED. MASS   0.4902        C  5 --  H 11           +1.7% ( 13.6%)    99.3%
 EFF. MASS   1.4440

 VIBRATION   52   52A       ATOM PAIR        ENERGY CONTRIBUTION    RADIAL
 FREQ.      2663.98        C  6 --  H 13          +44.7% ( 68.8%)    98.9%
 T-DIPOLE    1.4869        C  6 --  H 12          +30.3% ( 56.6%)    95.9%
 TRAVEL      0.1313        C  5 --  H 10          +11.0% ( 34.1%)    98.4%
 RED. MASS   0.3231        C  5 --  H 11           +7.9% ( 28.8%)    96.8%
 EFF. MASS   1.4692

 VIBRATION   53   53A       ATOM PAIR        ENERGY CONTRIBUTION    RADIAL
 FREQ.      2666.02        H 15 --  O 17          +95.3% ( 97.6%)    99.5%
 T-DIPOLE    2.0008        C  5 --  H 11           +0.9% (  9.3%)    99.8%
 TRAVEL      0.1376        C  6 --  H 12           +0.8% (  9.1%)    96.7%
 RED. MASS   0.8768        C  6 --  H 13           +0.8% (  8.8%)    98.6%
 EFF. MASS   1.3353

 VIBRATION   54   54A       ATOM PAIR        ENERGY CONTRIBUTION    RADIAL
 FREQ.      2710.35        C  5 --  H 11          +49.1% ( 68.9%)    96.5%
 T-DIPOLE    0.6775        C  5 --  H 10          +48.2% ( 68.3%)    96.5%
 TRAVEL      0.1424        C  6 --  H 14           +1.3% ( 11.4%)    97.5%
 RED. MASS   0.4668        O  4 --  C  5           +0.5% (  7.0%)    23.3%
 EFF. MASS   1.2271

 VIBRATION   55   55A       ATOM PAIR        ENERGY CONTRIBUTION    RADIAL
 FREQ.      2760.58        C  1 --  H  7          +33.7% ( 55.4%)    95.5%
 T-DIPOLE    0.8235        C  1 --  H  8          +33.5% ( 55.3%)    94.9%
 TRAVEL      0.1457        C  1 --  H  9          +31.4% ( 53.5%)    94.8%
 RED. MASS   0.3194        H 15 --  O 17           +0.4% (  6.2%)    99.6%
 EFF. MASS   1.1499

 VIBRATION   56   56A       ATOM PAIR        ENERGY CONTRIBUTION    RADIAL
 FREQ.      2773.87        C  6 --  H 13          +36.0% ( 57.5%)    96.0%
 T-DIPOLE    0.6283        C  6 --  H 12          +32.2% ( 54.3%)    95.2%
 TRAVEL      0.1459        C  6 --  H 14          +30.7% ( 53.0%)    94.8%
 RED. MASS   0.3221        C  5 --  C  6           +0.3% (  4.9%)    99.6%
 EFF. MASS   1.1421

 VIBRATION   57   57A       ATOM PAIR        ENERGY CONTRIBUTION    RADIAL
 FREQ.      2797.90        O 16 --  H 20          +50.4% ( 67.8%)    99.9%
 T-DIPOLE    0.9013        O 16 --  H 21          +47.3% ( 65.7%)    99.8%
 TRAVEL      0.1426        O 16 --  H 18           +1.2% ( 10.6%)    33.8%
 RED. MASS   0.4665        O  3 --  H 18           +1.0% (  9.7%)    98.3%
 EFF. MASS   1.1855

           FORCE CONSTANT IN CARTESIAN COORDINATES (Millidynes/A)

    ATOM   CHEMICAL       X               Y               Z
   NUMBER   SYMBOL  FORCE CONSTANT  FORCE CONSTANT  FORCE CONSTANT

      1       C        7.179848        6.169416        6.061121
      2       C        9.747232        9.041892        3.958454
      3       O        4.453373        7.835824        0.830387
      4       O        4.331039        3.582122        5.647736
      5       C        6.079054        7.380094        6.473545
      6       C        6.223681        6.685287        6.593209
      7       H        1.276490        0.528410        3.378568
      8       H        1.299083        2.990476        0.948035
      9       H        1.251733        2.366368        1.555339
     10       H        0.864463        3.207928        1.405888
     11       H        2.786122        0.765253        1.926012
     12       H        0.564006        3.355895        1.396903
     13       H        2.628632        0.707828        2.011482
     14       H        2.855329        0.673715        1.732239
     15       H        2.416534        0.847133        1.612549
     16       O        1.859129        3.081021        4.834417
     17       O        3.604226        2.875894        4.933522
     18       H        1.035538        1.681150        0.471691
     19       H        1.020654        1.959160       -0.755312
     20       H        0.607575        1.366398        2.868541
     21       H        0.520325        1.171816        3.131679

 **********************
 *                    *
 * JOB ENDED NORMALLY *
 *                    *
 **********************



 TOTAL JOB TIME:             2.39 SECONDS

 == MOPAC DONE ==
