 *******************************************************************************
 ** Site#: 10005        For non-commercial use only     Version 15.317W 64BITS**
 *******************************************************************************
 ** Cite this work as:                                                        **
 **                                                                           **
 ** (a) MOPAC2012, James J. P. Stewart, Stewart Computational Chemistry,      **
 **  Version 15.317W web: HTTP://OpenMOPAC.net         Days remaining: 362    **
 **                                                                           **
 **                                 AND                                       **
 **                                                                           **
 ** (b) Maia, J.D.C., et al., J. Chem. Theory Comput. 2012, 8, 3072-3081.     **
 **                DOI: 10.1021/ct3004645.                                    **
 *******************************************************************************
 **                                                                           **
 **                                MOPAC2012                                  **
 **                                                                           **
 *******************************************************************************

                              PM7 CALCULATION RESULTS


 *******************************************************************************
 *  CALCULATION DONE:                                Mon Nov 16 09:55:46 2015  *
 *  GEO_DAT    - DATA SET GEOMETRY IS IN FILE "LOCATE-TS.ARC"
 *
 *
 *
 *                 CHARGE ON SYSTEM =     1
 *
 *
 *
 *  EPS= 78.40 - USE ANDREAS KLAMT'S COSMO IMPLICIT SOLVATION MODEL
 *  IRC=N      - INTRINSIC REACTION COORDINATE  1 DEFINED
 *  LET        - OVERRIDE SOME SAFETY CHECKS
 *  PRECISE    - CRITERIA TO BE INCREASED BY 100 TIMES
 *  FORCETS    - VERIFY THAT TRANSITION STATE IS GENUINE
 *  T=         - A TIME OF 172800.0 SECONDS REQUESTED
 *  DUMP=N     - RESTART FILE WRITTEN EVERY  7200.000 SECONDS
 *  X-PRIOR    - GEOMETRY CHANGES TAKE PRIORITY IN DRC
 *******************************************************************************
 irc=1* forcets  charge=1 eps=78.4  let HTML x-priority=0.2 precise geo_dat="Locate-TS.arc"
 Intrinsic reaction coordinate for ester hydrolysis reaction

   ATOM                 CHEMICAL                   X               Y               Z
  NUMBER                 SYMBOL               (ANGSTROMS)     (ANGSTROMS)     (ANGSTROMS)
 
     1       C(HETATM    1  C1  HET A   3)   -0.08355869      0.07350954      0.05698847   
     2       C(HETATM    2  C2  HET A   3)    1.21825004  *   0.12954635  *   0.78291846  *
     3       O(HETATM    3  O1  HET A   3)    1.96967746      1.22035216      0.82624765   
     4       O(HETATM    4  O2  HET A   3)    2.02055700  *  -1.05426798  *   0.45018090  *
     5       C(HETATM    5  C3  HET A   3)    3.44666766     -0.87169206      0.22078912   
     6       C(HETATM    6  C4  HET A   3)    3.91432232     -2.25603209     -0.17224558   
     7       H(HETATM    7 1H1  HET A   3)    0.03647032     -0.13564615     -1.02122838   
     8       H(HETATM    8 2H1  HET A   3)   -0.73740738     -0.72539860      0.45873335   
     9       H(HETATM    9 3H1  HET A   3)   -0.64328241      1.02244095      0.14285195   
    10       H(HETATM   10 1H3  HET A   3)    3.56010880     -0.12280109     -0.58387420   
    11       H(HETATM   11 2H3  HET A   3)    3.90407023     -0.49099343      1.15080442   
    12       H(HETATM   12 1H4  HET A   3)    3.64341116     -3.01185106      0.58007094   
    13       H(HETATM   13 2H4  HET A   3)    3.48335944     -2.58120057     -1.12974786   
    14       H(HETATM   14 3H4  HET A   3)    5.00977442     -2.27999678     -0.27872071   
    15       H(HETATM   15 1H   HOH A   5)    1.47068944      0.12200546      2.86510273   
    16       O(HETATM   16  O   HOH A   4)    1.00615879  *   3.16094471  *  -0.44171570  *
    17       O(HETATM   17  O   HOH A   5)    1.00952229  *  -0.39985786  *   2.13993652  *
    18       H(HETATM   18 1H   HOH A   4)    1.55730771  *   2.08139036  *   0.27679778  *
    19       H(HETATM   19 2H   HOH A   5)    1.79204123  *  -1.42578731  *   1.72350214  *
    20       H(HETATM   20 2H   HOH A   4)    1.02782866      3.90307990      0.20411191   
    21       H(HETATM   21 3H   HOH A   4)    1.72311538      3.39322745     -1.07491265   
 

     ===================== shared-memory parallel CPU Section ======================
     **                                                                           **
     **  MOPAC calculations will run in shared-memory parallel CPUs               **
     **                                                                           **
     **  Number of Threads =  4                                                   **
     **                                                                           **
     **                                                                           **
     **  For information on this work, see:                                       **
     **                                                                           **
     **  Maia, J.D.C., et al., J. Chem. Theory Comput. 2012, 8, 3072-3081.        **
     **        DOI: 10.1021/ct3004645.                                            **
     **                                                                           **
     ===================== shared-memory parallel CPU Section ======================
      


 General Reference for PM7:
 "Optimization of Parameters for Semiempirical Methods VI: More Modifications to the 
 NDDO Approximations and Re-optimization of Parameters", J. J. P. Stewart, J. Mol. Mod., 1:32, 19 (2013)
 http://www.springerlink.com/openurl.asp?genre=article&id=doi:10.1007/s00894-012-1667-x

           Empirical Formula: C4 H13 O4  =    21 atoms



      MOLECULAR POINT GROUP   :   C1  


      RHF CALCULATION, NO. OF DOUBLY OCCUPIED LEVELS =   26



          HEAT OF FORMATION =    -104.147262 KCALS/MOLE


          GRADIENT NORM =   2.41163


          TIME FOR SCF CALCULATION =    0.03

          TIME FOR DERIVATIVES     =    0.03

          ESTIMATED TIME TO COMPLETE CALCULATION =        4.50 SECONDS
 STEP:   1 TIME =     0.06 SECS, INTEGRAL =      0.06 TIME LEFT: 172799.88
 STEP:   2 TIME =     0.08 SECS, INTEGRAL =      0.14 TIME LEFT: 172799.80
 STEP:   3 TIME =     0.08 SECS, INTEGRAL =      0.22 TIME LEFT: 172799.72
 STEP:   4 TIME =     0.08 SECS, INTEGRAL =      0.30 TIME LEFT: 172799.64
 STEP:   5 TIME =     0.08 SECS, INTEGRAL =      0.38 TIME LEFT: 172799.56
 STEP:   6 TIME =     0.06 SECS, INTEGRAL =      0.44 TIME LEFT: 172799.50
 STEP:   7 TIME =     0.08 SECS, INTEGRAL =      0.52 TIME LEFT: 172799.42
 STEP:   8 TIME =     0.06 SECS, INTEGRAL =      0.57 TIME LEFT: 172799.36
 STEP:   9 TIME =     0.07 SECS, INTEGRAL =      0.64 TIME LEFT: 172799.30
 STEP:  10 TIME =     0.08 SECS, INTEGRAL =      0.72 TIME LEFT: 172799.22
 STEP:  11 TIME =     0.06 SECS, INTEGRAL =      0.78 TIME LEFT: 172799.16
 STEP:  12 TIME =     0.06 SECS, INTEGRAL =      0.84 TIME LEFT: 172799.10
 STEP:  13 TIME =     0.08 SECS, INTEGRAL =      0.92 TIME LEFT: 172799.02
 STEP:  14 TIME =     0.06 SECS, INTEGRAL =      0.98 TIME LEFT: 172798.96
 STEP:  15 TIME =     0.08 SECS, INTEGRAL =      1.06 TIME LEFT: 172798.88
 STEP:  16 TIME =     0.06 SECS, INTEGRAL =      1.12 TIME LEFT: 172798.82
 STEP:  17 TIME =     0.08 SECS, INTEGRAL =      1.20 TIME LEFT: 172798.74
 STEP:  18 TIME =     0.06 SECS, INTEGRAL =      1.26 TIME LEFT: 172798.68
           INITIAL VELOCITY IN DRC (Angstroms/Femtosecond)
         0.00000         0.00000         0.00000
         0.08192        -0.05008        -0.13973
         0.00000         0.00000         0.00000
         0.01192         0.07233        -0.14700
         0.00000         0.00000         0.00000
         0.00000         0.00000         0.00000
         0.00000         0.00000         0.00000
         0.00000         0.00000         0.00000
         0.00000         0.00000         0.00000
         0.00000         0.00000         0.00000
         0.00000         0.00000         0.00000
         0.00000         0.00000         0.00000
         0.00000         0.00000         0.00000
         0.00000         0.00000         0.00000
         0.00000         0.00000         0.00000
        -0.00021         0.00040         0.00016
         0.09316        -0.13804        -0.01648
        -0.00706         0.00351         0.01197
        -0.21713         0.16802         0.39864
         0.00000         0.00000         0.00000
         0.00000         0.00000         0.00000

 GEOMETRY PRIORITY, STEP = 0.2000 ANGSTROMS



     POINT   POTENTIAL  +  ENERGY LOST   =   TOTAL      ERROR    REF%   MOVEMENT
       1    -104.14726      0.00000       -104.14726   0.00000     1   %  0.0000
       8    -104.86960      0.76832       -104.10128   0.04598     2   %  0.1538
      24    -107.14785      3.26137       -103.88647   0.26079     3   %  0.3500
      40    -110.90244      6.99506       -103.90738   0.23989     4   %  0.5343
      55    -114.56853     10.65344       -103.91509   0.23217     5   %  0.7243
      67    -117.30837     13.21520       -104.09317   0.05409     6   %  0.8864
      77    -119.25154     15.09715       -104.15439  -0.00713     7   %  1.0430
      86    -120.80733     16.57004       -104.23729  -0.09003     8   %  1.2109
      94    -122.15408     17.70137       -104.45271  -0.30545     9   %  1.3811
     101    -123.09646     18.55631       -104.54015  -0.39289    10   %  1.5415
     108    -123.81392     19.29290       -104.52102  -0.37376    11   %  1.7119
     115    -124.36560     19.98249       -104.38312  -0.23585    12   %  1.8638
     122    -124.82831     20.58619       -104.24213  -0.09487    13   %  1.9820
     129    -125.24264     21.16166       -104.08099   0.06627    14   %  2.0912
     136    -125.40616     21.74467       -103.66149   0.48577    15   %  2.1937
     144    -125.83879     22.42380       -103.41499   0.73227    16   %  2.3059
     151    -126.31300     23.04796       -103.26504   0.88222    17   %  2.4048
     159    -126.79777     23.78536       -103.01241   1.13485    18   %  2.5202
     166    -127.19948     24.45006       -102.74942   1.39784    19   %  2.6237
     174    -127.76270     25.21747       -102.54523   1.60203    20   %  2.7448
     181    -128.25027     25.88953       -102.36074   1.78652    21   %  2.8516
     189    -128.77164     26.63443       -102.13721   2.01005    22   %  2.9723
     196    -129.15173     27.25470       -101.89703   2.25023    23   %  3.0743
     204    -129.55419     27.93015       -101.62404   2.52322    24   %  3.1858
     212    -129.86369     28.56406       -101.29963   2.84763    25   %  3.2907
     220    -130.17323     29.15343       -101.01979   3.12747    26   %  3.3896
     229    -130.50006     29.78367       -100.71638   3.43088    27   %  3.4923
     238    -130.71767     30.37513       -100.34255   3.80471    28   %  3.5868
     247    -130.95453     30.93618       -100.01835   4.12891    29   %  3.6789
     256    -130.99520     31.47943        -99.51578   4.63148    30   %  3.7633
     265    -131.18978     32.00326        -99.18652   4.96075    31   %  3.8439
     273    -131.28228     32.46817        -98.81411   5.33315    32   %  3.9106
     282    -131.40082     32.99175        -98.40907   5.73820    33   %  3.9822
     290    -131.49411     33.46200        -98.03211   6.11515    34   %  4.0444
     300    -131.60337     34.04967        -97.55371   6.59356    35   %  4.1198
     310    -131.52297     34.66358        -96.85938   7.28788    36   %  4.1908
     321    -131.56563     35.28825        -96.27738   7.86988    37   %  4.2639
     331    -131.65575     35.87683        -95.77892   8.36834    38   %  4.3319
     342    -131.73003     36.58035        -95.14968   8.99758    39   %  4.4094
     353    -131.72556     37.23788        -94.48768   9.65958    40   %  4.4792
     364    -131.76194     37.86027        -93.90167  10.24559    41   %  4.5422
     376    -131.72829     38.58541        -93.14288  11.00438    42   %  4.6083
     387    -131.80120     39.24479        -92.55642  11.59085    43   %  4.6670
     399    -131.86628     40.01018        -91.85610  12.29116    44   %  4.7334
     410    -131.90012     40.73142        -91.16870  12.97856    45   %  4.7923
     422    -131.92072     41.51661        -90.40410  13.74316    46   %  4.8541
     434    -131.97413     42.30938        -89.66475  14.48251    47   %  4.9134
     445    -131.96733     43.03129        -88.93604  15.21122    48   %  4.9654
     457    -132.00522     43.83995        -88.16527  15.98200    49   %  5.0215
     469    -132.04244     44.67217        -87.37028  16.77699    50   %  5.0782
     481    -132.10409     45.50312        -86.60098  17.54629    51   %  5.1355
     493    -132.15901     46.34389        -85.81512  18.33214    52   %  5.1900
     505    -132.18079     47.18874        -84.99205  19.15521    53   %  5.2439
     517    -132.21968     48.04205        -84.17763  19.96963    54   %  5.2959
     529    -132.27565     48.89581        -83.37984  20.76742    55   %  5.3471
     541    -132.39069     49.72587        -82.66482  21.48244    56   %  5.3965
     552    -132.18137     50.48745        -81.69391  22.45335    57   %  5.4400
     564    -132.26308     51.30754        -80.95554  23.19172    58   %  5.4899
     577    -132.35952     52.24184        -80.11767  24.02959    59   %  5.5446


           POTENTIAL ENERGY HAS STOPPED DROPPING

           INITIAL VELOCITY IN DRC (Angstroms/Femtosecond)
         0.00000         0.00000         0.00000
        -0.08192         0.05008         0.13973
         0.00000         0.00000         0.00000
        -0.01192        -0.07233         0.14700
         0.00000         0.00000         0.00000
         0.00000         0.00000         0.00000
         0.00000         0.00000         0.00000
         0.00000         0.00000         0.00000
         0.00000         0.00000         0.00000
         0.00000         0.00000         0.00000
         0.00000         0.00000         0.00000
         0.00000         0.00000         0.00000
         0.00000         0.00000         0.00000
         0.00000         0.00000         0.00000
         0.00000         0.00000         0.00000
         0.00021        -0.00040        -0.00016
        -0.09316         0.13804         0.01648
         0.00706        -0.00351        -0.01197
         0.21713        -0.16802        -0.39864
         0.00000         0.00000         0.00000
         0.00000         0.00000         0.00000

 GEOMETRY PRIORITY, STEP = 0.2000 ANGSTROMS



     POINT   POTENTIAL  +  ENERGY LOST   =   TOTAL      ERROR    REF%   MOVEMENT
       1    -104.14726      0.00000       -104.14726   0.00000     1   %  0.0000
       8    -104.43682      0.64465       -103.79216   0.35510     2   %  0.1652
      22    -105.94566      2.42175       -103.52391   0.62335     3   %  0.3631
      37    -108.83086      5.32465       -103.50621   0.64105     4   %  0.5575
      49    -111.38973      7.89323       -103.49650   0.65076     5   %  0.7379
      61    -113.94349     10.12816       -103.81533   0.33193     6   %  0.9348
      71    -115.80076     11.76815       -104.03261   0.11465     7   %  1.1248
      79    -116.85200     12.92157       -103.93043   0.21683     8   %  1.2957
      87    -117.87182     13.92706       -103.94476   0.20250     9   %  1.4829
      94    -118.39891     14.63107       -103.76784   0.37942    10   %  1.6446
     101    -118.98883     15.24306       -103.74577   0.40150    11   %  1.8137
     107    -119.31346     15.76101       -103.55244   0.59482    12   %  1.9524
     115    -119.61964     16.26703       -103.35261   0.79465    13   %  2.0727
     122    -119.82782     16.72816       -103.09966   1.04760    14   %  2.1751
     130    -120.05593     17.26006       -102.79586   1.35140    15   %  2.2860
     138    -120.25367     17.76567       -102.48800   1.65926    16   %  2.3830
     146    -120.45322     18.27647       -102.17675   1.97051    17   %  2.4747
     155    -120.62762     18.77686       -101.85076   2.29650    18   %  2.5579
     164    -120.78053     19.32909       -101.45143   2.69583    19   %  2.6453
     173    -120.86658     19.88261       -100.98396   3.16330    20   %  2.7301
     181    -121.02269     20.38132       -100.64137   3.50589    21   %  2.8032
     190    -121.22020     20.95544       -100.26476   3.88251    22   %  2.8861
     199    -121.40153     21.54727        -99.85426   4.29300    23   %  2.9709
     208    -121.65571     22.16211        -99.49360   4.65366    24   %  3.0601
     216    -121.90109     22.72889        -99.17219   4.97507    25   %  3.1446
     224    -122.17383     23.32037        -98.85346   5.29380    26   %  3.2347
     232    -122.44860     23.93091        -98.51769   5.62957    27   %  3.3304
     240    -122.77414     24.55686        -98.21727   5.92999    28   %  3.4314
     248    -123.12159     25.19816        -97.92344   6.22382    29   %  3.5374
     256    -123.46704     25.84525        -97.62179   6.52547    30   %  3.6475
     264    -123.86467     26.48879        -97.37589   6.77137    31   %  3.7593
     271    -124.18223     27.04222        -97.14001   7.00725    32   %  3.8575
     279    -124.51341     27.66364        -96.84977   7.29749    33   %  3.9698
     287    -124.81672     28.26479        -96.55193   7.59534    34   %  4.0800
     295    -125.09459     28.84558        -96.24901   7.89825    35   %  4.1866
     303    -125.35032     29.41134        -95.93898   8.20828    36   %  4.2884
     311    -125.58981     29.96167        -95.62815   8.51911    37   %  4.3856
     320    -125.85542     30.55914        -95.29628   8.85098    38   %  4.4878
     328    -126.08132     31.07345        -95.00786   9.13940    39   %  4.5729
     337    -126.25854     31.63877        -94.61978   9.52749    40   %  4.6658
     346    -126.45860     32.18651        -94.27209   9.87517    41   %  4.7494
     355    -126.55484     32.72438        -93.83046  10.31681    42   %  4.8315
     364    -126.72225     33.24970        -93.47256  10.67471    43   %  4.9048
     373    -126.82656     33.77086        -93.05570  11.09157    44   %  4.9787
     383    -126.93745     34.33940        -92.59806  11.54921    45   %  5.0533
     392    -127.06864     34.84315        -92.22550  11.92177    46   %  5.1149
     402    -127.20714     35.40864        -91.79849  12.34877    47   %  5.1851
     411    -127.22595     35.90403        -91.32192  12.82534    48   %  5.2454
     420    -127.29858     36.40025        -90.89832  13.24894    49   %  5.2981
     429    -127.38170     36.88623        -90.49548  13.65178    50   %  5.3541
     438    -127.48209     37.36922        -90.11287  14.03439    51   %  5.4026
     447    -127.78663     37.85032        -89.93630  14.21096    52   %  5.4565
     454    -127.79038     38.22291        -89.56747  14.57979    53   %  5.4944
     462    -127.88410     38.65926        -89.22484  14.92242    54   %  5.5352
     470    -127.96035     39.10181        -88.85854  15.28872    55   %  5.5751
     479    -127.96754     39.61149        -88.35605  15.79121    56   %  5.6191
     488    -128.05112     40.13746        -87.91366  16.23360    57   %  5.6597
     498    -128.10338     40.72106        -87.38232  16.76494    58   %  5.7039
     508    -128.14333     41.30408        -86.83925  17.30801    59   %  5.7464
     519    -128.13898     41.94087        -86.19812  17.94914    60   %  5.7895
     530    -128.20888     42.57435        -85.63452  18.51274    61   %  5.8320
     541    -128.20949     43.19711        -85.01239  19.13487    62   %  5.8724
     553    -128.24447     43.86617        -84.37830  19.76896    63   %  5.9150
     565    -128.28123     44.52536        -83.75587  20.39140    64   %  5.9561
     576    -128.34046     45.12891        -83.21155  20.93571    65   %  5.9916
     588    -128.37122     45.77748        -82.59374  21.55352    66   %  6.0285
     600    -128.44322     46.42745        -82.01577  22.13149    67   %  6.0641
     612    -128.47914     47.07708        -81.40206  22.74520    68   %  6.0989
     624    -128.44170     47.74596        -80.69574  23.45152    69   %  6.1330
     635    -128.39450     48.38125        -80.01325  24.13401    70   %  6.1658
     644    -128.45408     48.91570        -79.53838  24.60888    71   %  6.1890
     653    -128.47085     49.49607        -78.97478  25.17248    72   %  6.2195


           POTENTIAL ENERGY HAS STOPPED DROPPING


 **********************
 *                    *
 * JOB ENDED NORMALLY *
 *                    *
 **********************



 TOTAL JOB TIME:            18.44 SECONDS

 == MOPAC DONE ==
