 *******************************************************************************
 ** Site#: 37037        For non-commercial use only           Version 21.153W **
 *******************************************************************************
 ** Cite this program as: MOPAC2016, Version: 21.153W, James J. P. Stewart,   **
 ** Stewart Computational Chemistry, web: HTTP://OpenMOPAC.net. Days left: 362**
 *******************************************************************************
 **                                                                           **
 **                                MOPAC2016                                  **
 **                                                                           **
 *******************************************************************************

                              PM7 CALCULATION RESULTS

 *******************************************************************************
 *  CALCULATION DONE:                                Sat Jun  5 17:05:33 2021  *
 *  PDBOUT     - PRINT GEOMETRY IN PDB FORMAT
 *  GEO_DAT    - DATA SET GEOMETRY IS IN FILE "Locate-TS.arc"
 *
 *
 *
 *                 CHARGE ON SYSTEM = +1
 *
 *
 *
 *  EPS=78.4   - USE ANDREAS KLAMT'S COSMO IMPLICIT SOLVATION MODEL
 *  TS         - USE EF ROUTINE FOR TS SEARCH
 *  T=         - A TIME OF 172800.0 SECONDS REQUESTED
 *  DUMP=N     - RESTART FILE WRITTEN EVERY 7200.0 SECONDS REQUESTED
 *******************************************************************************
TS charge=1 eps=78.4   geo_dat="Locate-TS.arc" PDBOUT
 Refine the transition state geometry

   ATOM                 CHEMICAL                   X               Y               Z
  NUMBER                 SYMBOL               (ANGSTROMS)     (ANGSTROMS)     (ANGSTROMS)
 
     1       C(HETATM    1  C1  ACY A   1)   -0.15246723      0.12386675     -0.01201551   
     2       C(HETATM    2  C2  ACY A   1)    1.09738739  *   0.13393934  *   0.79778779  *
     3       O(HETATM    3  O   ACY A   1)    1.77201377      1.25515539      1.03210520   
     4       O(HETATM    4  O   EOH B   2)    1.98543252  *  -0.94738283  *   0.34766884  *
     5       C(HETATM    5  C1  EOH B   2)    3.37023806     -0.60981785      0.07531146   
     6       C(HETATM    6  C2  EOH B   2)    4.03399420     -1.94349720     -0.18212911   
     7       H(HETATM    7 1H1  ACY A   1)    0.06058614      0.14104101     -1.09664404   
     8       H(HETATM    8 2H1  ACY A   1)   -0.76705716     -0.77757134      0.17188067   
     9       H(HETATM    9 3H1  ACY A   1)   -0.79252230      0.99729083      0.21119137   
    10       H(HETATM   10 1H1  EOH B   2)    3.34347159      0.04842843     -0.81341049   
    11       H(HETATM   11 2H1  EOH B   2)    3.79370433     -0.06225319      0.93585679   
    12       H(HETATM   12 1H2  EOH B   2)    3.96822542     -2.61501089      0.68603114   
    13       H(HETATM   13 2H2  EOH B   2)    3.58701565     -2.46969430     -1.03789303   
    14       H(HETATM   14 3H2  EOH B   2)    5.10372726     -1.80614008     -0.40722331   
    15       H(HETATM   15  H   ACY G   1)    1.32416854     -0.12289120      2.85098915   
    16       O(HETATM   16  O   HOH F   3)    1.10215901      3.15021358     -0.48977842   
    17       O(HETATM   17  O   ACY G   1)    0.88521122  *  -0.57901840  *   2.06190258  *
    18       H(HETATM   18  H   UNK G    )    1.48572015      2.09762806      0.40054529   
    19       H(HETATM   19  H   EOH B   2)    1.77350434  *  -1.47083095  *   1.57830533  *
    20       H(HETATM   20 1H   HOH F   3)    0.89775743      3.90904517      0.10095637   
    21       H(HETATM   21 2H   HOH F   3)    1.94023660      3.42463179     -0.92260549   
 

 General Reference for PM7:
 "Optimization of Parameters for Semiempirical Methods VI: More Modifications to the 
 NDDO Approximations and Re-optimization of Parameters", J. J. P. Stewart, J. Mol. Mod., 1:32, 19 (2013)
 https://link.springer.com/article/10.1007/s00894-012-1667-x

           Empirical Formula: C4 H13 O4  =    21 atoms



      MOLECULAR POINT GROUP   :   C1  


      RHF CALCULATION, NO. OF DOUBLY OCCUPIED LEVELS = 26


          Transition state refinement using EF

          HESSIAN CALCULATED NUMERICALLY

 CYCLE:     1 TIME:   0.266 TIME LEFT:  2.00D  GRAD.:     2.453 HEAT: -104.3788
 CYCLE:     2 TIME:   0.016 TIME LEFT:  2.00D  GRAD.:     0.024 HEAT: -104.3798

     GRADIENT =  0.02435 IS LESS THAN CUTOFF =  1.00000



 -------------------------------------------------------------------------------
 TS charge=1 eps=78.4 PDBOUT
 Refine the transition state geometry



     GEOMETRY OPTIMISED USING EIGENVECTOR FOLLOWING (TS).     
     SCF FIELD WAS ACHIEVED                                   


                              PM7 CALCULATION
                                                       MOPAC2016 (Version: 21.153W)
                                                       Sat Jun  5 17:05:34 2021
                                                       No. of days remaining = 362




          FINAL HEAT OF FORMATION =       -104.37982 KCAL/MOL =    -436.72518 KJ/MOL
          VAN DER WAALS AREA      =        170.76 SQUARE ANGSTROMS


          TOTAL ENERGY            =      -1843.95770 EV
          ELECTRONIC ENERGY       =      -2439.36466 EV  POINT GROUP:     C1  
          CORE-CORE REPULSION     =        595.40696 EV

          DIELECTRIC ENERGY       =         -2.60122 EV
          COSMO AREA              =        170.76 SQUARE ANGSTROMS
          COSMO VOLUME            =        163.55 CUBIC ANGSTROMS

          GRADIENT NORM           =          0.02435 = 0.00531 PER ATOM
          IONIZATION POTENTIAL    =         11.874247 EV
          HOMO LUMO ENERGIES (EV) =        -11.874 -0.010
          NO. OF FILLED LEVELS    =         26
          MOLECULAR WEIGHT        =        125.1443

          MOLECULAR DIMENSIONS (Angstroms)

            Atom       Atom       Distance
            H    20    H    12     7.23418
            H    14    H     8     4.94826
            H    15    H     7     3.99174


          SCF CALCULATIONS        =         16
 
          WALL-CLOCK TIME         =          0.328 SECONDS
          COMPUTATION TIME        =          1.156 SECONDS




   ATOM                 CHEMICAL                   X               Y               Z
  NUMBER                 SYMBOL               (ANGSTROMS)     (ANGSTROMS)     (ANGSTROMS)
 
     1       C(HETATM    1  C1  ACY A   1)   -0.15246723      0.12386675     -0.01201551   
     2       C(HETATM    2  C2  ACY A   1)    1.09709713  *   0.13320568  *   0.79647315  *
     3       O(HETATM    3  O   ACY A   1)    1.77201377      1.25515539      1.03210520   
     4       O(HETATM    4  O   EOH B   2)    1.98520496  *  -0.94680420  *   0.34442189  *
     5       C(HETATM    5  C1  EOH B   2)    3.37023806     -0.60981785      0.07531146   
     6       C(HETATM    6  C2  EOH B   2)    4.03399420     -1.94349720     -0.18212911   
     7       H(HETATM    7 1H1  ACY A   1)    0.06058614      0.14104101     -1.09664404   
     8       H(HETATM    8 2H1  ACY A   1)   -0.76705716     -0.77757134      0.17188067   
     9       H(HETATM    9 3H1  ACY A   1)   -0.79252230      0.99729083      0.21119137   
    10       H(HETATM   10 1H1  EOH B   2)    3.34347159      0.04842843     -0.81341049   
    11       H(HETATM   11 2H1  EOH B   2)    3.79370433     -0.06225319      0.93585679   
    12       H(HETATM   12 1H2  EOH B   2)    3.96822542     -2.61501089      0.68603114   
    13       H(HETATM   13 2H2  EOH B   2)    3.58701565     -2.46969430     -1.03789303   
    14       H(HETATM   14 3H2  EOH B   2)    5.10372726     -1.80614008     -0.40722331   
    15       H(HETATM   15  H   ACY G   1)    1.32416854     -0.12289120      2.85098915   
    16       O(HETATM   16  O   HOH F   3)    1.10215901      3.15021358     -0.48977842   
    17       O(HETATM   17  O   ACY G   1)    0.88915633  *  -0.57979542  *   2.06169009  *
    18       H(HETATM   18  H   UNK G    )    1.48572015      2.09762806      0.40054529   
    19       H(HETATM   19  H   EOH B   2)    1.77637202  *  -1.47093071  *   1.57434085  *
    20       H(HETATM   20 1H   HOH F   3)    0.89775743      3.90904517      0.10095637   
    21       H(HETATM   21 2H   HOH F   3)    1.94023660      3.42463179     -0.92260549   

                             CARTESIAN COORDINATES

   1    C       -0.152467230     0.123866750    -0.012015510
   2    C        1.097097131     0.133205680     0.796473154
   3    O        1.772013770     1.255155390     1.032105200
   4    O        1.985204964    -0.946804198     0.344421890
   5    C        3.370238060    -0.609817850     0.075311460
   6    C        4.033994200    -1.943497200    -0.182129110
   7    H        0.060586140     0.141041010    -1.096644040
   8    H       -0.767057160    -0.777571340     0.171880670
   9    H       -0.792522300     0.997290830     0.211191370
  10    H        3.343471590     0.048428430    -0.813410490
  11    H        3.793704330    -0.062253190     0.935856790
  12    H        3.968225420    -2.615010890     0.686031140
  13    H        3.587015650    -2.469694300    -1.037893030
  14    H        5.103727260    -1.806140080    -0.407223310
  15    H        1.324168540    -0.122891200     2.850989150
  16    O        1.102159010     3.150213580    -0.489778420
  17    O        0.889156334    -0.579795415     2.061690089
  18    H        1.485720150     2.097628060     0.400545290
  19    H        1.776372017    -1.470930713     1.574340847
  20    H        0.897757430     3.909045170     0.100956370
  21    H        1.940236600     3.424631790    -0.922605490


           Empirical Formula: C4 H13 O4  =    21 atoms



      MOLECULAR POINT GROUP   :   C1  


                  EIGENVALUES  
 -32.22781 -30.49678 -29.85343 -29.57424 -27.67491 -26.51305 -22.49305 -21.87550
 -19.45260 -18.57182 -18.33349 -18.05821 -16.91603 -16.08569 -15.78441 -15.53830
 -14.96749 -14.64884 -14.11954 -13.84175 -13.46293 -13.21617 -13.16304 -12.73554
 -12.56266 -11.87425  -0.00975   1.08692   1.75858   2.41031   2.75858   3.06197
   3.59383   3.90561   4.68461   4.99282   5.01438   5.04899   5.37899   5.51616
   5.57379   5.63032   5.92400   6.17734   6.64317


              NET ATOMIC CHARGES AND DIPOLE CONTRIBUTIONS

  ATOM NO.                 TYPE                        CHARGE      No. of ELECS.   s-Pop       p-Pop       
    1          C(HETATM    1  C1  ACY A   1)          -0.518845        4.5188     1.06241     3.45643
    2          C(HETATM    2  C2  ACY A   1)           0.716500        3.2835     1.10827     2.17523
    3          O(HETATM    3  O   ACY A   1)          -0.671472        6.6715     1.84805     4.82342
    4          O(HETATM    4  O   EOH B   2)          -0.474258        6.4743     1.87629     4.59797
    5          C(HETATM    5  C1  EOH B   2)           0.011947        3.9881     1.10159     2.88646
    6          C(HETATM    6  C2  EOH B   2)          -0.480624        4.4806     1.05607     3.42456
    7          H(HETATM    7 1H1  ACY A   1)           0.208589        0.7914     0.79141
    8          H(HETATM    8 2H1  ACY A   1)           0.212680        0.7873     0.78732
    9          H(HETATM    9 3H1  ACY A   1)           0.210049        0.7900     0.78995
   10          H(HETATM   10 1H1  EOH B   2)           0.153827        0.8462     0.84617
   11          H(HETATM   11 2H1  EOH B   2)           0.155149        0.8449     0.84485
   12          H(HETATM   12 1H2  EOH B   2)           0.171735        0.8283     0.82827
   13          H(HETATM   13 2H2  EOH B   2)           0.170890        0.8291     0.82911
   14          H(HETATM   14 3H2  EOH B   2)           0.182547        0.8175     0.81745
   15          H(HETATM   15  H   ACY G   1)           0.419202        0.5808     0.58080
   16          O(HETATM   16  O   HOH F   3)          -0.677149        6.6771     1.81379     4.86336
   17          O(HETATM   17  O   ACY G   1)          -0.543647        6.5436     1.85685     4.68680
   18          H(HETATM   18  H   UNK G    )           0.443341        0.5567     0.55666
   19          H(HETATM   19  H   EOH B   2)           0.510200        0.4898     0.48980
   20          H(HETATM   20 1H   HOH F   3)           0.400944        0.5991     0.59906
   21          H(HETATM   21 2H   HOH F   3)           0.398395        0.6016     0.60161

          NET CHARGE ON RESIDUES

      Residue         Charge  Anion or
                              Cation?
      ACY A   1       +0.601  CATION
      EOH B   2       +0.401
      HOH F   3       +0.122
      ACY G   1       -0.124
 


 DIPOLE           X         Y         Z       TOTAL
 POINT-CHG.     0.611     2.489     0.690     2.655
 HYBRID         0.345     0.320     0.561     0.732
 SUM            0.956     2.810     1.251     3.221


          ATOMIC ORBITAL ELECTRON POPULATIONS

                   Atom                  s        px        py        pz   
   C(HETATM    1  C1  ACY A   1)   1.06241   1.05920   1.23918   1.15805
   C(HETATM    2  C2  ACY A   1)   1.10827   0.78984   0.68800   0.69739
   O(HETATM    3  O   ACY A   1)   1.84805   1.70052   1.38790   1.73500
   O(HETATM    4  O   EOH B   2)   1.87629   1.37004   1.49917   1.72875
   C(HETATM    5  C1  EOH B   2)   1.10159   0.71489   1.03535   1.13622
   C(HETATM    6  C2  EOH B   2)   1.05607   1.16080   1.06334   1.20041
   H(HETATM    7 1H1  ACY A   1)   0.79141
   H(HETATM    8 2H1  ACY A   1)   0.78732
   H(HETATM    9 3H1  ACY A   1)   0.78995
   H(HETATM   10 1H1  EOH B   2)   0.84617
   H(HETATM   11 2H1  EOH B   2)   0.84485
   H(HETATM   12 1H2  EOH B   2)   0.82827
   H(HETATM   13 2H2  EOH B   2)   0.82911
   H(HETATM   14 3H2  EOH B   2)   0.81745
   H(HETATM   15  H   ACY G   1)   0.58080
   O(HETATM   16  O   HOH F   3)   1.81379   1.59379   1.58141   1.68816
   O(HETATM   17  O   ACY G   1)   1.85685   1.72316   1.56631   1.39733
   H(HETATM   18  H   UNK G    )   0.55666
   H(HETATM   19  H   EOH B   2)   0.48980
   H(HETATM   20 1H   HOH F   3)   0.59906
   H(HETATM   21 2H   HOH F   3)   0.60161
 *******************************************************************************
 ** Site#: 37037        For non-commercial use only           Version 21.153W **
 *******************************************************************************
 ** Cite this program as: MOPAC2016, Version: 21.153W, James J. P. Stewart,   **
 ** Stewart Computational Chemistry, web: HTTP://OpenMOPAC.net. Days left: 362**
 *******************************************************************************
 **                                                                           **
 **                                MOPAC2016                                  **
 **                                                                           **
 *******************************************************************************

                              PM7 CALCULATION RESULTS

 *******************************************************************************
 *  CALCULATION DONE:                                Sat Jun  5 17:05:34 2021  *
 *
 *
 *
 *                 CHARGE ON SYSTEM = +1
 *
 *
 *
 *  EPS=78.4   - USE ANDREAS KLAMT'S COSMO IMPLICIT SOLVATION MODEL
 *  OLDGEO     - PREVIOUS GEOMETRY TO BE USED
 *  FORCE      - FORCE CALCULATION SPECIFIED
 *  T=         - A TIME OF 172800.0 SECONDS REQUESTED
 *  DUMP=N     - RESTART FILE WRITTEN EVERY 7200.0 SECONDS REQUESTED
 *  ISOTOPE    - SAVE THE FORCE MATRIX FOR USE LATER
 *******************************************************************************
oldgeo FORCE ISOTOPE eps=78.4 charge=1
 Verify transition state

   ATOM                 CHEMICAL                   X               Y               Z
  NUMBER                 SYMBOL               (ANGSTROMS)     (ANGSTROMS)     (ANGSTROMS)
 
     1       C(HETATM    1  C1  ACY A   1)   -0.15246723      0.12386675     -0.01201551   
     2       C(HETATM    2  C2  ACY A   1)    1.09709713  *   0.13320568  *   0.79647315  *
     3       O(HETATM    3  O   ACY A   1)    1.77201377      1.25515539      1.03210520   
     4       O(HETATM    4  O   EOH B   2)    1.98520496  *  -0.94680420  *   0.34442189  *
     5       C(HETATM    5  C1  EOH B   2)    3.37023806     -0.60981785      0.07531146   
     6       C(HETATM    6  C2  EOH B   2)    4.03399420     -1.94349720     -0.18212911   
     7       H(HETATM    7 1H1  ACY A   1)    0.06058614      0.14104101     -1.09664404   
     8       H(HETATM    8 2H1  ACY A   1)   -0.76705716     -0.77757134      0.17188067   
     9       H(HETATM    9 3H1  ACY A   1)   -0.79252230      0.99729083      0.21119137   
    10       H(HETATM   10 1H1  EOH B   2)    3.34347159      0.04842843     -0.81341049   
    11       H(HETATM   11 2H1  EOH B   2)    3.79370433     -0.06225319      0.93585679   
    12       H(HETATM   12 1H2  EOH B   2)    3.96822542     -2.61501089      0.68603114   
    13       H(HETATM   13 2H2  EOH B   2)    3.58701565     -2.46969430     -1.03789303   
    14       H(HETATM   14 3H2  EOH B   2)    5.10372726     -1.80614008     -0.40722331   
    15       H(HETATM   15  H   ACY G   1)    1.32416854     -0.12289120      2.85098915   
    16       O(HETATM   16  O   HOH F   3)    1.10215901      3.15021358     -0.48977842   
    17       O(HETATM   17  O   ACY G   1)    0.88915633  *  -0.57979542  *   2.06169009  *
    18       H(HETATM   18  H   UNK G    )    1.48572015      2.09762806      0.40054529   
    19       H(HETATM   19  H   EOH B   2)    1.77637202  *  -1.47093071  *   1.57434085  *
    20       H(HETATM   20 1H   HOH F   3)    0.89775743      3.90904517      0.10095637   
    21       H(HETATM   21 2H   HOH F   3)    1.94023660      3.42463179     -0.92260549   
 

 General Reference for PM7:
 "Optimization of Parameters for Semiempirical Methods VI: More Modifications to the 
 NDDO Approximations and Re-optimization of Parameters", J. J. P. Stewart, J. Mol. Mod., 1:32, 19 (2013)
 https://link.springer.com/article/10.1007/s00894-012-1667-x

           Empirical Formula: C4 H13 O4  =    21 atoms



      MOLECULAR POINT GROUP   :   C1  


      RHF CALCULATION, NO. OF DOUBLY OCCUPIED LEVELS = 26



          HEAT OF FORMATION =    -104.379822 KCALS/MOLE


          CARTESIAN COORDINATE DERIVATIVES

   NUMBER  ATOM         X            Y            Z

     1       C      0.333986     0.122643     0.043535
     2       C      0.045410    -0.010711    -0.016460
     3       O      0.134910     0.780472     0.236933
     4       O     -0.081344     0.001473    -0.075599
     5       C     -0.140779    -0.140776     0.252615
     6       C     -0.164669     0.100100    -0.136540
     7       H      0.271987    -0.371750    -0.068603
     8       H      0.282109    -0.007514    -0.031857
     9       H      0.066081     0.008168    -0.163309
    10       H     -0.565281    -0.215695    -0.057032
    11       H      0.014053     0.251160    -0.336577
    12       H     -0.135177     0.027676    -0.070731
    13       H      0.024021     0.036993    -0.223806
    14       H     -0.080331     0.125364    -0.033567
    15       H     -0.544854    -0.058216     0.297881
    16       O      0.312363    -0.168643     0.025312
    17       O     -0.027956    -0.014770     0.254696
    18       H      0.218205     0.058207     0.069194
    19       H      0.211357    -0.043267     0.115296
    20       H      0.013110    -0.218568     0.099087
    21       H     -0.186882    -0.262059    -0.180160
 


          GRADIENT NORM =   1.68844


          TIME FOR SCF CALCULATION =    0.03

          TIME FOR DERIVATIVES     =    0.02

          MOLECULAR WEIGHT =  125.14



          ROTATIONAL CONSTANTS IN CM(-1)

          A =    0.07845615   B =    0.03847809   C =    0.03122587



           PRINCIPAL MOMENTS OF INERTIA IN UNITS OF 10**(-40)*GRAM-CM**2

          A =      356.7952   B =      727.4991   C =      896.4611


          ORIENTATION OF MOLECULE IN FORCE CALCULATION

    NO.       ATOM         X         Y         Z

     1          C      -1.8502   -0.1165    0.6203
     2          C      -0.3618   -0.1165    0.6203
     3          O       0.3399    1.0137    0.6203
     4          O       0.1315   -1.0588   -0.3938
     5          C       1.1502   -0.5858   -1.3117
     6          C       1.5593   -1.8209   -2.0816
     7          H      -2.2604    0.0563   -0.3916
     8          H      -2.2719   -1.0782    0.9689
     9          H      -2.2608    0.6697    1.2802
    10          H       0.6491    0.1775   -1.9364
    11          H       1.9767   -0.1230   -0.7438
    12          H       1.9715   -2.6017   -1.4262
    13          H       0.7159   -2.2650   -2.6297
    14          H       2.3360   -1.5749   -2.8232
    15          H       0.9433   -0.6171    2.1645
    16          O      -1.0373    3.0326    0.0010
    17          O       0.1464   -1.0002    1.6754
    18          H      -0.2383    1.9063    0.3762
    19          H       0.6210   -1.7513    0.6607
    20          H      -0.8833    3.6913    0.7144
    21          H      -0.5671    3.4233   -0.7679


    FIRST DERIVATIVES WILL BE USED IN THE CALCULATION OF SECOND DERIVATIVES

          ESTIMATED TIME TO COMPLETE CALCULATION =        5.91 SECONDS

    FOR POINT-GROUP C1   THERE ARE   1 UNIQUE SYMMETRY FUNCTIONS.

 STEP:   1 TIME =     0.03 SECS, INTEGRAL =      0.03 TIME LEFT: 172799.92
 STEP:   2 TIME =     0.05 SECS, INTEGRAL =      0.08 TIME LEFT: 172799.88
 STEP:   3 TIME =     0.03 SECS, INTEGRAL =      0.11 TIME LEFT: 172799.84
 STEP:   4 TIME =     0.03 SECS, INTEGRAL =      0.14 TIME LEFT: 172799.81
 STEP:   5 TIME =     0.05 SECS, INTEGRAL =      0.19 TIME LEFT: 172799.77
 STEP:   6 TIME =     0.03 SECS, INTEGRAL =      0.22 TIME LEFT: 172799.73
 STEP:   7 TIME =     0.05 SECS, INTEGRAL =      0.27 TIME LEFT: 172799.69
 STEP:   8 TIME =     0.03 SECS, INTEGRAL =      0.30 TIME LEFT: 172799.66
 STEP:   9 TIME =     0.03 SECS, INTEGRAL =      0.33 TIME LEFT: 172799.62
 STEP:  10 TIME =     0.05 SECS, INTEGRAL =      0.38 TIME LEFT: 172799.58
 STEP:  11 TIME =     0.05 SECS, INTEGRAL =      0.42 TIME LEFT: 172799.53
 STEP:  12 TIME =     0.03 SECS, INTEGRAL =      0.45 TIME LEFT: 172799.50
 STEP:  13 TIME =     0.05 SECS, INTEGRAL =      0.50 TIME LEFT: 172799.45
 STEP:  14 TIME =     0.03 SECS, INTEGRAL =      0.53 TIME LEFT: 172799.42
 STEP:  15 TIME =     0.05 SECS, INTEGRAL =      0.58 TIME LEFT: 172799.38
 STEP:  16 TIME =     0.03 SECS, INTEGRAL =      0.61 TIME LEFT: 172799.34
 STEP:  17 TIME =     0.03 SECS, INTEGRAL =      0.64 TIME LEFT: 172799.31
 STEP:  18 TIME =     0.05 SECS, INTEGRAL =      0.69 TIME LEFT: 172799.27
 STEP:  19 TIME =     0.03 SECS, INTEGRAL =      0.72 TIME LEFT: 172799.23
 STEP:  20 TIME =     0.05 SECS, INTEGRAL =      0.77 TIME LEFT: 172799.19
 STEP:  21 TIME =     0.03 SECS, INTEGRAL =      0.80 TIME LEFT: 172799.16
 STEP:  22 TIME =     0.03 SECS, INTEGRAL =      0.83 TIME LEFT: 172799.12
 STEP:  23 TIME =     0.03 SECS, INTEGRAL =      0.86 TIME LEFT: 172799.09
 STEP:  24 TIME =     0.05 SECS, INTEGRAL =      0.91 TIME LEFT: 172799.05
 STEP:  25 TIME =     0.03 SECS, INTEGRAL =      0.94 TIME LEFT: 172799.02
 STEP:  26 TIME =     0.03 SECS, INTEGRAL =      0.97 TIME LEFT: 172798.98
 STEP:  27 TIME =     0.03 SECS, INTEGRAL =      1.00 TIME LEFT: 172798.95
 STEP:  28 TIME =     0.05 SECS, INTEGRAL =      1.05 TIME LEFT: 172798.91
 STEP:  29 TIME =     0.03 SECS, INTEGRAL =      1.08 TIME LEFT: 172798.88
 STEP:  30 TIME =     0.03 SECS, INTEGRAL =      1.11 TIME LEFT: 172798.84
 STEP:  31 TIME =     0.03 SECS, INTEGRAL =      1.14 TIME LEFT: 172798.81
 STEP:  32 TIME =     0.05 SECS, INTEGRAL =      1.19 TIME LEFT: 172798.77
 STEP:  33 TIME =     0.03 SECS, INTEGRAL =      1.22 TIME LEFT: 172798.73
 STEP:  34 TIME =     0.05 SECS, INTEGRAL =      1.27 TIME LEFT: 172798.69
 STEP:  35 TIME =     0.03 SECS, INTEGRAL =      1.30 TIME LEFT: 172798.66
 STEP:  36 TIME =     0.03 SECS, INTEGRAL =      1.33 TIME LEFT: 172798.62
 STEP:  37 TIME =     0.03 SECS, INTEGRAL =      1.36 TIME LEFT: 172798.59
 STEP:  38 TIME =     0.05 SECS, INTEGRAL =      1.41 TIME LEFT: 172798.55
 STEP:  39 TIME =     0.03 SECS, INTEGRAL =      1.44 TIME LEFT: 172798.52
 STEP:  40 TIME =     0.03 SECS, INTEGRAL =      1.47 TIME LEFT: 172798.48
 STEP:  41 TIME =     0.05 SECS, INTEGRAL =      1.52 TIME LEFT: 172798.44
 STEP:  42 TIME =     0.03 SECS, INTEGRAL =      1.55 TIME LEFT: 172798.41
 STEP:  43 TIME =     0.05 SECS, INTEGRAL =      1.59 TIME LEFT: 172798.36
 STEP:  44 TIME =     0.03 SECS, INTEGRAL =      1.62 TIME LEFT: 172798.33
 STEP:  45 TIME =     0.03 SECS, INTEGRAL =      1.66 TIME LEFT: 172798.30
 STEP:  46 TIME =     0.05 SECS, INTEGRAL =      1.70 TIME LEFT: 172798.25
 STEP:  47 TIME =     0.03 SECS, INTEGRAL =      1.73 TIME LEFT: 172798.22
 STEP:  48 TIME =     0.03 SECS, INTEGRAL =      1.77 TIME LEFT: 172798.19
 STEP:  49 TIME =     0.03 SECS, INTEGRAL =      1.80 TIME LEFT: 172798.16
 STEP:  50 TIME =     0.03 SECS, INTEGRAL =      1.83 TIME LEFT: 172798.12
 STEP:  51 TIME =     0.05 SECS, INTEGRAL =      1.88 TIME LEFT: 172798.08
 STEP:  52 TIME =     0.03 SECS, INTEGRAL =      1.91 TIME LEFT: 172798.05
 STEP:  53 TIME =     0.03 SECS, INTEGRAL =      1.94 TIME LEFT: 172798.02
 STEP:  54 TIME =     0.05 SECS, INTEGRAL =      1.98 TIME LEFT: 172797.97
 STEP:  55 TIME =     0.03 SECS, INTEGRAL =      2.02 TIME LEFT: 172797.94
 STEP:  56 TIME =     0.03 SECS, INTEGRAL =      2.05 TIME LEFT: 172797.91
 STEP:  57 TIME =     0.05 SECS, INTEGRAL =      2.09 TIME LEFT: 172797.86
 STEP:  58 TIME =     0.03 SECS, INTEGRAL =      2.12 TIME LEFT: 172797.83
 STEP:  59 TIME =     0.05 SECS, INTEGRAL =      2.17 TIME LEFT: 172797.78
 STEP:  60 TIME =     0.05 SECS, INTEGRAL =      2.22 TIME LEFT: 172797.73
 STEP:  61 TIME =     0.05 SECS, INTEGRAL =      2.27 TIME LEFT: 172797.69
 STEP:  62 TIME =     0.03 SECS, INTEGRAL =      2.30 TIME LEFT: 172797.66
 STEP:  63 TIME =     0.03 SECS, INTEGRAL =      2.33 TIME LEFT: 172797.62

(To convert to Hartree/Bohr^2, multiply by (10^(-21) x N x a0^2)/(4.184 x 627.51) =  0.0642)


           FORCE MATRIX IN MILLIDYNES/ANGSTROM


                  C  1       C  2       O  3       O  4       C  5       C  6
 ------------------------------------------------------------------------------
     C    1  11.295168
     C    2   3.404986  14.016748
     O    3   0.861994   5.695940   9.143631
     O    4   0.830659   2.469594   1.253242   8.600681
     C    5   0.123673   0.945054   0.154511   3.189274  11.689944
     C    6   0.058825   0.225057   0.075045   1.114161   3.344350  11.351593
     H    7   3.278488   0.774047   0.042329   0.024124   0.019554   0.009459
     H    8   3.271210   0.769728   0.058354   0.028888   0.022857   0.009618
     H    9   3.271028   0.784871   0.042819   0.049178   0.018400   0.007784
     H   10   0.010933   0.076838   0.018562   0.728257   3.298062   0.642774
     H   11   0.010795   0.076204   0.042404   0.655909   3.303055   0.643642
     H   12   0.007092   0.029778   0.011397   0.027194   0.704428   3.385192
     H   13   0.007328   0.030727   0.011630   0.022386   0.701245   3.371568
     H   14   0.006993   0.030022   0.010405   0.073640   0.695293   3.316267
     H   15   0.093356   0.918944   0.112813   0.183885   0.078280   0.026569
     O   16   0.067570   0.426385   1.348463   0.076274   0.036759   0.019826
     O   17   0.827117   2.498328   1.375395   2.558041   0.292304   0.099932
     H   18   0.071493   1.541719   1.827946   0.191330   0.084087   0.044015
     H   19   0.160316   1.802652   0.123158   1.255084   0.489889   0.071887
     H   20   0.013198   0.061466   0.132338   0.009623   0.005840   0.003115
     H   21   0.014437   0.067509   0.119044   0.013252   0.006131   0.003349


                  H  7       H  8       H  9       H 10       H 11       H 12
 ------------------------------------------------------------------------------
     H    7   4.092519
     H    8   0.438711   4.086398
     H    9   0.438610   0.434634   4.081571
     H   10   0.002884   0.001966   0.002088   4.145855
     H   11   0.002467   0.001996   0.001852   0.434174   4.130852
     H   12   0.001099   0.001692   0.000935   0.046359   0.014946   4.172197
     H   13   0.001636   0.001788   0.001001   0.017177   0.046777   0.449974
     H   14   0.001540   0.000991   0.001027   0.016419   0.016430   0.448405
     H   15   0.015478   0.016754   0.013155   0.010108   0.009704   0.004582
     O   16   0.019340   0.010811   0.022150   0.009702   0.008427   0.002754
     O   17   0.054147   0.022984   0.035876   0.044932   0.033296   0.014931
     H   18   0.031590   0.021126   0.041170   0.017718   0.017289   0.006015
     H   19   0.028049   0.017097   0.018374   0.068908   0.041759   0.024626
     H   20   0.004382   0.001572   0.006382   0.002359   0.002176   0.000639
     H   21   0.004743   0.001291   0.005800   0.002007   0.001690   0.000492


                  H 13       H 14       H 15       O 16       O 17       H 18
 ------------------------------------------------------------------------------
     H   13   4.169095
     H   14   0.453141   4.131680
     H   15   0.003734   0.003445   4.059103
     O   16   0.002984   0.002907   0.034983   6.088685
     O   17   0.014193   0.012903   3.523682   0.104687   7.436078
     H   18   0.006562   0.005592   0.079718   0.639792   0.252324   2.112354
     H   19   0.018568   0.014765   0.315229   0.028422   1.269082   0.071601
     H   20   0.000524   0.000414   0.005800   3.674858   0.016672   0.331943
     H   21   0.000662   0.001361   0.005349   3.696843   0.016406   0.326764


                  H 19       H 20       H 21
 ------------------------------------------
     H   19   2.633655
     H   20   0.003751   4.156696
     H   21   0.004436   0.733727   4.168514


          HEAT OF FORMATION =    -104.379822 KCALS/MOLE

          ZERO POINT ENERGY      96.798 KCAL/MOL

         NOTE: SYSTEM IS NOT A GROUND STATE, THEREFORE ZERO POINT
         ENERGY IS NOT MEANINGFULL. ZERO POINT ENERGY PRINTED
         DOES NOT INCLUDE THE  3 IMAGINARY FREQUENCIES


           NORMAL COORDINATE ANALYSIS (Total motion = 1 Angstrom)


   Root No.       1         2         3         4         5         6         7         8

                 1 A       2 A       3 A       4 A       5 A       6 A       7 A       8 A   

               -1268.0    -187.7     -14.5      37.9      77.8      82.2     119.7     150.2
  
           1    0.0001   -0.0015    0.0052   -0.0055    0.0066   -0.0121    0.0038   -0.0057
           2    0.0006   -0.0069    0.0118    0.0008    0.0186   -0.0577    0.0087    0.0010
           3    0.0052   -0.0057   -0.0309    0.0173   -0.0038   -0.0040   -0.0308    0.0278
           4    0.0007   -0.0017    0.0053   -0.0055    0.0063   -0.0128    0.0036   -0.0054
           5   -0.0024   -0.0049    0.0101   -0.0014    0.0055   -0.0135   -0.0011    0.0010
           6   -0.0622   -0.0022   -0.0237   -0.0039    0.0021   -0.0016    0.0021   -0.0052
           7    0.0004   -0.0041    0.0061   -0.0037    0.0126   -0.0384    0.0094   -0.0065
           8    0.0005   -0.0011    0.0094   -0.0028    0.0022   -0.0000   -0.0035    0.0010
           9    0.0030   -0.0021   -0.0482   -0.0030    0.0081   -0.0197    0.0082   -0.0140
          10   -0.0101    0.0024    0.0087   -0.0197   -0.0023    0.0132    0.0190   -0.0197
          11    0.0288   -0.0028   -0.0124    0.0047    0.0056   -0.0196   -0.0095    0.0058
          12   -0.0097   -0.0011   -0.0003   -0.0162   -0.0012    0.0158    0.0186   -0.0186
          13   -0.0113    0.0056    0.0180   -0.0355   -0.0071   -0.0075   -0.0116    0.0343
          14    0.0012   -0.0020   -0.0334    0.0071   -0.0003   -0.0018    0.0019   -0.0081
          15    0.0085    0.0025   -0.0015   -0.0324   -0.0085    0.0020   -0.0086    0.0318
          16   -0.0006    0.0055    0.0034    0.0436    0.0018   -0.0019   -0.0082    0.0042
          17   -0.0009   -0.0009   -0.0458   -0.0119   -0.0084    0.0077    0.0073   -0.0008
          18    0.0004    0.0010    0.0108    0.0410    0.0092   -0.0103   -0.0149    0.0041
          19   -0.0040    0.0007    0.0112   -0.0203    0.0166   -0.0145    0.0283   -0.0300
          20   -0.0025   -0.0087    0.0098   -0.0258    0.2487    0.0217   -0.0152    0.0167
          21    0.0032   -0.0071   -0.0337    0.0187    0.0317    0.0107   -0.0449    0.0406
          22    0.0026   -0.0010    0.0022   -0.0018   -0.0038    0.0170   -0.0107    0.0021
          23   -0.0003   -0.0075    0.0132    0.0106   -0.0548   -0.1029    0.0208   -0.0039
          24    0.0023   -0.0064   -0.0307    0.0490   -0.2210   -0.0930   -0.0154    0.0238
          25    0.0037   -0.0053    0.0026    0.0049    0.0122   -0.0371   -0.0065    0.0107
          26   -0.0005   -0.0075    0.0138    0.0186   -0.1220   -0.1305    0.0288   -0.0088
          27    0.0038   -0.0076   -0.0349    0.0025    0.1671    0.0671   -0.0610    0.0498
          28    0.0262    0.0089    0.0316   -0.0781   -0.0152   -0.0266   -0.0433    0.0939
          29    0.0058    0.0006   -0.0314   -0.0575   -0.0138   -0.0060   -0.0115    0.0367
          30   -0.0145    0.0030   -0.0098   -0.0777   -0.0186    0.0120   -0.0002    0.0393
          31   -0.0053    0.0050    0.0222   -0.0656   -0.0098   -0.0059   -0.0062    0.0362
          32   -0.0103   -0.0051   -0.0400    0.0876    0.0150    0.0069    0.0204   -0.0650
          33    0.0045    0.0061   -0.0021   -0.0536   -0.0170   -0.0075   -0.0318    0.0752
          34   -0.0054    0.0033   -0.0148    0.1083    0.0164    0.0210    0.1455    0.1146
          35    0.0034   -0.0030   -0.0483    0.0583    0.0075    0.0113    0.0674    0.0261
          36    0.0039   -0.0000    0.0195    0.0838    0.0191   -0.0204   -0.0408   -0.0344
          37   -0.0007    0.0062    0.0002    0.0689    0.0028   -0.0044   -0.0435   -0.0389
          38    0.0008    0.0014   -0.0362   -0.1085   -0.0282   -0.0027   -0.0854   -0.0451
          39    0.0037   -0.0019    0.0079    0.0796    0.0235    0.0020    0.1133    0.1048
          40   -0.0028    0.0073    0.0130    0.0163   -0.0072   -0.0180   -0.1293   -0.0938
          41    0.0032   -0.0004   -0.0644   -0.0030   -0.0118    0.0230    0.0468    0.0258
          42    0.0038    0.0030    0.0148    0.0153   -0.0012   -0.0222   -0.1289   -0.0901
          43    0.0296   -0.0032   -0.0006    0.0122   -0.0017    0.0002   -0.0284    0.0201
          44   -0.0053   -0.0029    0.0379   -0.0127   -0.0088    0.0474    0.0143   -0.0210
          45    0.0099   -0.0001   -0.0083   -0.0220    0.0030    0.0084    0.0326   -0.0317
          46   -0.0003   -0.0088   -0.0358    0.0128   -0.0121    0.0361    0.0009   -0.0033
          47    0.0002    0.0239    0.0188    0.0128   -0.0171    0.0539   -0.0101    0.0073
          48   -0.0001    0.0351    0.0752    0.0126   -0.0021   -0.0020    0.0041   -0.0040
          49    0.0152   -0.0024   -0.0012    0.0076   -0.0022    0.0110   -0.0157    0.0048
          50   -0.0293   -0.0034    0.0320   -0.0098   -0.0027    0.0173    0.0056   -0.0062
          51   -0.0048   -0.0016   -0.0015   -0.0166   -0.0017    0.0150    0.0170   -0.0163
          52    0.0002   -0.0038   -0.0089   -0.0003    0.0114   -0.0414    0.0128   -0.0090
          53   -0.0006   -0.0074    0.0132    0.0010    0.0010    0.0006   -0.0031    0.0015
          54    0.0148    0.0085   -0.0002    0.0025    0.0067   -0.0153    0.0070   -0.0098
          55    0.0064   -0.0000   -0.0005   -0.0034   -0.0036    0.0350    0.0208   -0.0383
          56    0.0223   -0.0040    0.0074   -0.0013   -0.0002    0.0151    0.0104   -0.0188
          57    0.7240   -0.0003    0.0153   -0.0267   -0.0033    0.0280    0.0315   -0.0276
          58   -0.0013    0.3233   -0.0290    0.0211   -0.0163    0.0507    0.0003   -0.0029
          59    0.0005    0.1910   -0.0213    0.0039   -0.0035    0.0207   -0.0045    0.0015
          60   -0.0007   -0.1929    0.1107    0.0191   -0.0139    0.0261   -0.0011    0.0014
          61    0.0007   -0.2314   -0.0567    0.0182   -0.0273    0.0863   -0.0076    0.0007
          62   -0.0011   -0.2352    0.0708    0.0145   -0.0205    0.0529   -0.0111    0.0111
          63    0.0005   -0.2321    0.0891    0.0166   -0.0129    0.0272   -0.0013    0.0002


   Root No.       9        10        11        12        13        14        15        16

                 9 A      10 A      11 A      12 A      13 A      14 A      15 A      16 A   

                 178.0     287.2     320.1     342.4     375.0     461.8     474.0     554.9
  
           1    0.0064    0.0116    0.0068    0.0114    0.0158    0.0213    0.0219   -0.0296
           2   -0.0310    0.0321    0.0149   -0.0039   -0.0435    0.0014    0.0025    0.0037
           3   -0.0197    0.0232   -0.0515   -0.0136   -0.0020   -0.0045   -0.0033   -0.0029
           4    0.0079    0.0105    0.0049    0.0092    0.0159    0.0209    0.0207   -0.0232
           5    0.0108   -0.0209   -0.0111   -0.0249    0.0219    0.0146    0.0148    0.0035
           6    0.0052    0.0062    0.0153    0.0026    0.0056    0.0202    0.0095    0.0437
           7   -0.0157   -0.0048   -0.0041    0.0229    0.0524   -0.0199   -0.0153   -0.0055
           8    0.0240   -0.0008   -0.0011   -0.0235    0.0059    0.0298    0.0264   -0.0162
           9    0.0546    0.0164    0.0260   -0.0433   -0.0003   -0.0097   -0.0350   -0.0309
          10    0.0163    0.0211   -0.0440    0.0133   -0.0294   -0.0038   -0.0010    0.0016
          11    0.0389   -0.0217   -0.0218    0.0004    0.0055    0.0101    0.0019    0.0464
          12   -0.0128    0.0100   -0.0017    0.0062   -0.0026    0.0085    0.0103    0.0101
          13    0.0203    0.0040   -0.0249   -0.0007   -0.0171   -0.0093   -0.0092    0.0123
          14   -0.0011   -0.0233   -0.0162    0.0502   -0.0130   -0.0088   -0.0050   -0.0051
          15   -0.0225   -0.0131    0.0301    0.0147    0.0073    0.0049    0.0066   -0.0160
          16   -0.0314    0.0202    0.0011   -0.0421    0.0076    0.0030   -0.0004    0.0141
          17   -0.0443   -0.0095    0.0097    0.0182    0.0053    0.0003    0.0025   -0.0120
          18    0.0142   -0.0283    0.0061    0.0523   -0.0064   -0.0046    0.0007   -0.0187
          19    0.0188    0.0027    0.0735    0.0306    0.0097    0.0477    0.0398    0.0331
          20   -0.0579    0.0512    0.0179    0.0009   -0.0762   -0.0055   -0.0061    0.0099
          21   -0.0292    0.0304   -0.0810   -0.0215   -0.0047   -0.0170   -0.0126   -0.0307
          22    0.0304   -0.0266   -0.0353   -0.0092    0.0771    0.0223    0.0263   -0.0572
          23   -0.0402    0.0525    0.0260    0.0028   -0.0751   -0.0022   -0.0006    0.0072
          24   -0.0154    0.0318   -0.0759   -0.0202   -0.0054   -0.0156   -0.0080   -0.0337
          25   -0.0292    0.0556   -0.0204    0.0112   -0.0387   -0.0013    0.0026   -0.0660
          26   -0.0358    0.0504    0.0291    0.0029   -0.0734   -0.0009   -0.0001    0.0083
          27   -0.0370    0.0314   -0.0863   -0.0222   -0.0043   -0.0174   -0.0140   -0.0330
          28    0.0390   -0.0186   -0.0058   -0.0138   -0.0085   -0.0116   -0.0184    0.0207
          29   -0.0036   -0.0323    0.0008    0.0445   -0.0082   -0.0109   -0.0085   -0.0110
          30   -0.0394   -0.0069    0.0341    0.0201    0.0042    0.0024    0.0081   -0.0286
          31    0.0339    0.0054   -0.0348    0.0025   -0.0206   -0.0076   -0.0084    0.0215
          32   -0.0102   -0.0104   -0.0294    0.0542   -0.0160   -0.0038    0.0028   -0.0088
          33   -0.0367   -0.0253    0.0575    0.0052    0.0168   -0.0010   -0.0006   -0.0282
          34   -0.0308    0.0244    0.0163   -0.0654    0.0204    0.0098    0.0042    0.0188
          35   -0.0267   -0.0166    0.0024    0.0297    0.0029   -0.0018    0.0011   -0.0121
          36    0.0348   -0.0397   -0.0126    0.0828   -0.0180   -0.0120   -0.0042   -0.0238
          37   -0.0619    0.0316    0.0136   -0.0673    0.0223    0.0107    0.0052    0.0201
          38   -0.0469   -0.0094    0.0058    0.0248   -0.0027   -0.0026    0.0003   -0.0133
          39    0.0624   -0.0450   -0.0098    0.0829   -0.0217   -0.0131   -0.0055   -0.0242
          40   -0.0509    0.0253   -0.0008   -0.0427    0.0085    0.0032    0.0001    0.0146
          41   -0.0970    0.0134    0.0455   -0.0445    0.0360    0.0189    0.0153   -0.0002
          42   -0.0226   -0.0167    0.0151    0.0337    0.0034    0.0013    0.0051   -0.0157
          43    0.0063   -0.0268    0.0969   -0.0099   -0.0035    0.0217    0.0201    0.0812
          44   -0.0233   -0.0454    0.0118   -0.0398   -0.0481   -0.0862   -0.0846   -0.0461
          45   -0.0036    0.0321   -0.0639    0.0181    0.0065    0.0000   -0.0060   -0.0531
          46   -0.0080   -0.0351   -0.0093   -0.0125   -0.0066   -0.0064   -0.0030    0.0165
          47    0.0183    0.0651    0.0183    0.0252    0.0175   -0.0058   -0.0062   -0.0045
          48   -0.0032   -0.0197   -0.0051   -0.0098   -0.0049   -0.0094    0.0094    0.0041
          49    0.0094   -0.0149    0.0631    0.0033   -0.0290   -0.0079   -0.0088    0.0138
          50   -0.0143   -0.0353   -0.0002   -0.0370    0.0053   -0.0264   -0.0241   -0.0211
          51   -0.0158    0.0026   -0.0052   -0.0036    0.0072    0.0052    0.0023    0.0328
          52   -0.0200   -0.0050   -0.0028    0.0284    0.0686   -0.0508   -0.0982    0.0237
          53    0.0157   -0.0258   -0.0103   -0.0371    0.0047    0.0068    0.0447    0.0050
          54    0.0332    0.0136    0.0181   -0.0235    0.0065   -0.1466    0.1139   -0.0117
          55    0.0091    0.0135   -0.0175    0.0261   -0.0739   -0.0447   -0.0422   -0.0266
          56    0.0088   -0.0245   -0.0302   -0.0161   -0.0255   -0.0306   -0.0320    0.0068
          57   -0.0314    0.0098   -0.0096   -0.0187    0.0068    0.0050   -0.0034    0.0092
          58   -0.0312   -0.0714   -0.0279   -0.0152   -0.0644    0.2102   -0.0718   -0.0934
          59    0.0303    0.0611    0.0246    0.0053    0.0384   -0.1635    0.0964    0.0468
          60   -0.0099   -0.0159   -0.0095    0.0037   -0.0176    0.1027   -0.0659   -0.0255
          61    0.0153   -0.0262   -0.0006   -0.0396   -0.0595   -0.0338    0.1952   -0.0946
          62    0.0056    0.0748    0.0143    0.0549    0.0500    0.0705   -0.1720    0.0508
          63    0.0046   -0.0032    0.0002   -0.0063   -0.0159    0.0050    0.0374   -0.0307


   Root No.      17        18        19        20        21        22        23        24

                17 A      18 A      19 A      20 A      21 A      22 A      23 A      24 A   

                 576.2     596.7     647.4     852.0     864.4     877.3     973.9    1002.0
  
           1   -0.0080   -0.0077    0.0472    0.0192   -0.0159    0.0089   -0.0191    0.0466
           2   -0.0030   -0.0001   -0.0031   -0.0105    0.0083   -0.0084   -0.0239    0.0297
           3   -0.0008   -0.0004   -0.0007   -0.0081    0.0015    0.0358   -0.0054    0.0012
           4   -0.0056   -0.0052    0.0318    0.0065   -0.0038    0.0035    0.0125   -0.0143
           5   -0.0230    0.0109   -0.0320   -0.0233    0.0165   -0.0133   -0.0174    0.0043
           6    0.0146    0.0232    0.0021   -0.0153    0.0002    0.0672   -0.0058   -0.0033
           7    0.0278    0.0110   -0.0339   -0.0080    0.0059   -0.0037    0.0072   -0.0214
           8   -0.0318    0.0033   -0.0010   -0.0162    0.0119   -0.0086    0.0157   -0.0386
           9    0.0013   -0.0144   -0.0016   -0.0015    0.0011   -0.0031   -0.0013   -0.0008
          10   -0.0157   -0.0208   -0.0328   -0.0003   -0.0147    0.0159   -0.0209   -0.0192
          11    0.0237    0.0178   -0.0011    0.0428   -0.0258   -0.0111    0.0086    0.0133
          12   -0.0188    0.0035   -0.0418    0.0105   -0.0124   -0.0218    0.0390    0.0354
          13    0.0149   -0.0068    0.0088    0.0000    0.0332   -0.0023    0.0161    0.0064
          14    0.0088   -0.0137    0.0144   -0.0179    0.0059    0.0027    0.0029    0.0014
          15   -0.0212    0.0067   -0.0198    0.0287    0.0044    0.0111   -0.0125   -0.0043
          16    0.0065    0.0059    0.0009   -0.0038    0.0158    0.0054    0.0138    0.0183
          17   -0.0045   -0.0067    0.0018   -0.0065    0.0030   -0.0035    0.0105    0.0062
          18   -0.0085   -0.0061   -0.0005    0.0136    0.0004   -0.0029   -0.0190   -0.0175
          19    0.0133    0.0200    0.0661   -0.0104   -0.0153    0.2019   -0.0062    0.0193
          20    0.0024   -0.0092    0.0167    0.0173   -0.0138    0.0114    0.0330   -0.0495
          21   -0.0098   -0.0145   -0.0059    0.0107   -0.0027   -0.0526    0.0017   -0.0042
          22   -0.0320   -0.0011    0.0031   -0.0186    0.0219   -0.0894   -0.1099    0.1757
          23    0.0045   -0.0081    0.0196    0.0175   -0.0137    0.0113    0.0329   -0.0481
          24   -0.0098   -0.0138    0.0000    0.0168   -0.0075   -0.0519    0.0075   -0.0067
          25   -0.0097   -0.0409    0.0824    0.0944   -0.0597   -0.0759    0.0877   -0.0681
          26    0.0023   -0.0065    0.0209    0.0165   -0.0135    0.0158    0.0293   -0.0389
          27   -0.0084   -0.0162   -0.0049    0.0153   -0.0059   -0.0548    0.0055    0.0009
          28    0.0351    0.0298    0.0455   -0.0614   -0.0622   -0.0091   -0.0472   -0.0229
          29    0.0134    0.0018    0.0334   -0.1045   -0.1024   -0.0224    0.0005   -0.0031
          30   -0.0289   -0.0020   -0.0215   -0.0510   -0.0679   -0.0185    0.0404    0.0191
          31    0.0136   -0.0017   -0.0046   -0.0251   -0.0443   -0.0138    0.0125   -0.0061
          32   -0.0075   -0.0351   -0.0121    0.0952    0.1487    0.0417   -0.0092   -0.0076
          33   -0.0077    0.0198    0.0200   -0.0370   -0.0250   -0.0115   -0.0025    0.0173
          34    0.0018    0.0203   -0.0112    0.0247   -0.0391   -0.0179   -0.0307   -0.0321
          35    0.0016   -0.0118    0.0137   -0.0792   -0.0670   -0.0156    0.0395    0.0174
          36    0.0019   -0.0231    0.0233   -0.1067   -0.0584   -0.0071    0.0559    0.0350
          37    0.0038    0.0185   -0.0067   -0.0183   -0.0908   -0.0270   -0.0151   -0.0276
          38   -0.0071   -0.0097   -0.0038    0.0643    0.1178    0.0265   -0.0069    0.0136
          39   -0.0022   -0.0208    0.0141   -0.0281    0.0476    0.0193    0.0342    0.0384
          40    0.0082    0.0054    0.0031   -0.0354   -0.0329   -0.0100    0.0243    0.0154
          41   -0.0217    0.0263   -0.0347    0.1021   -0.0706   -0.0221   -0.1251   -0.1197
          42   -0.0126    0.0019   -0.0083    0.0053   -0.0668   -0.0172   -0.0412   -0.0484
          43    0.0310   -0.2149   -0.0640   -0.0179   -0.0096   -0.0046   -0.0390    0.0004
          44    0.0325    0.1012    0.0421    0.0306   -0.0093   -0.0224   -0.0135    0.0261
          45   -0.0159    0.2562    0.1104   -0.0014    0.0341    0.0038    0.0619   -0.0422
          46   -0.0416   -0.0042    0.0168    0.0009   -0.0007    0.0015    0.0030   -0.0012
          47    0.0205    0.0008   -0.0061    0.0001   -0.0001   -0.0001   -0.0022    0.0017
          48   -0.0123   -0.0005    0.0054    0.0001   -0.0003    0.0017    0.0002   -0.0037
          49   -0.0018    0.0211   -0.0099   -0.0028    0.0092   -0.0206    0.0079   -0.0057
          50    0.0180   -0.0226    0.0124    0.0102   -0.0114    0.0385    0.0074    0.0049
          51    0.0373   -0.0181    0.0480   -0.0104    0.0156   -0.0533   -0.0175   -0.0178
          52   -0.0012    0.0032   -0.0492    0.0016   -0.0003   -0.0047   -0.0046    0.0018
          53   -0.0606    0.0038   -0.0090   -0.0278    0.0218   -0.0300   -0.0200   -0.0039
          54    0.0482    0.0041   -0.0224    0.0062   -0.0011   -0.0152    0.0167    0.0672
          55   -0.0332    0.1657   -0.0260   -0.0236   -0.0182   -0.0172   -0.0970    0.0227
          56    0.0046    0.0999    0.0014   -0.0224    0.0024   -0.0222   -0.0877    0.0149
          57    0.0101   -0.0150    0.0054   -0.0328    0.0120    0.0998    0.0036   -0.0032
          58    0.1686    0.0193   -0.0735   -0.0038    0.0045   -0.0122   -0.0003    0.0139
          59   -0.0777   -0.0079    0.0372   -0.0007   -0.0008    0.0070   -0.0078   -0.0150
          60    0.0388    0.0039   -0.0188   -0.0013    0.0016   -0.0054    0.0024    0.0084
          61    0.2063    0.0288   -0.0722   -0.0035    0.0010    0.0038   -0.0077   -0.0184
          62   -0.1094   -0.0177    0.0349   -0.0007    0.0018   -0.0071   -0.0001    0.0168
          63    0.0677    0.0089   -0.0250   -0.0001   -0.0004    0.0016   -0.0014   -0.0041


   Root No.      25        26        27        28        29        30        31        32

                25 A      26 A      27 A      28 A      29 A      30 A      31 A      32 A   

                1025.6    1034.3    1073.6    1099.6    1120.7    1137.5    1167.1    1172.3
  
           1   -0.0071    0.0105   -0.0004    0.0155   -0.0098   -0.0042    0.0112    0.0280
           2    0.0018   -0.0204    0.0042   -0.0107    0.0132    0.0085   -0.0061   -0.0163
           3    0.0094    0.0008    0.0317    0.0143   -0.0060   -0.0196    0.0007   -0.0148
           4    0.0035   -0.0059    0.0031   -0.0152    0.0099    0.0076   -0.0113   -0.0309
           5   -0.0011   -0.0007   -0.0141    0.0087   -0.0251   -0.0229    0.0073    0.0313
           6   -0.0076   -0.0005   -0.0340   -0.0114    0.0176    0.0323   -0.0055    0.0278
           7   -0.0001    0.0063    0.0030    0.0042    0.0104    0.0075   -0.0014   -0.0073
           8    0.0044    0.0132    0.0117    0.0085    0.0191    0.0151    0.0008   -0.0073
           9   -0.0063   -0.0020    0.0041   -0.0004   -0.0033   -0.0022    0.0010   -0.0026
          10    0.0036   -0.0098   -0.0208    0.0024    0.0128   -0.0231   -0.0139   -0.0027
          11   -0.0047   -0.0017   -0.0058    0.0054    0.0044   -0.0077   -0.0101   -0.0186
          12   -0.0060    0.0092    0.0298   -0.0169    0.0003    0.0035    0.0082    0.0104
          13    0.0062   -0.0091    0.0300    0.0042   -0.0216    0.0333   -0.0174    0.0201
          14    0.0007    0.0009    0.0041   -0.0082    0.0049    0.0122    0.0852    0.0102
          15   -0.0023   -0.0063   -0.0343    0.0338   -0.0071    0.0063    0.0092   -0.0210
          16   -0.0105    0.0136   -0.0159   -0.0044    0.0137   -0.0178    0.0324   -0.0139
          17   -0.0022    0.0002    0.0040    0.0016   -0.0053   -0.0078   -0.0813   -0.0008
          18    0.0063    0.0018    0.0205   -0.0211    0.0045   -0.0098   -0.0089    0.0057
          19    0.0365    0.0293    0.1290    0.0661   -0.0462   -0.0776    0.0087   -0.0191
          20    0.0001    0.0271   -0.0162    0.0164   -0.0259   -0.0236    0.0105    0.0472
          21   -0.0125   -0.0021   -0.0396   -0.0122    0.0094    0.0174    0.0011    0.0167
          22   -0.0130   -0.0768   -0.0166   -0.0500    0.0489    0.0491   -0.0111   -0.0127
          23   -0.0012    0.0256   -0.0185    0.0101   -0.0140   -0.0046    0.0026    0.0250
          24   -0.0114    0.0023   -0.0601   -0.0191    0.0109    0.0321   -0.0054    0.0486
          25   -0.0435    0.0725   -0.1019   -0.0026   -0.0374    0.0225    0.0205    0.0812
          26   -0.0018    0.0248    0.0027    0.0171   -0.0270   -0.0282    0.0120    0.0097
          27   -0.0156   -0.0024   -0.0517   -0.0259    0.0173    0.0418   -0.0099    0.0135
          28   -0.0087    0.0532    0.0225   -0.1001    0.0432   -0.0271   -0.0846    0.0733
          29   -0.0004    0.0096   -0.0002   -0.0326    0.0279   -0.0260    0.1490   -0.0075
          30    0.0062   -0.0391   -0.0288    0.0746   -0.0240    0.0049    0.1725   -0.0798
          31    0.0185   -0.0452    0.0237    0.0378   -0.0409    0.0426    0.0775   -0.0205
          32    0.0049   -0.0146   -0.0110    0.0408   -0.0350    0.0657   -0.0025    0.0251
          33   -0.0242    0.0615   -0.0127   -0.0622    0.0599   -0.0665   -0.0693    0.0191
          34    0.0195   -0.0128    0.0437   -0.0166   -0.0098    0.0255    0.0455    0.0183
          35    0.0008   -0.0295   -0.0143    0.0534   -0.0376    0.0322   -0.1399    0.0108
          36   -0.0100   -0.0222   -0.0428    0.0626   -0.0283    0.0157   -0.1258   -0.0038
          37    0.0222   -0.0337    0.0272    0.0190   -0.0275    0.0468   -0.0035    0.0231
          38   -0.0189    0.0486    0.0031   -0.0628    0.0449   -0.0694    0.0280   -0.0151
          39   -0.0240    0.0224   -0.0431    0.0073    0.0161   -0.0385   -0.0291   -0.0322
          40   -0.0008   -0.0112   -0.0082    0.0278   -0.0165    0.0201   -0.0173   -0.0063
          41    0.0539   -0.0372    0.0844   -0.0483   -0.0098    0.0332    0.0368    0.0556
          42    0.0263   -0.0315    0.0312    0.0068   -0.0239    0.0351   -0.0170    0.0206
          43   -0.0164    0.0514   -0.0079   -0.0218   -0.0345    0.0338   -0.0053   -0.0348
          44   -0.0075    0.0076    0.0564    0.1760    0.1973    0.0078   -0.0124    0.0887
          45    0.0317   -0.0992   -0.0450   -0.0881   -0.0683   -0.0547    0.0094   -0.0117
          46    0.0059    0.0014    0.0009   -0.0013    0.0048    0.0047   -0.0015   -0.0042
          47   -0.0022   -0.0011   -0.0011   -0.0002   -0.0012   -0.0010   -0.0003   -0.0003
          48   -0.0140   -0.0026    0.0033    0.0001    0.0007    0.0008    0.0001   -0.0009
          49    0.0042   -0.0153   -0.0037   -0.0045   -0.0042   -0.0115    0.0023    0.0041
          50    0.0013   -0.0061   -0.0063   -0.0207   -0.0119    0.0034   -0.0005   -0.0089
          51    0.0027    0.0017   -0.0008    0.0106   -0.0034   -0.0109   -0.0010   -0.0086
          52   -0.0597   -0.0053    0.0061    0.0218   -0.0662   -0.0677    0.0339    0.0883
          53    0.0321    0.0161   -0.0245    0.0295   -0.0490   -0.0553    0.0213    0.0649
          54    0.3252    0.0637   -0.0664   -0.0047    0.0065    0.0039   -0.0070    0.0145
          55   -0.0452    0.1526    0.0082   -0.0076   -0.0711    0.0900   -0.0225   -0.0985
          56   -0.0285    0.0961   -0.0125    0.0092   -0.0810    0.0423   -0.0078   -0.0443
          57   -0.0080   -0.0083   -0.0223   -0.0228    0.0106    0.0427    0.0002    0.0429
          58    0.0644    0.0141   -0.0148    0.0052   -0.0111   -0.0125    0.0044    0.0164
          59   -0.0812   -0.0167    0.0116    0.0022   -0.0068   -0.0067    0.0029    0.0024
          60    0.0474    0.0098   -0.0084   -0.0003    0.0032    0.0030   -0.0020   -0.0017
          61   -0.0949   -0.0163    0.0147    0.0063   -0.0149   -0.0149    0.0076    0.0130
          62    0.0756    0.0133   -0.0162    0.0002   -0.0013   -0.0030   -0.0008    0.0043
          63   -0.0253   -0.0045    0.0045    0.0022   -0.0057   -0.0060    0.0034    0.0067


   Root No.      33        34        35        36        37        38        39        40

                33 A      34 A      35 A      36 A      37 A      38 A      39 A      40 A   

                1177.0    1209.6    1216.2    1242.5    1260.7    1298.4    1314.4    1323.1
  
           1   -0.0057   -0.0046   -0.0043   -0.0002    0.0011   -0.0058    0.0472    0.0097
           2    0.0033   -0.0069   -0.0310    0.0002   -0.0006   -0.0004   -0.0026    0.0006
           3    0.0107   -0.0261    0.0073    0.0000   -0.0002    0.0026    0.0009   -0.0011
           4    0.0060    0.0045    0.0096   -0.0002   -0.0010    0.0083   -0.0248   -0.0058
           5   -0.0071   -0.0020   -0.0114    0.0006   -0.0001    0.0035    0.0017   -0.0032
           6   -0.0215   -0.0139    0.0045    0.0008   -0.0002   -0.0098   -0.0059    0.0046
           7    0.0014    0.0009   -0.0001   -0.0005   -0.0001    0.0005    0.0095    0.0003
           8    0.0012   -0.0012    0.0030   -0.0003    0.0006   -0.0056    0.0039    0.0026
           9    0.0011    0.0015   -0.0006   -0.0003    0.0002    0.0019    0.0019   -0.0012
          10    0.0066   -0.0002   -0.0020    0.0028   -0.0040   -0.0080    0.0012    0.0058
          11    0.0024    0.0027    0.0019    0.0004   -0.0019   -0.0053   -0.0008    0.0071
          12    0.0106    0.0015    0.0001   -0.0012    0.0039    0.0137    0.0018   -0.0058
          13   -0.0022   -0.0024    0.0000   -0.0054    0.0046   -0.0262   -0.0034    0.0154
          14    0.0378    0.0022   -0.0015    0.0012    0.0017   -0.0251    0.0018   -0.0253
          15    0.0354    0.0039    0.0011   -0.0012   -0.0080    0.0186    0.0026   -0.0231
          16   -0.0106    0.0010    0.0000   -0.0288    0.0186    0.0085    0.0014   -0.0102
          17   -0.0333   -0.0028    0.0009    0.0025    0.0191    0.0046   -0.0002    0.0126
          18   -0.0430   -0.0031   -0.0003   -0.0175   -0.0217   -0.0070   -0.0015    0.0145
          19    0.0208    0.1617   -0.0941   -0.0004    0.0001    0.0176   -0.1319   -0.0331
          20   -0.0121    0.1689    0.3260   -0.0023    0.0029   -0.0008   -0.0028   -0.0026
          21   -0.0076   -0.0507    0.1006   -0.0003    0.0006   -0.0073    0.0656    0.0152
          22   -0.0021   -0.0015    0.1677    0.0003    0.0008   -0.0013   -0.1481   -0.0252
          23   -0.0132    0.1204   -0.0727   -0.0008   -0.0001   -0.0022    0.0689    0.0131
          24   -0.0343    0.3319    0.0535   -0.0021    0.0010   -0.0034   -0.0228   -0.0029
          25   -0.0293   -0.1506   -0.0946    0.0026    0.0004    0.0006   -0.1381   -0.0285
          26    0.0104   -0.1807    0.1670    0.0009    0.0010    0.0030   -0.0500   -0.0123
          27   -0.0219    0.1037   -0.2713    0.0009   -0.0020   -0.0007   -0.0466   -0.0070
          28    0.0889   -0.0052   -0.0018    0.0055    0.0013    0.3123    0.0157   -0.0395
          29   -0.0419   -0.0002   -0.0009    0.0050   -0.0081    0.1777   -0.0135    0.1159
          30   -0.1330    0.0031    0.0024   -0.0075   -0.0169   -0.0067   -0.0303    0.1844
          31   -0.1538   -0.0089    0.0037   -0.0220    0.0216    0.0300    0.0222   -0.1572
          32    0.1119    0.0028    0.0012    0.0034   -0.0219    0.2349   -0.0180    0.1448
          33    0.1759    0.0126   -0.0063    0.0184   -0.0129   -0.2623   -0.0189    0.0975
          34   -0.0118    0.0001    0.0021    0.2619   -0.2401   -0.0118    0.0018   -0.0047
          35    0.0357   -0.0011    0.0026    0.0196   -0.1605    0.0026    0.0107   -0.0775
          36    0.0410   -0.0005    0.0011   -0.1606   -0.0578    0.0071    0.0104   -0.0881
          37    0.0537    0.0001   -0.0006   -0.1363   -0.0678   -0.0097   -0.0093    0.0675
          38   -0.1242   -0.0047    0.0015    0.0480   -0.2118    0.0033    0.0139   -0.0955
          39   -0.0403    0.0008    0.0001    0.1417    0.2862    0.0171    0.0043   -0.0280
          40    0.0198    0.0029    0.0018    0.2617    0.0683    0.0077    0.0021   -0.0082
          41   -0.0065   -0.0070   -0.0059   -0.1286    0.1861   -0.0340    0.0036   -0.0578
          42    0.0081   -0.0009   -0.0006    0.2390    0.1071   -0.0131    0.0017   -0.0158
          43   -0.0028    0.0027    0.0067   -0.0017   -0.0001   -0.0063   -0.0045    0.0019
          44   -0.0328   -0.0112   -0.0024    0.0026   -0.0001    0.0120   -0.0360   -0.0082
          45    0.0234    0.0016   -0.0057    0.0019   -0.0009   -0.0029    0.0257    0.0050
          46    0.0001    0.0002    0.0004   -0.0002    0.0001   -0.0002    0.0059    0.0004
          47   -0.0000    0.0001    0.0001   -0.0001   -0.0000    0.0001    0.0058    0.0003
          48    0.0003    0.0004    0.0001    0.0000   -0.0001   -0.0002    0.0005    0.0000
          49    0.0031    0.0005   -0.0030    0.0003    0.0001    0.0004    0.0040    0.0002
          50    0.0023    0.0002    0.0018   -0.0001   -0.0001   -0.0007    0.0026    0.0009
          51    0.0036    0.0025   -0.0016    0.0002   -0.0006    0.0001    0.0007   -0.0003
          52   -0.0004   -0.0133    0.0012    0.0060    0.0015   -0.0316   -0.0929    0.0147
          53   -0.0059   -0.0097   -0.0099    0.0028   -0.0003   -0.0005   -0.0717   -0.0036
          54   -0.0061   -0.0137    0.0019    0.0008   -0.0003   -0.0052   -0.0170    0.0005
          55   -0.0100    0.0099    0.0184   -0.0070    0.0002   -0.0132   -0.0200    0.0014
          56   -0.0223    0.0038    0.0001   -0.0043   -0.0017   -0.0226    0.0012    0.0087
          57   -0.0321   -0.0136    0.0051    0.0015   -0.0001   -0.0193   -0.0062    0.0129
          58   -0.0013   -0.0029   -0.0002    0.0008   -0.0003    0.0014   -0.0417   -0.0033
          59    0.0010    0.0028   -0.0011    0.0004   -0.0005    0.0064   -0.0416   -0.0059
          60   -0.0010   -0.0017    0.0004   -0.0005    0.0002   -0.0027    0.0346    0.0035
          61    0.0010    0.0005    0.0004    0.0006   -0.0001   -0.0001   -0.0248   -0.0008
          62   -0.0013   -0.0006   -0.0012    0.0004   -0.0010    0.0077   -0.0552   -0.0081
          63    0.0003    0.0000    0.0002    0.0006   -0.0003    0.0005   -0.0316   -0.0020


   Root No.      41        42        43        44        45        46        47        48

                41 A      42 A      43 A      44 A      45 A      46 A      47 A      48 A   

                1341.2    1352.3    1370.5    1421.9    1863.4    2091.2    2626.8    2630.1
  
           1    0.0139    0.0119    0.0010   -0.0163    0.0064   -0.0032   -0.0004    0.0004
           2    0.0025    0.0131    0.0010   -0.0028    0.0054    0.0018   -0.0445   -0.0059
           3   -0.0005   -0.0024   -0.0001   -0.0006   -0.0006   -0.0001    0.0070   -0.0399
           4    0.0088   -0.0055    0.0013    0.0909   -0.0309    0.0218   -0.0001    0.0002
           5   -0.0115   -0.0560   -0.0042    0.0301   -0.0634   -0.0326   -0.0033   -0.0004
           6    0.0014    0.0044    0.0008    0.0063    0.0032    0.0009    0.0004   -0.0025
           7   -0.0011   -0.0174   -0.0010   -0.0206    0.0334   -0.0007    0.0004    0.0001
           8    0.0032    0.0396    0.0016   -0.0370   -0.0060    0.0045    0.0003    0.0000
           9   -0.0009   -0.0087   -0.0006    0.0007    0.0072   -0.0004    0.0000   -0.0000
          10   -0.0019   -0.0005   -0.0005   -0.0091   -0.0000    0.0082   -0.0001   -0.0002
          11    0.0018    0.0031    0.0045   -0.0009    0.0062   -0.0105    0.0000    0.0001
          12    0.0014   -0.0034    0.0005    0.0053    0.0034    0.0149    0.0001    0.0002
          13   -0.0002   -0.0087    0.0125    0.0046    0.0009   -0.0047   -0.0003    0.0015
          14    0.0003   -0.0031   -0.0200    0.0074   -0.0008    0.0002    0.0001   -0.0002
          15    0.0006    0.0090   -0.0179   -0.0007   -0.0018    0.0028   -0.0002    0.0014
          16    0.0005    0.0028    0.0069   -0.0015   -0.0003    0.0009    0.0002   -0.0009
          17   -0.0001    0.0037   -0.0340   -0.0018    0.0012   -0.0003    0.0001   -0.0002
          18   -0.0006   -0.0014   -0.0181    0.0006    0.0006   -0.0005   -0.0000   -0.0001
          19   -0.0811   -0.0513   -0.0079   -0.1027   -0.0024   -0.0022   -0.0598    0.1539
          20   -0.0125   -0.0300   -0.0022   -0.0127   -0.0052   -0.0013   -0.0001   -0.0639
          21    0.0367    0.0173    0.0033    0.0485    0.0032    0.0018   -0.1322    0.3308
          22   -0.0730   -0.0011   -0.0037   -0.1218    0.0210    0.0030    0.1858   -0.0361
          23    0.0348    0.0075    0.0021    0.0560   -0.0083   -0.0061    0.3695   -0.0789
          24   -0.0122   -0.0001   -0.0009   -0.0190    0.0028    0.0019   -0.1376    0.0071
          25   -0.0855   -0.0812   -0.0099   -0.0915   -0.0122   -0.0057   -0.1201   -0.1237
          26   -0.0366   -0.0468   -0.0045   -0.0399   -0.0111   -0.0040    0.1888    0.2170
          27   -0.0195    0.0028   -0.0011   -0.0226   -0.0033   -0.0024    0.1830    0.1643
          28    0.0001    0.0261   -0.0187   -0.0114    0.0023    0.0120    0.0016   -0.0068
          29   -0.0050   -0.0061    0.0552   -0.0054   -0.0059    0.0019   -0.0026    0.0116
          30   -0.0057   -0.0248    0.1009   -0.0012   -0.0028   -0.0069    0.0019   -0.0089
          31    0.0058    0.0283   -0.0854    0.0033    0.0016    0.0003    0.0014   -0.0127
          32   -0.0061   -0.0082    0.0734   -0.0042   -0.0059    0.0007    0.0008   -0.0081
          33   -0.0034   -0.0379    0.0453    0.0078   -0.0044    0.0026    0.0008   -0.0087
          34   -0.0004   -0.0046   -0.0033    0.0027    0.0009   -0.0023    0.0002    0.0009
          35    0.0031    0.0011    0.1185   -0.0055    0.0001   -0.0006   -0.0003   -0.0027
          36    0.0037    0.0012    0.1691   -0.0082   -0.0019    0.0006    0.0002    0.0022
          37   -0.0027    0.0006   -0.1331    0.0073    0.0018   -0.0019   -0.0012    0.0068
          38    0.0035    0.0003    0.1481   -0.0080    0.0005   -0.0009   -0.0007    0.0038
          39    0.0015    0.0029    0.0527   -0.0049    0.0000    0.0007   -0.0009    0.0047
          40    0.0005    0.0005    0.0086   -0.0008   -0.0004    0.0020   -0.0007    0.0052
          41    0.0022   -0.0193    0.1868    0.0015   -0.0017   -0.0019   -0.0002    0.0014
          42    0.0004   -0.0085    0.0538    0.0020    0.0006   -0.0018    0.0008   -0.0055
          43    0.0017    0.0139    0.0025   -0.0005   -0.0137    0.0343    0.0021   -0.0058
          44   -0.0013   -0.0358   -0.0018    0.0873   -0.0329    0.0300    0.0007   -0.0028
          45   -0.0022    0.0171   -0.0011   -0.0606    0.0106    0.0203    0.0015   -0.0040
          46   -0.0130   -0.0007   -0.0000   -0.0026   -0.0045    0.0001    0.0006    0.0013
          47   -0.0281    0.0001    0.0005    0.0082    0.0020    0.0001   -0.0005   -0.0011
          48    0.0014    0.0003    0.0000   -0.0021   -0.0023    0.0001   -0.0029   -0.0060
          49   -0.0018   -0.0020   -0.0006   -0.0101    0.0016    0.0039   -0.0004    0.0005
          50    0.0018    0.0024    0.0002   -0.0036    0.0084   -0.0127    0.0000    0.0001
          51   -0.0015    0.0021   -0.0003   -0.0053   -0.0040   -0.0170   -0.0003    0.0003
          52    0.0091    0.3571    0.0207    0.0533   -0.2004    0.0212    0.0002    0.0003
          53    0.0170    0.0729    0.0064    0.1358    0.5585   -0.0125    0.0019   -0.0004
          54    0.0164    0.0525    0.0019   -0.0020   -0.0936    0.0046   -0.0008   -0.0009
          55    0.0100    0.0266    0.0080    0.0368   -0.0090   -0.4191   -0.0014   -0.0001
          56   -0.0041   -0.0278    0.0053    0.0047   -0.0083    0.6595    0.0023    0.0004
          57    0.0010   -0.0031    0.0019    0.0099    0.0050   -0.0204   -0.0001    0.0001
          58    0.1471   -0.0046   -0.0021   -0.0206   -0.0023    0.0002    0.0046    0.0095
          59    0.1923   -0.0542   -0.0050   -0.0312    0.0293   -0.0017    0.0211    0.0435
          60   -0.1680    0.0262    0.0038    0.0417    0.0675   -0.0022    0.0218    0.0456
          61    0.0738    0.0107   -0.0002   -0.0076    0.0123   -0.0001   -0.0142   -0.0300
          62    0.2575   -0.0677   -0.0070   -0.0453    0.0079   -0.0009   -0.0122   -0.0259
          63    0.1358   -0.0039   -0.0020   -0.0340   -0.0682    0.0025    0.0239    0.0502


   Root No.      49        50        51        52        53        54        55        56

                49 A      50 A      51 A      52 A      53 A      54 A      55 A      56 A   

                2631.3    2632.3    2650.9    2664.7    2670.5    2708.6    2762.1    2773.8
  
           1    0.0000    0.0000    0.0000    0.0001   -0.0005   -0.0004   -0.0212   -0.0014
           2    0.0004    0.0043   -0.0001    0.0000   -0.0004   -0.0002    0.0001    0.0000
           3   -0.0013    0.0072    0.0006   -0.0001   -0.0001    0.0000   -0.0006   -0.0000
           4   -0.0000    0.0000    0.0001    0.0001   -0.0072   -0.0011   -0.0075   -0.0004
           5    0.0001    0.0005    0.0001   -0.0001    0.0051    0.0004   -0.0002   -0.0003
           6    0.0001    0.0004    0.0000    0.0001   -0.0084    0.0003    0.0002   -0.0002
           7   -0.0000   -0.0001   -0.0000   -0.0000    0.0003    0.0001    0.0007    0.0000
           8    0.0000    0.0000   -0.0000    0.0000   -0.0014   -0.0002    0.0009    0.0002
           9   -0.0000    0.0000    0.0000   -0.0000   -0.0000   -0.0000    0.0000    0.0000
          10   -0.0005    0.0001    0.0005   -0.0003   -0.0006   -0.0015    0.0006   -0.0003
          11    0.0003   -0.0001    0.0001    0.0001    0.0001   -0.0014   -0.0001   -0.0000
          12   -0.0009    0.0001   -0.0007   -0.0005    0.0017    0.0015   -0.0004    0.0005
          13   -0.0256    0.0030   -0.0019   -0.0137    0.0013   -0.0069   -0.0002    0.0015
          14    0.0048   -0.0005    0.0024    0.0021    0.0029   -0.0310    0.0007   -0.0062
          15   -0.0227    0.0027    0.0010   -0.0120   -0.0011    0.0026    0.0003   -0.0030
          16    0.0105   -0.0013   -0.0270   -0.0281   -0.0003   -0.0021   -0.0003    0.0050
          17   -0.0020    0.0000   -0.0240    0.0065    0.0001   -0.0051    0.0012   -0.0182
          18    0.0085   -0.0006    0.0245   -0.0253   -0.0002    0.0023    0.0005   -0.0104
          19    0.0052   -0.0256   -0.0027   -0.0001    0.0153    0.0027    0.1083    0.0071
          20   -0.0019    0.0125    0.0010    0.0000   -0.0056   -0.0013   -0.0450   -0.0029
          21    0.0115   -0.0551   -0.0058   -0.0002    0.0311    0.0071    0.2626    0.0168
          22   -0.0034   -0.0069    0.0009   -0.0005    0.0053    0.0034    0.1084    0.0072
          23   -0.0070   -0.0125    0.0019   -0.0012    0.0181    0.0082    0.2421    0.0155
          24    0.0020    0.0089   -0.0004    0.0004   -0.0075   -0.0029   -0.0879   -0.0057
          25   -0.0021    0.0321    0.0012   -0.0002    0.0066    0.0031    0.1050    0.0062
          26    0.0040   -0.0549   -0.0021    0.0005   -0.0139   -0.0057   -0.1976   -0.0119
          27    0.0025   -0.0444   -0.0014    0.0004   -0.0127   -0.0046   -0.1673   -0.0101
          28    0.1150   -0.0129    0.0217    0.0518    0.0161   -0.1847    0.0042   -0.0111
          29   -0.2027    0.0229   -0.0348   -0.0925   -0.0270    0.2837   -0.0063    0.0172
          30    0.1509   -0.0173    0.0300    0.0654    0.0221   -0.2337    0.0051   -0.0118
          31    0.2196   -0.0265   -0.0250    0.1061   -0.0201    0.2843   -0.0062    0.0153
          32    0.1380   -0.0166   -0.0119    0.0690   -0.0108    0.1549   -0.0034    0.0101
          33    0.1498   -0.0180   -0.0156    0.0746   -0.0147    0.1974   -0.0045    0.0124
          34   -0.0411    0.0035   -0.1024    0.1087   -0.0007   -0.0043    0.0069   -0.1090
          35    0.0881   -0.0080    0.1560   -0.2333    0.0016    0.0053   -0.0132    0.2055
          36   -0.0693    0.0063   -0.1220    0.1755   -0.0026   -0.0004    0.0113   -0.1730
          37   -0.0995    0.0115    0.1336    0.2394    0.0078   -0.0099   -0.0133    0.2242
          38   -0.0570    0.0065    0.0699    0.1455    0.0038   -0.0039   -0.0069    0.1180
          39   -0.0650    0.0076    0.1125    0.1596    0.0042   -0.0022   -0.0085    0.1462
          40   -0.0048    0.0034    0.3075   -0.0026   -0.0068    0.0515    0.0116   -0.1909
          41   -0.0040    0.0012    0.0764    0.0067   -0.0013    0.0125    0.0035   -0.0602
          42    0.0146   -0.0044   -0.2976   -0.0249    0.0063   -0.0493   -0.0112    0.1816
          43   -0.0022    0.0015   -0.0012   -0.0032    0.5385    0.0292   -0.0231   -0.0063
          44   -0.0008    0.0006   -0.0005   -0.0012    0.2141    0.0115   -0.0109   -0.0026
          45   -0.0013    0.0009   -0.0008   -0.0021    0.3759    0.0203   -0.0156   -0.0042
          46    0.0007    0.0070   -0.0001    0.0001   -0.0000   -0.0000    0.0001    0.0001
          47   -0.0005   -0.0055    0.0001    0.0000   -0.0005   -0.0001    0.0003    0.0001
          48   -0.0033   -0.0322    0.0004   -0.0001    0.0001   -0.0001   -0.0001   -0.0001
          49    0.0001   -0.0001    0.0001    0.0002   -0.0304   -0.0016    0.0018    0.0004
          50    0.0001   -0.0001    0.0000    0.0001   -0.0141   -0.0008    0.0004    0.0001
          51    0.0001   -0.0000    0.0001    0.0001   -0.0174   -0.0012    0.0011    0.0003
          52   -0.0001    0.0012   -0.0000    0.0001   -0.0112   -0.0022    0.0007    0.0005
          53   -0.0003   -0.0035    0.0001   -0.0003    0.0169    0.0045   -0.0064   -0.0014
          54   -0.0004   -0.0052    0.0000    0.0001   -0.0025   -0.0006    0.0008    0.0003
          55   -0.0004    0.0001    0.0003   -0.0008    0.0160    0.0014   -0.0020   -0.0005
          56   -0.0016    0.0001   -0.0003   -0.0000   -0.0419   -0.0038    0.0032    0.0016
          57    0.0012   -0.0002   -0.0005    0.0008   -0.0332    0.0018    0.0007   -0.0021
          58    0.0051    0.0504   -0.0006    0.0002    0.0003    0.0002   -0.0001   -0.0000
          59    0.0233    0.2311   -0.0032    0.0006    0.0034    0.0014   -0.0019   -0.0008
          60    0.0244    0.2428   -0.0035    0.0006    0.0047    0.0017   -0.0025   -0.0013
          61   -0.0169   -0.1632    0.0020   -0.0010    0.0022    0.0003   -0.0021   -0.0011
          62   -0.0145   -0.1412    0.0017   -0.0008    0.0019    0.0003   -0.0016   -0.0007
          63    0.0283    0.2739   -0.0032    0.0018   -0.0051   -0.0008    0.0044    0.0021


   Root No.      57

                57 A   

                2795.7
  
           1    0.0002
           2   -0.0002
           3   -0.0000
           4   -0.0004
           5   -0.0015
           6    0.0000
           7    0.0021
           8   -0.0028
           9    0.0009
          10   -0.0000
          11    0.0001
          12    0.0001
          13    0.0001
          14   -0.0000
          15    0.0001
          16    0.0000
          17    0.0001
          18    0.0001
          19   -0.0007
          20    0.0010
          21   -0.0024
          22   -0.0009
          23   -0.0031
          24    0.0011
          25   -0.0014
          26    0.0037
          27    0.0022
          28   -0.0006
          29    0.0012
          30   -0.0010
          31    0.0000
          32   -0.0000
          33   -0.0001
          34    0.0006
          35   -0.0010
          36    0.0008
          37   -0.0017
          38   -0.0009
          39   -0.0012
          40    0.0008
          41    0.0003
          42   -0.0008
          43    0.0037
          44    0.0011
          45    0.0030
          46    0.0129
          47    0.0220
          48   -0.0008
          49   -0.0002
          50    0.0000
          51   -0.0002
          52   -0.0368
          53    0.0843
          54   -0.0191
          55    0.0003
          56   -0.0011
          57   -0.0002
          58   -0.0231
          59   -0.2548
          60   -0.3472
          61   -0.1733
          62   -0.1192
          63    0.3636


           MASS-WEIGHTED COORDINATE ANALYSIS (NORMAL COORDINATES)


   Root No.       1         2         3         4         5         6         7         8

                 1 A       2 A       3 A       4 A       5 A       6 A       7 A       8 A   

               -1268.0    -187.7     -14.5      37.9      77.8      82.2     119.7     150.2
  
           1    0.0005   -0.0082    0.0332   -0.0441    0.0534   -0.0861    0.0345   -0.0522
           2    0.0025   -0.0386    0.0757    0.0066    0.1496   -0.4100    0.0789    0.0089
           3    0.0229   -0.0321   -0.1984    0.1383   -0.0308   -0.0284   -0.2775    0.2557
           4    0.0033   -0.0097    0.0339   -0.0437    0.0503   -0.0912    0.0326   -0.0499
           5   -0.0107   -0.0279    0.0650   -0.0109    0.0441   -0.0959   -0.0096    0.0089
           6   -0.2750   -0.0125   -0.1520   -0.0314    0.0169   -0.0113    0.0190   -0.0477
           7    0.0018   -0.0266    0.0456   -0.0341    0.1166   -0.3150    0.0974   -0.0687
           8    0.0026   -0.0069    0.0695   -0.0258    0.0204   -0.0001   -0.0369    0.0106
           9    0.0155   -0.0139   -0.3573   -0.0275    0.0748   -0.1618    0.0856   -0.1483
          10   -0.0515    0.0155    0.0647   -0.1819   -0.0214    0.1080    0.1980   -0.2093
          11    0.1470   -0.0183   -0.0916    0.0430    0.0517   -0.1605   -0.0988    0.0618
          12   -0.0494   -0.0071   -0.0023   -0.1501   -0.0115    0.1293    0.1940   -0.1972
          13   -0.0500    0.0319    0.1158   -0.2839   -0.0573   -0.0533   -0.1047    0.3159
          14    0.0053   -0.0112   -0.2150    0.0571   -0.0026   -0.0130    0.0169   -0.0747
          15    0.0374    0.0140   -0.0094   -0.2594   -0.0680    0.0140   -0.0772    0.2925
          16   -0.0028    0.0313    0.0219    0.3493    0.0144   -0.0133   -0.0744    0.0382
          17   -0.0041   -0.0052   -0.2946   -0.0953   -0.0679    0.0546    0.0655   -0.0072
          18    0.0016    0.0057    0.0696    0.3280    0.0743   -0.0733   -0.1347    0.0375
          19   -0.0051    0.0011    0.0208   -0.0471    0.0386   -0.0299    0.0740   -0.0798
          20   -0.0031   -0.0142    0.0182   -0.0598    0.5794    0.0446   -0.0397    0.0445
          21    0.0041   -0.0115   -0.0627    0.0432    0.0738    0.0220   -0.1175    0.1081
          22    0.0033   -0.0017    0.0041   -0.0042   -0.0088    0.0350   -0.0280    0.0055
          23   -0.0003   -0.0122    0.0246    0.0246   -0.1278   -0.2119    0.0543   -0.0105
          24    0.0029   -0.0104   -0.0572    0.1136   -0.5150   -0.1916   -0.0402    0.0635
          25    0.0048   -0.0087    0.0049    0.0114    0.0284   -0.0764   -0.0170    0.0286
          26   -0.0006   -0.0122    0.0258    0.0431   -0.2842   -0.2688    0.0752   -0.0235
          27    0.0049   -0.0124   -0.0650    0.0057    0.3893    0.1381   -0.1594    0.1328
          28    0.0335    0.0145    0.0589   -0.1810   -0.0355   -0.0548   -0.1132    0.2501
          29    0.0074    0.0010   -0.0585   -0.1334   -0.0322   -0.0123   -0.0301    0.0979
          30   -0.0186    0.0048   -0.0182   -0.1802   -0.0433    0.0247   -0.0006    0.1046
          31   -0.0068    0.0081    0.0412   -0.1522   -0.0229   -0.0122   -0.0162    0.0964
          32   -0.0131   -0.0083   -0.0746    0.2031    0.0351    0.0142    0.0533   -0.1732
          33    0.0058    0.0100   -0.0039   -0.1244   -0.0396   -0.0155   -0.0831    0.2004
          34   -0.0069    0.0054   -0.0275    0.2511    0.0382    0.0432    0.3803    0.3053
          35    0.0044   -0.0048   -0.0899    0.1352    0.0176    0.0233    0.1762    0.0696
          36    0.0050   -0.0000    0.0362    0.1942    0.0445   -0.0421   -0.1067   -0.0917
          37   -0.0009    0.0101    0.0003    0.1598    0.0066   -0.0090   -0.1137   -0.1038
          38    0.0011    0.0022   -0.0674   -0.2515   -0.0658   -0.0055   -0.2231   -0.1201
[...]
 STEP:  39 TIME =     0.09 SECS, INTEGRAL =      3.80 TIME LEFT: 172796.16
 STEP:  40 TIME =     0.09 SECS, INTEGRAL =      3.89 TIME LEFT: 172796.06
 STEP:  41 TIME =     0.08 SECS, INTEGRAL =      3.97 TIME LEFT: 172795.98
 STEP:  42 TIME =     0.08 SECS, INTEGRAL =      4.05 TIME LEFT: 172795.91
 STEP:  43 TIME =     0.09 SECS, INTEGRAL =      4.14 TIME LEFT: 172795.81
 STEP:  44 TIME =     0.09 SECS, INTEGRAL =      4.23 TIME LEFT: 172795.72
 STEP:  45 TIME =     0.09 SECS, INTEGRAL =      4.33 TIME LEFT: 172795.62
 STEP:  46 TIME =     0.09 SECS, INTEGRAL =      4.42 TIME LEFT: 172795.53
 STEP:  47 TIME =     0.11 SECS, INTEGRAL =      4.53 TIME LEFT: 172795.42
 STEP:  48 TIME =     0.14 SECS, INTEGRAL =      4.67 TIME LEFT: 172795.28
 STEP:  49 TIME =     0.11 SECS, INTEGRAL =      4.78 TIME LEFT: 172795.17
 STEP:  50 TIME =     0.11 SECS, INTEGRAL =      4.89 TIME LEFT: 172795.06
 STEP:  51 TIME =     0.12 SECS, INTEGRAL =      5.02 TIME LEFT: 172794.94
 STEP:  52 TIME =     0.12 SECS, INTEGRAL =      5.14 TIME LEFT: 172794.81
 STEP:  53 TIME =     0.12 SECS, INTEGRAL =      5.27 TIME LEFT: 172794.69
 STEP:  54 TIME =     0.11 SECS, INTEGRAL =      5.38 TIME LEFT: 172794.58
 STEP:  55 TIME =     0.12 SECS, INTEGRAL =      5.50 TIME LEFT: 172794.45
 STEP:  56 TIME =     0.12 SECS, INTEGRAL =      5.62 TIME LEFT: 172794.33
 STEP:  57 TIME =     0.16 SECS, INTEGRAL =      5.79 TIME LEFT: 172794.16
 STEP:  58 TIME =     0.34 SECS, INTEGRAL =      6.13 TIME LEFT: 172793.82
 STEP:  59 TIME =     0.12 SECS, INTEGRAL =      6.25 TIME LEFT: 172793.70
 STEP:  60 TIME =     0.12 SECS, INTEGRAL =      6.37 TIME LEFT: 172793.58
 STEP:  61 TIME =     0.11 SECS, INTEGRAL =      6.48 TIME LEFT: 172793.47
 STEP:  62 TIME =     0.12 SECS, INTEGRAL =      6.61 TIME LEFT: 172793.35
 STEP:  63 TIME =     0.11 SECS, INTEGRAL =      6.72 TIME LEFT: 172793.23
           INITIAL VELOCITY IN DRC (Angstroms/Femtosecond)
        -0.00000         0.00048         0.00510
         0.00083        -0.00272        -0.06323
         0.00037         0.00037         0.00306
        -0.01083         0.02921        -0.00947
        -0.01146         0.00116         0.00834
        -0.00049        -0.00098         0.00050
        -0.00428        -0.00252         0.00317
         0.00245         0.00003         0.00291
         0.00383        -0.00053         0.00378
         0.02632         0.00658        -0.01356
        -0.00651        -0.01082         0.00548
        -0.00617         0.00411         0.00569
        -0.00045         0.00004         0.00433
        -0.00223         0.00302         0.00450
         0.02576        -0.00207         0.01092
        -0.00022         0.00026         0.00002
         0.01567        -0.02925        -0.00472
         0.00033        -0.00122         0.01557
         0.01410         0.01878         0.72062
        -0.00103         0.00057        -0.00075
         0.00119        -0.00088         0.00100

 GEOMETRY PRIORITY, STEP = 0.0500 ANGSTROMS



     POINT   POTENTIAL  +  ENERGY LOST   =   TOTAL      ERROR    REF%   MOVEMENT
       1    -104.37982      0.00000       -104.37982   0.00000     1   %  0.0000
       1    -104.54556      0.00000       -104.54556  -2.23210     2   %  0.0511
       1    -104.92414      0.00000       -104.92414  -3.05620     3   %  0.1044
       1    -105.51557      0.00000       -105.51557  -2.47228     4   %  0.1600
       2    -105.93136      0.00000       -105.93136  -1.55154     5   %  0.1914
      43    -106.81870      0.44283       -106.37587  -0.44451     6   %  0.2491
     191    -107.66504      1.24621       -106.41883  -0.48746     7   %  0.2985
     332    -108.43705      2.11750       -106.31955  -0.38819     8   %  0.3484
     431    -109.34348      3.00554       -106.33794  -0.40658     9   %  0.3974
     538    -110.21279      3.90680       -106.30599  -0.37462    10   %  0.4468
     628    -111.05604      4.77548       -106.28057  -0.34921    11   %  0.4952
     739    -112.12610      5.60136       -106.52474  -0.59338    12   %  0.5431
     872    -112.99515      6.38105       -106.61410  -0.68274    13   %  0.5906
    1011    -113.74913      7.09738       -106.65175  -0.72039    14   %  0.6372
    1132    -114.26794      7.77604       -106.49191  -0.56054    15   %  0.6850
    1236    -114.93067      8.39662       -106.53405  -0.60269    16   %  0.7322
    1340    -115.52796      8.96821       -106.55975  -0.62839    17   %  0.7791
    1429    -116.09764      9.50410       -106.59354  -0.66218    18   %  0.8267
    1524    -116.38499      9.99633       -106.38866  -0.45730    19   %  0.8741
    1600    -116.91111     10.45248       -106.45863  -0.52726    20   %  0.9215
    1672    -117.34516     10.87128       -106.47388  -0.54252    21   %  0.9685
    1744    -117.77240     11.26302       -106.50938  -0.57802    22   %  1.0159
    1809    -118.12918     11.62702       -106.50217  -0.57081    23   %  1.0633
    1874    -118.47734     11.96941       -106.50793  -0.57656    24   %  1.1111
    1937    -118.83205     12.28612       -106.54593  -0.61457    25   %  1.1586
    1993    -119.13023     12.58112       -106.54911  -0.61775    26   %  1.2061
    2053    -119.46239     12.85943       -106.60295  -0.67159    27   %  1.2537
    2092    -119.73641     13.12074       -106.61566  -0.68430    28   %  1.3015
    2145    -119.99744     13.36531       -106.63212  -0.70076    29   %  1.3493
    2188    -120.26028     13.59485       -106.66543  -0.73407    30   %  1.3972
    2233    -120.44522     13.80900       -106.63622  -0.70486    31   %  1.4447
    2274    -120.66250     14.01438       -106.64812  -0.71676    32   %  1.4929
    2299    -120.85374     14.20923       -106.64451  -0.71315    33   %  1.5413
    2326    -120.98342     14.39110       -106.59233  -0.66097    34   %  1.5891
    2356    -121.16899     14.56492       -106.60407  -0.67271    35   %  1.6371
    2385    -121.32381     14.72804       -106.59577  -0.66441    36   %  1.6850
    2410    -121.48970     14.88175       -106.60795  -0.67659    37   %  1.7327
    2435    -121.65028     15.02583       -106.62444  -0.69308    38   %  1.7799
    2457    -121.78747     15.15935       -106.62812  -0.69676    39   %  1.8260
    2483    -121.91775     15.28884       -106.62892  -0.69755    40   %  1.8730
    2499    -122.05149     15.41364       -106.63785  -0.70649    41   %  1.9205
    2672    -122.24084     15.52980       -106.71104  -0.77968    42   %  1.9670
    2688    -122.36243     15.63987       -106.72256  -0.79120    43   %  2.0133
    2708    -122.48171     15.74997       -106.73174  -0.80038    44   %  2.0615
    2722    -122.56689     15.85155       -106.71534  -0.78398    45   %  2.1074
    2732    -122.67367     15.94986       -106.72381  -0.79245    46   %  2.1532
    2744    -122.77307     16.04354       -106.72952  -0.79816    47   %  2.1980
    2755    -122.86041     16.13064       -106.72977  -0.79841    48   %  2.2406
    2762    -122.95626     16.22699       -106.72928  -0.79792    49   %  2.2887
    2771    -123.04803     16.31495       -106.73307  -0.80171    50   %  2.3333
    2779    -123.14802     16.40102       -106.74700  -0.81564    51   %  2.3775
    2793    -123.21055     16.48125       -106.72930  -0.79794    52   %  2.4189
    2802    -123.31058     16.57168       -106.73890  -0.80754    53   %  2.4656
    2810    -123.39991     16.65567       -106.74424  -0.81288    54   %  2.5089
    3110    -123.52166     16.74194       -106.77972  -0.84836    55   %  2.5529
    3177    -123.60300     16.82578       -106.77722  -0.84585    56   %  2.5954
    3196    -123.69732     16.90883       -106.78849  -0.85713    57   %  2.6370
    3220    -123.78298     16.99872       -106.78426  -0.85290    58   %  2.6815
    3232    -123.85611     17.07799       -106.77813  -0.84677    59   %  2.7201
    3238    -123.95760     17.18069       -106.77691  -0.84555    60   %  2.7690
    3253    -123.97010     17.27025       -106.69985  -0.76849    61   %  2.8103
    3278    -124.07972     17.36849       -106.71123  -0.77986    62   %  2.8539
    3289    -124.17094     17.46723       -106.70371  -0.77235    63   %  2.8968
    3296    -124.27453     17.57544       -106.69909  -0.76773    64   %  2.9426
    3304    -124.36874     17.68151       -106.68723  -0.75586    65   %  2.9867
    3311    -124.48119     17.78638       -106.69482  -0.76345    66   %  3.0292
    3325    -124.57403     17.89552       -106.67852  -0.74716    67   %  3.0721
    3337    -124.68305     18.01171       -106.67134  -0.73998    68   %  3.1164
    3346    -124.79954     18.13727       -106.66227  -0.73091    69   %  3.1633
    3352    -124.91785     18.25753       -106.66032  -0.72896    70   %  3.2072
    3357    -125.02386     18.36571       -106.65816  -0.72679    71   %  3.2461
    3366    -125.17568     18.50762       -106.66806  -0.73670    72   %  3.2963
    3381    -125.29469     18.63467       -106.66001  -0.72865    73   %  3.3406
    3404    -125.67560     18.76885       -106.90675  -0.97539    74   %  3.3849
    3415    -125.80467     18.90017       -106.90450  -0.97313    75   %  3.4271
    3431    -125.93405     19.02382       -106.91023  -0.97887    76   %  3.4672
    3444    -126.06976     19.16241       -106.90735  -0.97599    77   %  3.5123
    3457    -125.98091     19.30710       -106.67381  -0.74245    78   %  3.5601
    3477    -126.34910     19.43306       -106.91604  -0.98468    79   %  3.6035
    3489    -126.48698     19.56823       -106.91875  -0.98739    80   %  3.6468
    3496    -126.63991     19.71081       -106.92910  -0.99774    81   %  3.6937
    3503    -126.77656     19.84317       -106.93339  -1.00203    82   %  3.7380
    3516    -126.87778     19.97336       -106.90441  -0.97305    83   %  3.7823
    3532    -126.99999     20.09813       -106.90186  -0.97050    84   %  3.8253
    3544    -127.13387     20.22509       -106.90879  -0.97743    85   %  3.8697
    3555    -127.26533     20.34864       -106.91669  -0.98533    86   %  3.9138
    3565    -127.39469     20.46698       -106.92772  -0.99635    87   %  3.9569
    3578    -127.52424     20.58935       -106.93489  -1.00353    88   %  4.0025
    3595    -127.63941     20.70144       -106.93797  -1.00661    89   %  4.0454
    3611    -127.76373     20.81608       -106.94765  -1.01628    90   %  4.0904
    3630    -127.88552     20.92177       -106.96375  -1.03238    91   %  4.1323
    3641    -128.01027     21.04061       -106.96967  -1.03830    92   %  4.1771
    3666    -128.23571     21.17672       -107.05898  -1.12762    93   %  4.2199
    3707    -128.06709     21.38984       -106.67725  -0.74588    94   %  4.2627


           POTENTIAL ENERGY HAS STOPPED DROPPING

           INITIAL VELOCITY IN DRC (Angstroms/Femtosecond)
         0.00000        -0.00048        -0.00510
        -0.00083         0.00272         0.06323
        -0.00037        -0.00037        -0.00306
         0.01083        -0.02921         0.00947
         0.01146        -0.00116        -0.00834
         0.00049         0.00098        -0.00050
         0.00428         0.00252        -0.00317
        -0.00245        -0.00003        -0.00291
        -0.00383         0.00053        -0.00378
        -0.02632        -0.00658         0.01356
         0.00651         0.01082        -0.00548
         0.00617        -0.00411        -0.00569
         0.00045        -0.00004        -0.00433
         0.00223        -0.00302        -0.00450
        -0.02576         0.00207        -0.01092
         0.00022        -0.00026        -0.00002
        -0.01567         0.02925         0.00472
        -0.00033         0.00122        -0.01557
        -0.01410        -0.01878        -0.72062
         0.00103        -0.00057         0.00075
        -0.00119         0.00088        -0.00100

 GEOMETRY PRIORITY, STEP = 0.0500 ANGSTROMS



     POINT   POTENTIAL  +  ENERGY LOST   =   TOTAL      ERROR    REF%   MOVEMENT
       1    -104.37982      0.00000       -104.37982   0.00000     1   %  0.0000
       1    -104.48927      0.00000       -104.48927  -1.81027     2   %  0.0507
       1    -104.81045      0.00000       -104.81045  -2.48524     3   %  0.1029
       1    -105.34335      0.00000       -105.34335  -2.02491     4   %  0.1565
       2    -105.70811      0.00000       -105.70811  -1.32828     5   %  0.1852
      24    -106.49128      0.56065       -105.93063  -0.22252     6   %  0.2484
      58    -107.33126      1.38912       -105.94213  -0.23403     7   %  0.2977
      93    -108.20216      2.25437       -105.94779  -0.23969     8   %  0.3463
     139    -109.27645      3.12919       -106.14725  -0.43915     9   %  0.3947
     181    -110.15561      4.02008       -106.13553  -0.42742    10   %  0.4448
     212    -110.93803      4.82183       -106.11620  -0.40810    11   %  0.4917
     255    -111.70392      5.60685       -106.09706  -0.38896    12   %  0.5400
     291    -112.42061      6.33237       -106.08824  -0.38013    13   %  0.5875
     323    -113.11715      7.00375       -106.11340  -0.40529    14   %  0.6347
     368    -113.70288      7.59102       -106.11187  -0.40376    15   %  0.6794
     414    -114.27554      8.16237       -106.11317  -0.40507    16   %  0.7264
     482    -114.78859      8.67551       -106.11309  -0.40498    17   %  0.7719
     526    -115.26670      9.14113       -106.12557  -0.41746    18   %  0.8165
     586    -115.65189      9.57408       -106.07781  -0.36970    19   %  0.8611
     613    -116.05825      9.96456       -106.09369  -0.38558    20   %  0.9044
     650    -116.45018     10.34429       -106.10589  -0.39779    21   %  0.9500
     675    -116.79643     10.68339       -106.11304  -0.40494    22   %  0.9937
     702    -117.14033     11.00771       -106.13262  -0.42452    23   %  1.0385
     737    -117.41752     11.30642       -106.11110  -0.40299    24   %  1.0827
     761    -117.68918     11.57818       -106.11100  -0.40290    25   %  1.1256
     795    -117.97566     11.83627       -106.13939  -0.43128    26   %  1.1687
     824    -118.22411     12.09192       -106.13219  -0.42408    27   %  1.2141
     856    -118.49182     12.31549       -106.17632  -0.46822    28   %  1.2562
     875    -118.74094     12.53778       -106.20316  -0.49506    29   %  1.3003
     903    -118.95159     12.73841       -106.21317  -0.50507    30   %  1.3423
     932    -119.13371     12.93469       -106.19902  -0.49092    31   %  1.3858
     954    -119.32672     13.11557       -106.21115  -0.50305    32   %  1.4293
     973    -119.51519     13.29212       -106.22307  -0.51497    33   %  1.4753
    1010    -119.51132     13.44935       -106.06196  -0.35386    34   %  1.5187
    1026    -119.68063     13.61052       -106.07011  -0.36201    35   %  1.5653
    1051    -119.79888     13.76155       -106.03734  -0.32923    36   %  1.6113
    1066    -119.92880     13.89672       -106.03208  -0.32397    37   %  1.6547
    1081    -120.08794     14.03797       -106.04997  -0.34187    38   %  1.7022
    1104    -120.09298     14.16643       -105.92656  -0.21845    39   %  1.7473
    1129    -120.22304     14.29233       -105.93071  -0.22261    40   %  1.7935
    1153    -120.38110     14.40360       -105.97751  -0.26940    41   %  1.8357
    1168    -120.50344     14.52693       -105.97651  -0.26841    42   %  1.8844
    1186    -120.63006     14.63798       -105.99209  -0.28398    43   %  1.9298
    1202    -120.73621     14.74051       -105.99569  -0.28759    44   %  1.9730
    1223    -120.90512     14.84552       -106.05960  -0.35150    45   %  2.0185
    1239    -121.00220     14.95109       -106.05110  -0.34300    46   %  2.0655
    1263    -121.13745     15.04993       -106.08752  -0.37941    47   %  2.1106
    1288    -121.19328     15.14545       -106.04783  -0.33973    48   %  2.1548
    1308    -121.29581     15.24242       -106.05339  -0.34528    49   %  2.2000
    1334    -121.37620     15.33920       -106.03700  -0.32890    50   %  2.2451
    1351    -121.49451     15.43501       -106.05950  -0.35139    51   %  2.2893
    1364    -121.60044     15.53252       -106.06792  -0.35982    52   %  2.3338
    1380    -121.67538     15.62893       -106.04644  -0.33834    53   %  2.3771
    1394    -121.81576     15.73091       -106.08485  -0.37674    54   %  2.4217
    1404    -121.92111     15.83282       -106.08829  -0.38018    55   %  2.4650
    1419    -122.06492     15.93783       -106.12709  -0.41898    56   %  2.5086
    1446    -122.08051     16.04414       -106.03637  -0.32826    57   %  2.5516
    1460    -122.18886     16.15161       -106.03725  -0.32914    58   %  2.5935
    1474    -122.28347     16.26751       -106.01596  -0.30785    59   %  2.6374
    1486    -122.43984     16.38394       -106.05590  -0.34779    60   %  2.6802
    1509    -122.53065     16.50269       -106.02796  -0.31986    61   %  2.7225
    1515    -122.64851     16.61891       -106.02961  -0.32150    62   %  2.7628
    1534    -122.79501     16.75155       -106.04346  -0.33536    63   %  2.8075
    1543    -122.90691     16.85986       -106.04705  -0.33895    64   %  2.8429
    1550    -123.05467     17.00647       -106.04820  -0.34009    65   %  2.8900
    1557    -123.19799     17.14779       -106.05020  -0.34209    66   %  2.9343
    1567    -123.35525     17.29155       -106.06370  -0.35560    67   %  2.9787
    1580    -123.48065     17.42274       -106.05791  -0.34980    68   %  3.0188
    1595    -123.64138     17.57223       -106.06915  -0.36105    69   %  3.0640
    1609    -123.81250     17.72068       -106.09182  -0.38371    70   %  3.1084
    1631    -124.01218     17.86613       -106.14605  -0.43795    71   %  3.1520
    1645    -124.16289     18.01567       -106.14722  -0.43911    72   %  3.1966
    1662    -124.30032     18.16099       -106.13933  -0.43122    73   %  3.2398
    1671    -124.45927     18.31321       -106.14606  -0.43795    74   %  3.2851
    1682    -124.60324     18.45509       -106.14815  -0.44004    75   %  3.3274
    1693    -124.76214     18.60936       -106.15279  -0.44468    76   %  3.3738
    1727    -124.94474     18.75501       -106.18973  -0.48162    77   %  3.4181
    1752    -125.06007     18.89162       -106.16844  -0.46034    78   %  3.4603
    1777    -125.23582     19.03986       -106.19596  -0.48785    79   %  3.5071
    1784    -125.35430     19.16016       -106.19414  -0.48604    80   %  3.5453
    1797    -125.58162     19.31646       -106.26516  -0.55706    81   %  3.5956
    1810    -125.72566     19.45501       -106.27065  -0.56255    82   %  3.6408
    1814    -125.85872     19.58841       -106.27031  -0.56220    83   %  3.6850
    1832    -126.06292     19.72824       -106.33468  -0.62658    84   %  3.7321
    1841    -126.19572     19.85900       -106.33672  -0.62861    85   %  3.7772
    1851    -126.28177     19.98276       -106.29902  -0.59091    86   %  3.8209
    1866    -126.39651     20.10433       -106.29218  -0.58407    87   %  3.8648
    1884    -126.51904     20.22512       -106.29392  -0.58581    88   %  3.9092
    3886    -126.62013     20.34521       -106.27493  -0.56682    89   %  3.9541
    4884    -126.70782     20.45763       -106.25019  -0.54209    90   %  3.9975

           NUMBER OF CYCLES EXCEEDED, RESTART FILE WRITTEN
           Number of cycles allowed in this run =   5000
           To increase the number of cycles, use keyword "CYCLES=n",
           where "n" is the number of cycles you want to run

 **********************
 *                    *
 * JOB ENDED NORMALLY *
 *                    *
 **********************



 TOTAL JOB TIME:           175.38 SECONDS

 == MOPAC DONE ==
