 *******************************************************************************
 ** Site#: 10005        For non-commercial use only     Version 15.321W 64BITS**
 *******************************************************************************
 ** Cite this work as:                                                        **
 **                                                                           **
 ** (a) MOPAC2012, James J. P. Stewart, Stewart Computational Chemistry,      **
 **  Version 15.321W web: HTTP://OpenMOPAC.net         Days remaining: 365    **
 **                                                                           **
 **                                 AND                                       **
 **                                                                           **
 ** (b) Maia, J.D.C., et al., J. Chem. Theory Comput. 2012, 8, 3072-3081.     **
 **                DOI: 10.1021/ct3004645.                                    **
 *******************************************************************************
 **                                                                           **
 **                                MOPAC2012                                  **
 **                                                                           **
 *******************************************************************************

                              PM7 CALCULATION RESULTS


 *******************************************************************************
 *  CALCULATION DONE:                                Tue Nov 17 14:25:18 2015  *
 *  PDBOUT     - PRINT GEOMETY IN PDB FORMAT
 *  GEO_DAT    - DATA SET GEOMETRY IS IN FILE "LOCATE-TS.ARC"
 *
 *
 *
 *                 CHARGE ON SYSTEM =     1
 *
 *
 *
 *  EPS= 78.40 - USE ANDREAS KLAMT'S COSMO IMPLICIT SOLVATION MODEL
 *  IRC=N      - INTRINSIC REACTION COORDINATE  1 DEFINED
 *  LET        - OVERRIDE SOME SAFETY CHECKS
 *  PRECISE    - CRITERIA TO BE INCREASED BY 100 TIMES
 *  FORCETS    - VERIFY THAT TRANSITION STATE IS GENUINE
 *  T=         - A TIME OF 172800.0 SECONDS REQUESTED
 *  DUMP=N     - RESTART FILE WRITTEN EVERY  7200.000 SECONDS
 *  X-PRIOR    - GEOMETRY CHANGES TAKE PRIORITY IN DRC
 *******************************************************************************
 irc=1* forcets  charge=1 eps=78.4  let HTML x-priority=0.2 precise geo_dat="Locate-TS.arc" PDBOUT
 IRC for Ester Hydrolysis Reaction (click on "Specific Script" to show charges)

   ATOM                 CHEMICAL                   X               Y               Z
  NUMBER                 SYMBOL               (ANGSTROMS)     (ANGSTROMS)     (ANGSTROMS)
 
     1       C(HETATM    1  C1  HET A   3)   -0.08355869      0.07350954      0.05698847   
     2       C(HETATM    2  C2  HET A   3)    1.21825004  *   0.12954635  *   0.78291846  *
     3       O(HETATM    3  O1  HET A   3)    1.96967746      1.22035216      0.82624765   
     4       O(HETATM    4  O2  HET A   3)    2.02055700  *  -1.05426798  *   0.45018090  *
     5       C(HETATM    5  C3  HET A   3)    3.44666766     -0.87169206      0.22078912   
     6       C(HETATM    6  C4  HET A   3)    3.91432232     -2.25603209     -0.17224558   
     7       H(HETATM    7 1H1  HET A   3)    0.03647032     -0.13564615     -1.02122838   
     8       H(HETATM    8 2H1  HET A   3)   -0.73740738     -0.72539860      0.45873335   
     9       H(HETATM    9 3H1  HET A   3)   -0.64328241      1.02244095      0.14285195   
    10       H(HETATM   10 1H3  HET A   3)    3.56010880     -0.12280109     -0.58387420   
    11       H(HETATM   11 2H3  HET A   3)    3.90407023     -0.49099343      1.15080442   
    12       H(HETATM   12 1H4  HET A   3)    3.64341116     -3.01185106      0.58007094   
    13       H(HETATM   13 2H4  HET A   3)    3.48335944     -2.58120057     -1.12974786   
    14       H(HETATM   14 3H4  HET A   3)    5.00977442     -2.27999678     -0.27872071   
    15       H(HETATM   15 1H   HOH A   5)    1.47068944      0.12200546      2.86510273   
    16       O(HETATM   16  O   HOH A   4)    1.00615879  *   3.16094471  *  -0.44171570  *
    17       O(HETATM   17  O   HOH A   5)    1.00952229  *  -0.39985786  *   2.13993652  *
    18       H(HETATM   18 1H   HOH A   4)    1.55730771  *   2.08139036  *   0.27679778  *
    19       H(HETATM   19 2H   HOH A   5)    1.79204123  *  -1.42578731  *   1.72350214  *
    20       H(HETATM   20 2H   HOH A   4)    1.02782866      3.90307990      0.20411191   
    21       H(HETATM   21 3H   HOH A   4)    1.72311538      3.39322745     -1.07491265   
 

     ===================== shared-memory parallel CPU Section ======================
     **                                                                           **
     **  MOPAC calculations will run in shared-memory parallel CPUs               **
     **                                                                           **
     **  Number of Threads =  4                                                   **
     **                                                                           **
     **                                                                           **
     **  For information on this work, see:                                       **
     **                                                                           **
     **  Maia, J.D.C., et al., J. Chem. Theory Comput. 2012, 8, 3072-3081.        **
     **        DOI: 10.1021/ct3004645.                                            **
     **                                                                           **
     ===================== shared-memory parallel CPU Section ======================
      


 General Reference for PM7:
 "Optimization of Parameters for Semiempirical Methods VI: More Modifications to the 
 NDDO Approximations and Re-optimization of Parameters", J. J. P. Stewart, J. Mol. Mod., 1:32, 19 (2013)
 http://www.springerlink.com/openurl.asp?genre=article&id=doi:10.1007/s00894-012-1667-x

           Empirical Formula: C4 H13 O4  =    21 atoms



      MOLECULAR POINT GROUP   :   C1  


      RHF CALCULATION, NO. OF DOUBLY OCCUPIED LEVELS =   26



          HEAT OF FORMATION =    -104.147262 KCALS/MOLE


          GRADIENT NORM =   2.41163


          TIME FOR SCF CALCULATION =    0.03

          TIME FOR DERIVATIVES     =    0.02

          ESTIMATED TIME TO COMPLETE CALCULATION =        3.38 SECONDS
 STEP:   1 TIME =     0.08 SECS, INTEGRAL =      0.08 TIME LEFT: 172799.88
 STEP:   2 TIME =     0.08 SECS, INTEGRAL =      0.16 TIME LEFT: 172799.80
 STEP:   3 TIME =     0.06 SECS, INTEGRAL =      0.22 TIME LEFT: 172799.73
 STEP:   4 TIME =     0.08 SECS, INTEGRAL =      0.30 TIME LEFT: 172799.66
 STEP:   5 TIME =     0.06 SECS, INTEGRAL =      0.36 TIME LEFT: 172799.59
 STEP:   6 TIME =     0.08 SECS, INTEGRAL =      0.44 TIME LEFT: 172799.52
 STEP:   7 TIME =     0.06 SECS, INTEGRAL =      0.50 TIME LEFT: 172799.45
 STEP:   8 TIME =     0.06 SECS, INTEGRAL =      0.56 TIME LEFT: 172799.39
 STEP:   9 TIME =     0.06 SECS, INTEGRAL =      0.62 TIME LEFT: 172799.33
 STEP:  10 TIME =     0.08 SECS, INTEGRAL =      0.70 TIME LEFT: 172799.25
 STEP:  11 TIME =     0.06 SECS, INTEGRAL =      0.77 TIME LEFT: 172799.19
 STEP:  12 TIME =     0.06 SECS, INTEGRAL =      0.83 TIME LEFT: 172799.12
 STEP:  13 TIME =     0.08 SECS, INTEGRAL =      0.91 TIME LEFT: 172799.05
 STEP:  14 TIME =     0.06 SECS, INTEGRAL =      0.97 TIME LEFT: 172798.98
 STEP:  15 TIME =     0.08 SECS, INTEGRAL =      1.05 TIME LEFT: 172798.91
 STEP:  16 TIME =     0.06 SECS, INTEGRAL =      1.11 TIME LEFT: 172798.84
 STEP:  17 TIME =     0.06 SECS, INTEGRAL =      1.17 TIME LEFT: 172798.78
 STEP:  18 TIME =     0.06 SECS, INTEGRAL =      1.23 TIME LEFT: 172798.72
           INITIAL VELOCITY IN DRC (Angstroms/Femtosecond)
         0.00000         0.00000         0.00000
         0.08192        -0.05008        -0.13973
         0.00000         0.00000         0.00000
         0.01192         0.07233        -0.14700
         0.00000         0.00000         0.00000
         0.00000         0.00000         0.00000
         0.00000         0.00000         0.00000
         0.00000         0.00000         0.00000
         0.00000         0.00000         0.00000
         0.00000         0.00000         0.00000
         0.00000         0.00000         0.00000
         0.00000         0.00000         0.00000
         0.00000         0.00000         0.00000
         0.00000         0.00000         0.00000
         0.00000         0.00000         0.00000
        -0.00021         0.00040         0.00016
         0.09316        -0.13804        -0.01648
        -0.00706         0.00351         0.01197
        -0.21713         0.16802         0.39864
         0.00000         0.00000         0.00000
         0.00000         0.00000         0.00000

 GEOMETRY PRIORITY, STEP = 0.2000 ANGSTROMS



     POINT   POTENTIAL  +  ENERGY LOST   =   TOTAL      ERROR    REF%   MOVEMENT
       1    -104.14726      0.00000       -104.14726   0.00000     1   %  0.0000
       8    -104.86961      0.76832       -104.10128   0.04598     2   %  0.1538
      24    -107.06523      3.26385       -103.80138   0.34588     3   %  0.3502
      40    -110.90429      6.99676       -103.90753   0.23973     4   %  0.5344
      55    -114.56594     10.65090       -103.91504   0.23222     5   %  0.7241
      67    -117.30526     13.21224       -104.09302   0.05424     6   %  0.8862
      77    -119.24211     15.08852       -104.15359  -0.00633     7   %  1.0422
      86    -120.79666     16.56019       -104.23647  -0.08921     8   %  1.2096
      94    -122.14803     17.69118       -104.45685  -0.30959     9   %  1.3794
     101    -123.08625     18.54586       -104.54040  -0.39313    10   %  1.5391
     108    -123.80744     19.28511       -104.52233  -0.37507    11   %  1.7102
     115    -124.35506     19.91950       -104.43556  -0.28830    12   %  1.8603
     122    -124.81554     20.54474       -104.27080  -0.12354    13   %  1.9790
     130    -125.23785     21.20697       -104.03088   0.11638    14   %  2.1020
     137    -125.47190     21.79303       -103.67887   0.46839    15   %  2.2022
     145    -125.89931     22.47772       -103.42160   0.72566    16   %  2.3149
     152    -126.32948     23.09961       -103.22987   0.91739    17   %  2.4137
     160    -126.81626     23.84252       -102.97374   1.17352    18   %  2.5297
     167    -127.30120     24.59287       -102.70833   1.43893    19   %  2.6464
     175    -127.82792     25.28217       -102.54575   1.60151    20   %  2.7553
     182    -128.27665     25.94904       -102.32761   1.81965    21   %  2.8618
     190    -128.79454     26.69064       -102.10391   2.04335    22   %  2.9818
     197    -129.20343     27.31485       -101.88858   2.25869    23   %  3.0840
     205    -129.60756     27.98734       -101.62022   2.52704    24   %  3.1950
     213    -129.93525     28.61983       -101.31542   2.83185    25   %  3.3003
     221    -130.21219     29.20887       -101.00333   3.14393    26   %  3.3980
     230    -130.50077     29.83093       -100.66984   3.47742    27   %  3.4994
     238    -130.71418     30.35368       -100.36050   3.78676    28   %  3.5843
     246    -130.90315     30.85680       -100.04634   4.10092    29   %  3.6658
     254    -131.05971     31.34729        -99.71241   4.43485    30   %  3.7418
     262    -131.11338     31.83204        -99.28134   4.86592    31   %  3.8136
     271    -131.22636     32.37547        -98.85089   5.29637    32   %  3.8890
     281    -131.37627     32.97604        -98.40024   5.74702    33   %  3.9696
     291    -131.48969     33.58962        -97.90008   6.24718    34   %  4.0479
     301    -131.40277     34.21544        -97.18732   6.95994    35   %  4.1253
     311    -131.49967     34.84332        -96.65635   7.49091    36   %  4.1948
     322    -131.57899     35.52847        -96.05052   8.09674    37   %  4.2732
     332    -131.64021     36.19467        -95.44554   8.70172    38   %  4.3487
     343    -131.70661     36.82177        -94.88483   9.26243    39   %  4.4170
     354    -131.74727     37.49928        -94.24799   9.89927    40   %  4.4882
     365    -131.77338     38.18468        -93.58871  10.55855    41   %  4.5564
     377    -131.73911     38.92302        -92.81609  11.33117    42   %  4.6233
     388    -131.80066     39.59285        -92.20781  11.93945    43   %  4.6820
     400    -131.87800     40.33272        -91.54528  12.60199    44   %  4.7476
     411    -131.91149     41.03365        -90.87783  13.26943    45   %  4.8050
     423    -131.93274     41.78122        -90.15152  13.99574    46   %  4.8643
     435    -131.89426     42.55592        -89.33833  14.80893    47   %  4.9232
     447    -131.93824     43.37716        -88.56108  15.58618    48   %  4.9799
     458    -132.01270     44.13239        -87.88031  16.26695    49   %  5.0321
     470    -132.05310     44.97522        -87.07788  17.06938    50   %  5.0886
     482    -132.13103     45.83228        -86.29875  17.84851    51   %  5.1456
     494    -132.16572     46.71419        -85.45154  18.69573    52   %  5.2013
     506    -132.19035     47.61872        -84.57163  19.57563    53   %  5.2569
     518    -132.23026     48.50432        -83.72594  20.42132    54   %  5.3101
     530    -132.28628     49.40660        -82.87967  21.26759    55   %  5.3629
     542    -132.40051     50.29965        -82.10086  22.04640    56   %  5.4147
     554    -132.29394     51.18193        -81.11201  23.03525    57   %  5.4664
     565    -132.28412     52.01511        -80.26902  23.87825    58   %  5.5130
     577    -132.34507     52.89174        -79.45333  24.69393    59   %  5.5625
     589    -132.29022     53.80851        -78.48171  25.66555    60   %  5.6100
     602    -132.35847     54.85835        -77.50012  26.64715    61   %  5.6622
     614    -132.37975     55.90154        -76.47821  27.66906    62   %  5.7133


           POTENTIAL ENERGY HAS STOPPED DROPPING

           INITIAL VELOCITY IN DRC (Angstroms/Femtosecond)
         0.00000         0.00000         0.00000
        -0.08192         0.05008         0.13973
         0.00000         0.00000         0.00000
        -0.01192        -0.07233         0.14700
         0.00000         0.00000         0.00000
         0.00000         0.00000         0.00000
         0.00000         0.00000         0.00000
         0.00000         0.00000         0.00000
         0.00000         0.00000         0.00000
         0.00000         0.00000         0.00000
         0.00000         0.00000         0.00000
         0.00000         0.00000         0.00000
         0.00000         0.00000         0.00000
         0.00000         0.00000         0.00000
         0.00000         0.00000         0.00000
         0.00021        -0.00040        -0.00016
        -0.09316         0.13804         0.01648
         0.00706        -0.00351        -0.01197
         0.21713        -0.16802        -0.39864
         0.00000         0.00000         0.00000
         0.00000         0.00000         0.00000

 GEOMETRY PRIORITY, STEP = 0.2000 ANGSTROMS



     POINT   POTENTIAL  +  ENERGY LOST   =   TOTAL      ERROR    REF%   MOVEMENT
       1    -104.14726      0.00000       -104.14726   0.00000     1   %  0.0000
       8    -104.43682      0.64465       -103.79216   0.35510     2   %  0.1652
      22    -105.94566      2.42175       -103.52391   0.62335     3   %  0.3631
      37    -108.83082      5.32460       -103.50622   0.64105     4   %  0.5575
      49    -111.39037      7.89385       -103.49653   0.65074     5   %  0.7379
      61    -113.93644     10.12022       -103.81622   0.33104     6   %  0.9341
      71    -115.80188     11.76794       -104.03393   0.11333     7   %  1.1249
      79    -116.86235     12.93068       -103.93167   0.21559     8   %  1.2974
      87    -117.87256     13.92619       -103.94637   0.20089     9   %  1.4830
      94    -118.40687     14.63768       -103.76919   0.37807    10   %  1.6464
     101    -118.99506     15.24625       -103.74881   0.39845    11   %  1.8155
     107    -119.31580     15.76195       -103.55385   0.59341    12   %  1.9535
     114    -119.62265     16.26794       -103.35471   0.79256    13   %  2.0738
     122    -119.84169     16.76315       -103.07854   1.06872    14   %  2.1839
     130    -120.05804     17.26042       -102.79762   1.34964    15   %  2.2866
     138    -120.25452     17.76730       -102.48722   1.66004    16   %  2.3834
     146    -120.43541     18.23870       -102.19670   1.95056    17   %  2.4665
     155    -120.62849     18.80913       -101.81936   2.32790    18   %  2.5628
     164    -120.78077     19.33239       -101.44837   2.69889    19   %  2.6462
     173    -120.86774     19.88332       -100.98442   3.16284    20   %  2.7309
     181    -121.02409     20.38181       -100.64228   3.50498    21   %  2.8039
     190    -121.22175     20.96085       -100.26089   3.88637    22   %  2.8867
     199    -121.38560     21.54835        -99.83726   4.31001    23   %  2.9716
     208    -121.65883     22.16463        -99.49420   4.65306    24   %  3.0611
     216    -121.90441     22.73227        -99.17215   4.97512    25   %  3.1458
     224    -122.17671     23.32229        -98.85442   5.29284    26   %  3.2357
     232    -122.45505     23.93092        -98.52412   5.62314    27   %  3.3312
     240    -122.78084     24.55891        -98.22194   5.92532    28   %  3.4323
     248    -123.12478     25.19911        -97.92567   6.22159    29   %  3.5384
     256    -123.47024     25.84186        -97.62838   6.51888    30   %  3.6484
     264    -123.86794     26.48610        -97.38183   6.76543    31   %  3.7603
     271    -124.18526     27.03978        -97.14548   7.00178    32   %  3.8585
     279    -124.51641     27.66201        -96.85440   7.29286    33   %  3.9708
     287    -124.82090     28.26316        -96.55774   7.58952    34   %  4.0811
     295    -125.09767     28.84349        -96.25418   7.89308    35   %  4.1878
     303    -125.35275     29.41298        -95.93978   8.20749    36   %  4.2895
     311    -125.59164     29.96299        -95.62865   8.51861    37   %  4.3866
     319    -125.81108     30.49727        -95.31381   8.83345    38   %  4.4782
     328    -126.08302     31.07299        -95.01003   9.13723    39   %  4.5737
     337    -126.25993     31.63713        -94.62280   9.52446    40   %  4.6667
     346    -126.46037     32.19069        -94.26968   9.87758    41   %  4.7503
     354    -126.56331     32.66989        -93.89342  10.25384    42   %  4.8212
     364    -126.72507     33.25737        -93.46770  10.67956    43   %  4.9057
     373    -126.82799     33.77553        -93.05247  11.09479    44   %  4.9794
     382    -126.94617     34.28795        -92.65822  11.48904    45   %  5.0444
     392    -127.05454     34.85383        -92.20071  11.94655    46   %  5.1157
     402    -127.21390     35.41191        -91.80199  12.34527    47   %  5.1855
     411    -127.22862     35.94025        -91.28837  12.85889    48   %  5.2481
     420    -127.29991     36.39827        -90.90164  13.24562    49   %  5.2989
     430    -127.42513     36.94217        -90.48296  13.66430    50   %  5.3583
     438    -127.48308     37.37433        -90.10875  14.03851    51   %  5.4034
     447    -127.78710     37.85538        -89.93171  14.21555    52   %  5.4571
     455    -127.86617     38.27988        -89.58629  14.56097    53   %  5.5028
     462    -127.88625     38.66463        -89.22162  14.92564    54   %  5.5360
     470    -127.96165     39.11657        -88.84508  15.30218    55   %  5.5762
     479    -127.96985     39.63040        -88.33945  15.80781    56   %  5.6207
     488    -128.05769     40.16085        -87.89683  16.25043    57   %  5.6618
     498    -128.10390     40.75305        -87.35084  16.79642    58   %  5.7063
     508    -128.14363     41.35670        -86.78692  17.36034    59   %  5.7498
     519    -128.14367     42.01387        -86.12980  18.01746    60   %  5.7939
     530    -128.21076     42.67345        -85.53730  18.60996    61   %  5.8376
     541    -128.21389     43.30436        -84.90953  19.23773    62   %  5.8780
     553    -128.24972     43.99040        -84.25932  19.88794    63   %  5.9212
     565    -128.28710     44.65936        -83.62773  20.51953    64   %  5.9626
     577    -128.31265     45.31803        -82.99462  21.15264    65   %  6.0014
     589    -128.33988     45.97178        -82.36810  21.77916    66   %  6.0382
     601    -128.40773     46.61780        -81.78993  22.35733    67   %  6.0738
     613    -128.43583     47.27077        -81.16506  22.98221    68   %  6.1085
     625    -128.37904     47.94341        -80.43562  23.71164    69   %  6.1428
     635    -128.39588     48.53455        -79.86132  24.28594    70   %  6.1719
     645    -128.44223     49.17222        -79.27001  24.87725    71   %  6.2023
     654    -128.48805     49.77448        -78.71357  25.43369    72   %  6.2253
     662    -128.49993     50.35595        -78.14398  26.00328    73   %  6.2491
     671    -128.47257     51.06317        -77.40941  26.73786    74   %  6.2819
     679    -128.49167     51.71449        -76.77718  27.37008    75   %  6.3066
     687    -128.50300     52.41665        -76.08635  28.06091    76   %  6.3320
     695    -128.50498     53.19214        -75.31284  28.83442    77   %  6.3578
     704    -128.53967     54.08870        -74.45097  29.69629    78   %  6.3813
     712    -128.55984     55.04037        -73.51946  30.62780    79   %  6.4089
     720    -128.58563     56.14945        -72.43618  31.71108    80   %  6.4376
     728    -128.59966     57.42200        -71.17766  32.96960    81   %  6.4693
     736    -128.67094     58.37508        -70.29586  33.85140    82   %  6.4964
     746    -128.62220     59.08379        -69.53840  34.60886    83   %  6.5218
     756    -128.62844     59.94074        -68.68770  35.45956    84   %  6.5484
     765    -128.67581     60.97997        -67.69584  36.45142    85   %  6.5760
     774    -128.65653     62.40886        -66.24767  37.89959    86   %  6.6154
     782    -128.64355     63.71321        -64.93034  39.21692    87   %  6.6434
     789    -128.67625     65.15625        -63.52001  40.62725    88   %  6.6691
     797    -128.82837     65.71813        -63.11024  41.03702    89   %  6.6775
     806    -128.84046     66.34312        -62.49734  41.64992    90   %  6.6941
     816    -128.85202     67.28144        -61.57058  42.57668    91   %  6.7168
     825    -128.75834     68.58230        -60.17604  43.97122    92   %  6.7481
     833    -128.76039     70.09000        -58.67039  45.47687    93   %  6.7782
     842    -128.83624     70.63516        -58.20108  45.94618    94   %  6.7906
     852    -128.83463     71.42928        -57.40535  46.74191    95   %  6.8098
     861    -128.91139     72.34027        -56.57112  47.57614    96   %  6.8269
     870    -128.93613     73.69444        -55.24170  48.90557    97   %  6.8509
     880    -128.88888     74.48293        -54.40595  49.74131    98   %  6.8749
     890    -128.95478     75.44137        -53.51340  50.63386    99   %  6.8930
     899    -128.80153     77.03072        -51.77080  52.37646   100   %  6.9236
     907    -128.97110     78.27850        -50.69260  53.45466   101   %  6.9398
     916    -128.88650     78.87845        -50.00804  54.13922   102   %  6.9608
     925    -129.13014     79.58033        -49.54981  54.59745   103   %  6.9756
     935    -128.99248     80.56355        -48.42893  55.71833   104   %  6.9962
     944    -128.87129     81.66388        -47.20742  56.93985   105   %  7.0166
     952    -128.99666     83.03860        -45.95806  58.18920   106   %  7.0370
     962    -128.98099     83.68469        -45.29631  58.85095   107   %  7.0480
     971    -128.95642     84.21009        -44.74633  59.40093   108   %  7.0650


           POTENTIAL ENERGY HAS STOPPED DROPPING


 **********************
 *                    *
 * JOB ENDED NORMALLY *
 *                    *
 **********************



 TOTAL JOB TIME:            22.93 SECONDS

 == MOPAC DONE ==
