 *******************************************************************************
 ** Site#: 10005        For non-commercial use only     Version 15.317W 64BITS**
 *******************************************************************************
 ** Cite this work as:                                                        **
 **                                                                           **
 ** (a) MOPAC2012, James J. P. Stewart, Stewart Computational Chemistry,      **
 **  Version 15.317W web: HTTP://OpenMOPAC.net         Days remaining: 365    **
 **                                                                           **
 **                                 AND                                       **
 **                                                                           **
 ** (b) Maia, J.D.C., et al., J. Chem. Theory Comput. 2012, 8, 3072-3081.     **
 **                DOI: 10.1021/ct3004645.                                    **
 *******************************************************************************
 **                                                                           **
 **                                MOPAC2012                                  **
 **                                                                           **
 *******************************************************************************

                              PM7 CALCULATION RESULTS


 *******************************************************************************
 *  CALCULATION DONE:                                Fri Nov 13 08:51:37 2015  *
 *
 *
 *
 *                 CHARGE ON SYSTEM =     1
 *
 *
 *
 *  EPS= 78.40 - USE ANDREAS KLAMT'S COSMO IMPLICIT SOLVATION MODEL
 *  IRC=N      - INTRINSIC REACTION COORDINATE  1 DEFINED
 *  LET        - OVERRIDE SOME SAFETY CHECKS
 *  PRECISE    - CRITERIA TO BE INCREASED BY 100 TIMES
 *  FORCETS    - VERIFY THAT TRANSITION STATE IS GENUINE
 *  T=         - A TIME OF 172800.0 SECONDS REQUESTED
 *  DUMP=N     - RESTART FILE WRITTEN EVERY  7200.000 SECONDS
 *  X-PRIOR    - GEOMETRY CHANGES TAKE PRIORITY IN DRC
 *******************************************************************************
 irc=1* forcets  charge=1 eps=78.4  let HTML x-priority=0.2 precise
 Transition state for Step 2 to Step 3

   ATOM                 CHEMICAL                   X               Y               Z
  NUMBER                 SYMBOL               (ANGSTROMS)     (ANGSTROMS)     (ANGSTROMS)
 
     1       C(HETATM    1  C1  HET A   3)   -0.08303523      0.07036897      0.05137285   
     2       C(HETATM    2  C2  HET A   3)    1.21616841  *   0.12913845  *   0.78116289  *
     3       O(HETATM    3  O1  HET A   3)    1.96650194      1.22109428      0.82382088   
     4       O(HETATM    4  O2  HET A   3)    2.02285928  *  -1.05513877  *   0.46034882  *
     5       C(HETATM    5  C3  HET A   3)    3.44859705     -0.87053280      0.22667442   
     6       C(HETATM    6  C4  HET A   3)    3.91793330     -2.25401270     -0.16633393   
     7       H(HETATM    7 1H1  HET A   3)    0.03899803     -0.13964579     -1.02633299   
     8       H(HETATM    8 2H1  HET A   3)   -0.73662044     -0.72860532      0.45346557   
     9       H(HETATM    9 3H1  HET A   3)   -0.64400379      1.01890153      0.13615096   
    10       H(HETATM   10 1H3  HET A   3)    3.55999802     -0.12282300     -0.57914723   
    11       H(HETATM   11 2H3  HET A   3)    3.90616197     -0.48773757      1.15576565   
    12       H(HETATM   12 1H4  HET A   3)    3.64815899     -3.00990650      0.58609093   
    13       H(HETATM   13 2H4  HET A   3)    3.48875879     -2.58071860     -1.12424305   
    14       H(HETATM   14 3H4  HET A   3)    5.01361307     -2.27618485     -0.27235846   
    15       H(HETATM   15 1H   HOH A   5)    1.46166108      0.12582177      2.86489531   
    16       O(HETATM   16  O   HOH A   4)    0.99992594  *   3.15993714  *  -0.44615936  *
    17       O(HETATM   17  O   HOH A   5)    0.99924582  *  -0.39443486  *   2.13988707  *
    18       H(HETATM   18 1H   HOH A   4)    1.55228501  *   2.07927645  *   0.27399936  *
    19       H(HETATM   19 2H   HOH A   5)    1.79402721  *  -1.41973268  *   1.73123507  *
    20       H(HETATM   20 2H   HOH A   4)    1.02119737      3.90165674      0.19965403   
    21       H(HETATM   21 3H   HOH A   4)    1.71740601      3.39151269     -1.07881566   
 

     ===================== shared-memory parallel CPU Section ======================
     **                                                                           **
     **  MOPAC calculations will run in shared-memory parallel CPUs               **
     **                                                                           **
     **  Number of Threads =  4                                                   **
     **                                                                           **
     **                                                                           **
     **  For information on this work, see:                                       **
     **                                                                           **
     **  Maia, J.D.C., et al., J. Chem. Theory Comput. 2012, 8, 3072-3081.        **
     **        DOI: 10.1021/ct3004645.                                            **
     **                                                                           **
     ===================== shared-memory parallel CPU Section ======================
      


 General Reference for PM7:
 "Optimization of Parameters for Semiempirical Methods VI: More Modifications to the 
 NDDO Approximations and Re-optimization of Parameters", J. J. P. Stewart, J. Mol. Mod., 1:32, 19 (2013)
 http://www.springerlink.com/openurl.asp?genre=article&id=doi:10.1007/s00894-012-1667-x

           Empirical Formula: C4 H13 O4  =    21 atoms



      MOLECULAR POINT GROUP   :   C1  


      RHF CALCULATION, NO. OF DOUBLY OCCUPIED LEVELS =   26



          HEAT OF FORMATION =    -104.168106 KCALS/MOLE


          GRADIENT NORM =   1.75619


          TIME FOR SCF CALCULATION =    0.01

          TIME FOR DERIVATIVES     =    0.03

          ESTIMATED TIME TO COMPLETE CALCULATION =        3.23 SECONDS
 STEP:   1 TIME =     0.08 SECS, INTEGRAL =      0.08 TIME LEFT: 172799.88
 STEP:   2 TIME =     0.06 SECS, INTEGRAL =      0.14 TIME LEFT: 172799.82
 STEP:   3 TIME =     0.08 SECS, INTEGRAL =      0.22 TIME LEFT: 172799.74
 STEP:   4 TIME =     0.06 SECS, INTEGRAL =      0.28 TIME LEFT: 172799.68
 STEP:   5 TIME =     0.06 SECS, INTEGRAL =      0.34 TIME LEFT: 172799.61
 STEP:   6 TIME =     0.08 SECS, INTEGRAL =      0.42 TIME LEFT: 172799.54
 STEP:   7 TIME =     0.06 SECS, INTEGRAL =      0.48 TIME LEFT: 172799.47
 STEP:   8 TIME =     0.08 SECS, INTEGRAL =      0.56 TIME LEFT: 172799.39
 STEP:   9 TIME =     0.08 SECS, INTEGRAL =      0.64 TIME LEFT: 172799.32
 STEP:  10 TIME =     0.08 SECS, INTEGRAL =      0.72 TIME LEFT: 172799.24
 STEP:  11 TIME =     0.08 SECS, INTEGRAL =      0.79 TIME LEFT: 172799.16
 STEP:  12 TIME =     0.08 SECS, INTEGRAL =      0.87 TIME LEFT: 172799.08
 STEP:  13 TIME =     0.06 SECS, INTEGRAL =      0.94 TIME LEFT: 172799.02
 STEP:  14 TIME =     0.08 SECS, INTEGRAL =      1.01 TIME LEFT: 172798.94
 STEP:  15 TIME =     0.09 SECS, INTEGRAL =      1.11 TIME LEFT: 172798.85
 STEP:  16 TIME =     0.08 SECS, INTEGRAL =      1.19 TIME LEFT: 172798.77
 STEP:  17 TIME =     0.08 SECS, INTEGRAL =      1.26 TIME LEFT: 172798.69
 STEP:  18 TIME =     0.09 SECS, INTEGRAL =      1.36 TIME LEFT: 172798.60
           INITIAL VELOCITY IN DRC (Angstroms/Femtosecond)
         0.00000         0.00000         0.00000
         0.08172        -0.05030        -0.13897
         0.00000         0.00000         0.00000
         0.01200         0.07073        -0.14652
         0.00000         0.00000         0.00000
         0.00000         0.00000         0.00000
         0.00000         0.00000         0.00000
         0.00000         0.00000         0.00000
         0.00000         0.00000         0.00000
         0.00000         0.00000         0.00000
         0.00000         0.00000         0.00000
         0.00000         0.00000         0.00000
         0.00000         0.00000         0.00000
         0.00000         0.00000         0.00000
         0.00000         0.00000         0.00000
        -0.00027         0.00058         0.00005
         0.09641        -0.14230        -0.01522
        -0.00701         0.00302         0.01233
        -0.22380         0.16782         0.39041
         0.00000         0.00000         0.00000
         0.00000         0.00000         0.00000

 GEOMETRY PRIORITY, STEP = 0.2000 ANGSTROMS



     POINT   POTENTIAL  +  ENERGY LOST   =   TOTAL      ERROR    REF%   MOVEMENT
       1    -104.16811      0.00000       -104.16811   0.00000     1   %  0.0000
       8    -104.85954      0.71451       -104.14504   0.02307     2   %  0.1535
      24    -106.88052      3.01973       -103.86078   0.30732     3   %  0.3445
      41    -110.81622      6.94074       -103.87548   0.29263     4   %  0.5370
      55    -114.26391     10.35603       -103.90788   0.26023     5   %  0.7120
      67    -117.08397     12.98993       -104.09405   0.07406     6   %  0.8754
      78    -119.20340     15.07046       -104.13295   0.03516     7   %  1.0468
      87    -120.80845     16.54923       -104.25922  -0.09111     8   %  1.2156
      94    -122.13226     17.68398       -104.44829  -0.28018     9   %  1.3850
     102    -123.14074     18.59571       -104.54503  -0.37692    10   %  1.5558
     109    -123.85222     19.30420       -104.54802  -0.37992    11   %  1.7204
     116    -124.44091     19.93924       -104.50167  -0.33356    12   %  1.8850
     123    -124.92147     20.58111       -104.34036  -0.17225    13   %  2.0044
     130    -125.31449     21.15474       -104.15975   0.00835    14   %  2.1148
     137    -125.55402     21.74157       -103.81244   0.35566    15   %  2.2185
     144    -125.93914     22.32875       -103.61038   0.55772    16   %  2.3177
     150    -126.29625     22.86010       -103.43615   0.73196    17   %  2.4038
     157    -126.73968     23.50629       -103.23339   0.93471    18   %  2.5061
     165    -127.25778     24.26155       -102.99623   1.17188    19   %  2.6256
     172    -127.69960     24.92829       -102.77131   1.39680    20   %  2.7322
     179    -128.18884     25.60469       -102.58415   1.58395    21   %  2.8398
     187    -128.70084     26.35681       -102.34403   1.82408    22   %  2.9612
     194    -129.09816     26.98075       -102.11742   2.05069    23   %  3.0647
     202    -129.49173     27.66201       -101.82972   2.33839    24   %  3.1770
     210    -129.85393     28.30260       -101.55133   2.61678    25   %  3.2838
     218    -130.13920     28.90125       -101.23795   2.93016    26   %  3.3843
     226    -130.32531     29.46633       -100.85898   3.30912    27   %  3.4785
     235    -130.62908     30.06972       -100.55936   3.60875    28   %  3.5778
     243    -130.80939     30.58015       -100.22923   3.93887    29   %  3.6619
     251    -130.97358     31.07614        -99.89744   4.27066    30   %  3.7394
     260    -131.11665     31.62718        -99.48948   4.67863    31   %  3.8208
     268    -131.24754     32.12114        -99.12640   5.04170    32   %  3.8892
     278    -131.35953     32.72957        -98.62996   5.53815    33   %  3.9709
     288    -131.47958     33.33305        -98.14653   6.02157    34   %  4.0486
     299    -131.40892     34.00290        -97.40602   6.76209    35   %  4.1303
     309    -131.46648     34.64084        -96.82564   7.34246    36   %  4.2063
     320    -131.58511     35.25606        -96.32905   7.83905    37   %  4.2791
     330    -131.66643     35.86113        -95.80531   8.36280    38   %  4.3497
     341    -131.74324     36.58079        -95.16245   9.00566    39   %  4.4297
     352    -131.74605     37.17504        -94.57100   9.59710    40   %  4.4926
     363    -131.73335     37.83927        -93.89408  10.27403    41   %  4.5595
     374    -131.79987     38.48599        -93.31388  10.85422    42   %  4.6253
     386    -131.83888     39.20486        -92.63402  11.53408    43   %  4.6933
     397    -131.88055     39.86805        -92.01250  12.15560    44   %  4.7514
     409    -131.92698     40.59264        -91.33435  12.83376    45   %  4.8139
     420    -131.97495     41.25690        -90.71804  13.45006    46   %  4.8677
     432    -131.93599     41.99632        -89.93967  14.22844    47   %  4.9244
     444    -131.97482     42.74062        -89.23420  14.93391    48   %  4.9806
     456    -132.01826     43.49387        -88.52439  15.64372    49   %  5.0356
     468    -132.06112     44.26041        -87.80071  16.36740    50   %  5.0899
     480    -132.12888     45.05685        -87.07203  17.09608    51   %  5.1437
     492    -132.16794     45.89051        -86.27743  17.89068    52   %  5.1984
     504    -132.19466     46.72338        -85.47128  18.69683    53   %  5.2516
     516    -132.23717     47.55838        -84.67879  19.48932    54   %  5.3037
     528    -132.34242     48.39622        -83.94620  20.22191    55   %  5.3553
     539    -132.30440     49.20200        -83.10240  21.06571    56   %  5.4017
     551    -132.23049     50.05134        -82.17915  21.98896    57   %  5.4539
     564    -132.32336     50.97073        -81.35263  22.81547    58   %  5.5102
     576    -132.38550     51.84503        -80.54047  23.62763    59   %  5.5610
     588    -132.30139     52.78090        -79.52049  24.64762    60   %  5.6094
     600    -132.34956     53.65625        -78.69332  25.47479    61   %  5.6554
     613    -132.32595     54.73961        -77.58633  26.58177    62   %  5.7101


           POTENTIAL ENERGY HAS STOPPED DROPPING

           INITIAL VELOCITY IN DRC (Angstroms/Femtosecond)
         0.00000         0.00000         0.00000
        -0.08172         0.05030         0.13897
         0.00000         0.00000         0.00000
        -0.01200        -0.07073         0.14652
         0.00000         0.00000         0.00000
         0.00000         0.00000         0.00000
         0.00000         0.00000         0.00000
         0.00000         0.00000         0.00000
         0.00000         0.00000         0.00000
         0.00000         0.00000         0.00000
         0.00000         0.00000         0.00000
         0.00000         0.00000         0.00000
         0.00000         0.00000         0.00000
         0.00000         0.00000         0.00000
         0.00000         0.00000         0.00000
         0.00027        -0.00058        -0.00005
        -0.09641         0.14230         0.01522
         0.00701        -0.00302        -0.01233
         0.22380        -0.16782        -0.39041
         0.00000         0.00000         0.00000
         0.00000         0.00000         0.00000

 GEOMETRY PRIORITY, STEP = 0.2000 ANGSTROMS



     POINT   POTENTIAL  +  ENERGY LOST   =   TOTAL      ERROR    REF%   MOVEMENT
       1    -104.16811      0.00000       -104.16811   0.00000     1   %  0.0000
       8    -104.46764      0.70749       -103.76015   0.40796     2   %  0.1649
      22    -105.98539      2.48065       -103.50474   0.66337     3   %  0.3569
      37    -108.91807      5.38805       -103.53002   0.63809     4   %  0.5524
      50    -111.48700      7.99732       -103.48969   0.67842     5   %  0.7379
      62    -114.08226     10.24693       -103.83533   0.33277     6   %  0.9396
      71    -115.71603     11.69105       -104.02497   0.14313     7   %  1.1073
      80    -116.88369     12.94203       -103.94166   0.22645     8   %  1.2921
      88    -117.90950     13.95384       -103.95566   0.21245     9   %  1.4821
      95    -118.40771     14.62720       -103.78051   0.38760    10   %  1.6382
     102    -119.05901     15.23515       -103.82386   0.34424    11   %  1.8088
     109    -119.32553     15.75981       -103.56572   0.60239    12   %  1.9541
     116    -119.60470     16.25203       -103.35268   0.81543    13   %  2.0682
     123    -119.78736     16.71706       -103.07030   1.09781    14   %  2.1728
     131    -120.01640     17.26028       -102.75612   1.41199    15   %  2.2843
     139    -120.20673     17.72687       -102.47986   1.68825    16   %  2.3746
     148    -120.41580     18.27890       -102.13690   2.03121    17   %  2.4727
     156    -120.58386     18.76392       -101.81995   2.34816    18   %  2.5537
     165    -120.74355     19.30747       -101.43609   2.73202    19   %  2.6413
     174    -120.85225     19.87844       -100.97380   3.19430    20   %  2.7289
     183    -121.00987     20.41580       -100.59407   3.57404    21   %  2.8080
     192    -121.20715     20.99565       -100.21151   3.95660    22   %  2.8909
     200    -121.37469     21.51922        -99.85547   4.31263    23   %  2.9661
     209    -121.60141     22.12270        -99.47871   4.68940    24   %  3.0539
     217    -121.83987     22.68919        -99.15068   5.01743    25   %  3.1368
     226    -122.15923     23.35488        -98.80435   5.36375    26   %  3.2377
     234    -122.42779     23.96224        -98.46556   5.70255    27   %  3.3325
     242    -122.75346     24.58669        -98.16677   6.00134    28   %  3.4329
     250    -123.10472     25.22725        -97.87747   6.29064    29   %  3.5383
     257    -123.38515     25.78949        -97.59566   6.57245    30   %  3.6327
     265    -123.74963     26.43409        -97.31554   6.85257    31   %  3.7440
     273    -124.16357     27.06717        -97.09641   7.07170    32   %  3.8569
     281    -124.49015     27.68579        -96.80436   7.36375    33   %  3.9686
     288    -124.78156     28.21423        -96.56734   7.60077    34   %  4.0660
     296    -125.06394     28.79898        -96.26496   7.90314    35   %  4.1722
     304    -125.31210     29.36956        -95.94254   8.22556    36   %  4.2738
     313    -125.56200     29.99051        -95.57149   8.59662    37   %  4.3834
     321    -125.77285     30.52133        -95.25152   8.91658    38   %  4.4748
     329    -125.96697     31.04157        -94.92540   9.24270    39   %  4.5615
     338    -126.22477     31.60755        -94.61722   9.55089    40   %  4.6510
     347    -126.38667     32.16063        -94.22605   9.94206    41   %  4.7391
     356    -126.53476     32.69706        -93.83769  10.33041    42   %  4.8176
     365    -126.66054     33.22339        -93.43716  10.73095    43   %  4.8960
     374    -126.80711     33.74360        -93.06351  11.10460    44   %  4.9657
     384    -126.94141     34.31363        -92.62778  11.54033    45   %  5.0410
     394    -127.02281     34.88569        -92.13713  12.03098    46   %  5.1136
     403    -127.07443     35.38836        -91.68607  12.48204    47   %  5.1768
     413    -127.18275     35.94917        -91.23359  12.93452    48   %  5.2430
     423    -127.26989     36.50315        -90.76674  13.40137    49   %  5.3049
     432    -127.39692     36.99168        -90.40524  13.76287    50   %  5.3556
     441    -127.41900     37.47249        -89.94651  14.22160    51   %  5.4086
     450    -127.52280     37.95015        -89.57265  14.59545    52   %  5.4546
     459    -127.87085     38.43187        -89.43897  14.72913    53   %  5.5078
     467    -127.93534     38.85217        -89.08317  15.08493    54   %  5.5510
     475    -127.88703     39.27490        -88.61213  15.55598    55   %  5.5896
     482    -127.95218     39.65530        -88.29688  15.87123    56   %  5.6189
     490    -128.03960     40.09144        -87.94816  16.21995    57   %  5.6552
     499    -128.03996     40.59127        -87.44868  16.71942    58   %  5.6964
     508    -128.14338     41.10688        -87.03650  17.13160    59   %  5.7330
     517    -128.12510     41.61434        -86.51076  17.65734    60   %  5.7701
     527    -128.16555     42.19133        -85.97422  18.19388    61   %  5.8091
     537    -128.20366     42.78012        -85.42355  18.74456    62   %  5.8482
     547    -128.23135     43.37303        -84.85832  19.30979    63   %  5.8862
     558    -128.28657     44.01132        -84.27524  19.89286    64   %  5.9258
     569    -128.27382     44.63028        -83.64354  20.52456    65   %  5.9641
     581    -128.24025     45.29457        -82.94568  21.22243    66   %  6.0023
     592    -128.36165     45.89639        -82.46526  21.70285    67   %  6.0362
     605    -128.36796     46.59438        -81.77358  22.39453    68   %  6.0744
     617    -128.43934     47.24410        -81.19523  22.97287    69   %  6.1091
     628    -128.38233     47.85357        -80.52876  23.63934    70   %  6.1387
     639    -128.39639     48.50019        -79.89621  24.27190    71   %  6.1718
     649    -128.40866     49.14609        -79.26257  24.90554    72   %  6.2023
     658    -128.47037     49.78240        -78.68797  25.48013    73   %  6.2269


           POTENTIAL ENERGY HAS STOPPED DROPPING



           WARNING: There are extra data at the end of the input data set.
                    There might be an error in the data set.


 **********************
 *                    *
 * JOB ENDED NORMALLY *
 *                    *
 **********************



 TOTAL JOB TIME:            20.16 SECONDS

 == MOPAC DONE ==
