 *******************************************************************************
 ** Site#: 37037        For non-commercial use only           Version 21.153W **
 *******************************************************************************
 ** Cite this program as: MOPAC2016, Version: 21.153W, James J. P. Stewart,   **
 ** Stewart Computational Chemistry, web: HTTP://OpenMOPAC.net. Days left: 362**
 *******************************************************************************
 **                                                                           **
 **                                MOPAC2016                                  **
 **                                                                           **
 *******************************************************************************

                              PM7 CALCULATION RESULTS

 *******************************************************************************
 *  CALCULATION DONE:                                Sat Jun  5 16:46:34 2021  *
 *  GEO-OK     - OVERRIDE INTERATOMIC DISTANCE AND OTHER SAFETY CHECKS
 *  GEO_DAT    - DATA SET GEOMETRY IS IN FILE "3 Acetic acid H3O(+) plus ethanol.arc"
 *  GEO_REF    - REFERENCE GEOMETRY IS IN FILE "2 CH3-C(+)(H2O)(OH)-O-C2H5 plus H2O.arc"
 *               (NO BIAS TOWARDS THE REFERENCE GEOMETRY WILL BE APPLIED)
 *  NOSWAP     - DO NOT SWAP ATOMS EVEN IF IT WILL IMPROVE OVERLAP IN GEO_REF
 *  OPT        - OPTIMIZE COORDINATES OF ALL ATOMS
 *
 *
 *
 *                 CHARGE ON SYSTEM = +1
 *
 *
 *
 *  EPS=78.4   - USE ANDREAS KLAMT'S COSMO IMPLICIT SOLVATION MODEL
 *  LET        - OVERRIDE SOME SAFETY CHECKS
 *  XYZ        - CARTESIAN COORDINATE SYSTEM TO BE USED
 *  SADDLE     - TRANSITION STATE TO BE OPTIMIZED
 *  T=         - A TIME OF 172800.0 SECONDS REQUESTED
 *  DUMP=N     - RESTART FILE WRITTEN EVERY 7200.0 SECONDS REQUESTED
 *  GNORM      - EXIT WHEN GRADIENT NORM DROPS BELOW 2.000
 *  HTML       - WRITE HTML SCRIPT TO READ PDB FILE USING JSMOL
 *******************************************************************************
geo_dat="3 Acetic acid H3O(+) plus ethanol.arc" geo_ref="2 CH3-C(+)(H2O)(OH)-O-C2H5 plus H2O.arc" saddle opt xyz charge=1 eps=78.4 gnorm=2   let noswap HTML GEO-OK
 Locate the transition state for the ester hydrolysis reaction

   ATOM                 CHEMICAL                   X               Y               Z
  NUMBER                 SYMBOL               (ANGSTROMS)     (ANGSTROMS)     (ANGSTROMS)
 
     1       C(HETATM    1  C1  ACY A   1)    0.00000000  *   0.00000000  *   0.00000000  *
     2       C(HETATM    2  C2  ACY A   1)    1.47157025  *   0.00000000  *   0.00000000  *
     3       O(HETATM    3  O   ACY A   1)    2.21221166  *   1.01174600  *   0.00000000  *
     4       O(HETATM    4  O   EOH B   2)    1.53193064  *  -0.20244122  *  -2.28945822  *
     5       C(HETATM    5  C1  EOH B   2)    2.46699579  *   0.57900730  *  -3.02287700  *
     6       C(HETATM    6  C2  EOH B   2)    2.32841570  *   0.29973712  *  -4.50976992  *
     7       H(HETATM    7 1H1  ACY A   1)   -0.40715115  *   0.22862486  *  -1.00843254  *
     8       H(HETATM    8 2H1  ACY A   1)   -0.43566458  *  -0.97477987  *   0.29302948  *
     9       H(HETATM    9 3H1  ACY A   1)   -0.41598720  *   0.76155457  *   0.68760357  *
    10       H(HETATM   10 1H1  EOH B   2)    2.19131218  *   1.61531327  *  -2.75290047  *
    11       H(HETATM   11 2H1  EOH B   2)    3.48021834  *   0.35733037  *  -2.63987608  *
    12       H(HETATM   12 1H2  EOH B   2)    2.54162316  *  -0.75134722  *  -4.74580127  *
    13       H(HETATM   13 2H2  EOH B   2)    1.31198731  *   0.51354436  *  -4.86427825  *
    14       H(HETATM   14 3H2  EOH B   2)    3.02021365  *   0.91876761  *  -5.09642285  *
    15       H(HETATM   15  H   ACY G   1)    3.04642378  *  -1.18517995  *   0.13042667  *
    16       O(HETATM   16  O   HOH F   3)    1.02461830  *   3.09866963  *  -0.63058502  *
    17       O(HETATM   17  O   ACY G   1)    2.03383052  *  -1.19196264  *   0.13592895  *
    18       H(HETATM   18  H   UNK G    )    1.62730726  *   2.15411596  *  -0.32326341  *
    19       H(HETATM   19  H   EOH B   2)    1.65712234  *  -1.16191976  *  -2.46670838  *
    20       H(HETATM   20 1H   HOH F   3)    0.87321479  *   3.59172627  *   0.23568696  *
    21       H(HETATM   21 2H   HOH F   3)    1.70743087  *   3.68711147  *  -1.08186861  *
 

                        After docking

                     Atoms that move a lot

                     Atom Label             GEO_REF Coordinates       Movement    Integral

            (HETATM   19  H   EOH B   2)   2.263   0.565   2.554        2.97         2.97
            (HETATM   21 2H   HOH F   3)   1.228   3.730  -0.628        1.95         4.92
            (HETATM   20 1H   HOH F   3)   1.153   3.648   0.930        1.86         6.79
            (HETATM    2  C2  ACY A   1)   1.427   0.031   0.019        1.70         8.49
            (HETATM   16  O   HOH F   3)   0.838   3.163   0.107        1.62        10.11
            (HETATM    3  O   ACY A   1)   2.150   1.061   0.019        1.47        11.58
            (HETATM    8 2H1  ACY A   1)  -0.479  -0.912   0.405        1.17        12.75
            (HETATM   14 3H2  EOH B   2)   4.798  -2.905  -0.214        1.10        13.85
            (HETATM   10 1H1  EOH B   2)   3.805  -0.649  -0.953        0.98        14.84
            (HETATM   17  O   ACY G   1)   1.523  -0.017   2.329        0.94        15.77
            (HETATM   13 2H2  EOH B   2)   3.278  -3.150  -1.097        0.90        16.68
            (HETATM   15  H   ACY G   1)   0.770   0.367   2.800        0.86        17.54
            (HETATM    7 1H1  ACY A   1)  -0.449   0.165  -1.008        0.82        18.36
            (HETATM   12 1H2  EOH B   2)   3.303  -3.265   0.670        0.80        19.16
            (HETATM    9 3H1  ACY A   1)  -0.468   0.849   0.634        0.74        19.90
            (HETATM    6  C2  EOH B   2)   3.714  -2.713  -0.187        0.71        20.61
            (HETATM    1  C1  ACY A   1)  -0.047   0.031   0.019        0.71        21.32
            (HETATM    4  O   EOH B   2)   1.985  -1.161  -0.082        0.54        21.86
            (HETATM    5  C1  EOH B   2)   3.439  -1.228  -0.087        0.47        22.33
            (HETATM   18  H   UNK G    )   1.502   2.198   0.076        0.36        22.68
            (HETATM   11 2H1  EOH B   2)   3.804  -0.773   0.851        0.35        23.03

     Residues that move a lot and their (Movement in Angstroms, per atom)


   Difference between GEO_DAT and GEO_REF: 23.032 = total,  1.0967 = Average,  1.2615 = RMS, in Angstroms

 General Reference for PM7:
 "Optimization of Parameters for Semiempirical Methods VI: More Modifications to the 
 NDDO Approximations and Re-optimization of Parameters", J. J. P. Stewart, J. Mol. Mod., 1:32, 19 (2013)
 https://link.springer.com/article/10.1007/s00894-012-1667-x

           Empirical Formula: C4 H13 O4  =    21 atoms



      MOLECULAR POINT GROUP   :   C1  


      RHF CALCULATION, NO. OF DOUBLY OCCUPIED LEVELS = 26



  CARTESIAN GEOMETRY OF FIRST SYSTEM


   1    C         -0.04706       0.03131       0.01860
   2    C          1.42702       0.03131       0.01860
   3    O          2.14996       1.06133       0.01860
   4    O          1.98528      -1.16076      -0.08230
   5    C          3.43914      -1.22850      -0.08660
   6    C          3.71405      -2.71338      -0.18696
   7    H         -0.44896       0.16507      -1.00762
   8    H         -0.47874      -0.91218       0.40490
   9    H         -0.46789       0.84917       0.63390
  10    H          3.80540      -0.64940      -0.95298
  11    H          3.80395      -0.77267       0.85140
  12    H          3.30259      -3.26472       0.67041
  13    H          3.27844      -3.15031      -1.09692
  14    H          4.79804      -2.90503      -0.21415
  15    H          0.76971       0.36743       2.79980
  16    O          0.83825       3.16278       0.10689
  17    O          1.52286      -0.01673       2.32942
  18    H          1.50163       2.19837       0.07616
  19    H          2.26276       0.56472       2.55425
  20    H          1.15273       3.64833       0.93042
  21    H          1.22825       3.73029      -0.62797


  CARTESIAN GEOMETRY OF SECOND SYSTEM


   1    C         -0.43048       0.32629       0.53521
   2    C          0.68947       0.53729       1.46618
   3    O          1.60172       1.38914       1.34640
   4    O          1.92401      -1.11548       0.45104
   5    C          3.30799      -0.88992       0.21304
   6    C          3.92353      -2.09773      -0.47277
   7    H         -0.10732      -0.22968      -0.37112
   8    H         -1.25894      -0.26103       0.97631
   9    H         -0.86262       1.28208       0.18090
  10    H          3.30682       0.01262      -0.42589
  11    H          3.79223      -0.65504       1.17885
  12    H          3.85340      -2.99770       0.15259
  13    H          3.41848      -2.32006      -1.42146
  14    H          4.98575      -1.92981      -0.69516
  15    H          1.40802      -0.02422       3.21839
  16    O          1.76348       2.34039      -0.94100
  17    O          0.63201      -0.17077       2.58454
  18    H          1.72782       1.93367       0.14673
  19    H          1.78614      -1.92173       0.99752
  20    H          1.34200       3.25424      -0.88041
  21    H          2.73391       2.57389      -1.08204


   "DISTANCE":     5.780889


  REACTION COORDINATE VECTOR


   1    C          0.38342      -0.29498      -0.51661
   2    C          0.73755      -0.50598      -1.44758
   3    O          0.54824      -0.32780      -1.32780
   4    O          0.06127      -0.04528      -0.53334
   5    C          0.13115      -0.33858      -0.29964
   6    C         -0.20948      -0.61565       0.28582
   7    H         -0.34164       0.39475      -0.63650
   8    H          0.78020      -0.65115      -0.57141
   9    H          0.39473      -0.43292       0.45300
  10    H          0.49858      -0.66202      -0.52709
  11    H          0.01173      -0.11763      -0.32745
  12    H         -0.55081      -0.26702       0.51782
  13    H         -0.14004      -0.83025       0.32454
  14    H         -0.18771      -0.97521       0.48101
  15    H         -0.63831       0.39165      -0.41859
  16    O         -0.92523       0.82239       1.04789
  17    O          0.89085       0.15404      -0.25512
  18    H         -0.22620       0.26470      -0.07058
  19    H          0.47661       2.48645       1.55674
  20    H         -0.18926       0.39409       1.81083
  21    H         -1.50566       1.15640       0.45408
 *+*+*+*+*+*+*+*+*+*+*+*+*+*+*+*+*+*+*+*+*+*+*+*+*+*+*+*+*+*+*+*+*+*+*+*+*+*+*+*+
            BAR SHORTENED BY       0.000 PERCENT


          FOR POINT    1 SECOND STRUCTURE
 DISTANCE A - B      5.780889
 HEAT             -133.818577
 GRADIENT NORM       1.921838
 DIRECTION COSINE    0.000295
 opt xyz charge=1 eps=78.4 gnorm=2   let noswap HTML GEO-OK
 Locate the transition state for the ester hydrolysis reaction

  C(HETATM    1  C1  ACY A   1)  -0.04740654 +1   0.02907239 +1   0.01764338 +1
  C(HETATM    2  C2  ACY A   1)   1.42753961 +1   0.03363263 +1   0.02205876 +1
  O(HETATM    3  O   ACY A   1)   2.14919691 +1   1.06453993 +1   0.01611749 +1
  O(HETATM    4  O   EOH B   2)   1.98549639 +1  -1.15807427 +1  -0.08149358 +1
  C(HETATM    5  C1  EOH B   2)   3.43899093 +1  -1.22825577 +1  -0.08654435 +1
  C(HETATM    6  C2  EOH B   2)   3.71409501 +1  -2.71347312 +1  -0.18708822 +1
  H(HETATM    7 1H1  ACY A   1)  -0.44953530 +1   0.16230717 +1  -1.00748077 +1
  H(HETATM    8 2H1  ACY A   1)  -0.47870638 +1  -0.91224369 +1   0.40436506 +1
  H(HETATM    9 3H1  ACY A   1)  -0.46842141 +1   0.84701836 +1   0.63278895 +1
  H(HETATM   10 1H1  EOH B   2)   3.80625218 +1  -0.65012670 +1  -0.95269712 +1
  H(HETATM   11 2H1  EOH B   2)   3.80437503 +1  -0.77304297 +1   0.85121910 +1
  H(HETATM   12 1H2  EOH B   2)   3.30201573 +1  -3.26472275 +1   0.66997029 +1
  H(HETATM   13 2H2  EOH B   2)   3.27855136 +1  -3.15079573 +1  -1.09665979 +1
  H(HETATM   14 3H2  EOH B   2)   4.79789917 +1  -2.90572594 +1  -0.21387455 +1
  H(HETATM   15  H   ACY G   1)   0.76997998 +1   0.36742622 +1   2.80024714 +1
  O(HETATM   16  O   HOH F   3)   0.83876020 +1   3.16268168 +1   0.10753322 +1
  O(HETATM   17  O   ACY G   1)   1.52313352 +1  -0.01640872 +1   2.32986266 +1
  H(HETATM   18  H   UNK G    )   1.50536593 +1   2.19701597 +1   0.07669026 +1
  H(HETATM   19  H   EOH B   2)   2.26267661 +1   0.56514186 +1   2.55528613 +1
  H(HETATM   20 1H   HOH F   3)   1.15280048 +1   3.65080812 +1   0.92891516 +1
  H(HETATM   21 2H   HOH F   3)   1.22772861 +1   3.73070903 +1  -0.62617568 +1
 
 TIME=     0.31
  REACTANTS AND PRODUCTS SWAPPED AROUND
 *+*+*+*+*+*+*+*+*+*+*+*+*+*+*+*+*+*+*+*+*+*+*+*+*+*+*+*+*+*+*+*+*+*+*+*+*+*+*+*+
            BAR SHORTENED BY       1.000 PERCENT
 

                    SINCE COS WAS JUST RESET,THE SEARCH IS BEING ENDED


          FOR POINT    2 FIRST  STRUCTURE
 DISTANCE A - B      5.723080
 HEAT             -130.025411
 GRADIENT NORM      13.749817
 DIRECTION COSINE    0.220628
 opt xyz charge=1 eps=78.4 gnorm=2   let noswap HTML GEO-OK
 Locate the transition state for the ester hydrolysis reaction

  C(HETATM    1  C1  ACY A   1)  -0.42703198 +1   0.32215191 +1   0.52994759 +1
  C(HETATM    2  C2  ACY A   1)   0.69662794 +1   0.53191999 +1   1.45366274 +1
  O(HETATM    3  O   ACY A   1)   1.60885860 +1   1.38412993 +1   1.33497698 +1
  O(HETATM    4  O   EOH B   2)   1.92452162 +1  -1.11429497 +1   0.44405467 +1
  C(HETATM    5  C1  EOH B   2)   3.30937645 +1  -0.89297224 +1   0.20787107 +1
  C(HETATM    6  C2  EOH B   2)   3.91841646 +1  -2.10619212 +1  -0.47047280 +1
  H(HETATM    7 1H1  ACY A   1)  -0.11104186 +1  -0.23148508 +1  -0.38059924 +1
  H(HETATM    8 2H1  ACY A   1)  -1.25789604 +1  -0.26893061 +1   0.96962997 +1
  H(HETATM    9 3H1  ACY A   1)  -0.86022416 +1   1.27872591 +1   0.18408790 +1
  H(HETATM   10 1H1  EOH B   2)   3.31319082 +1   0.00604012 +1  -0.43461590 +1
  H(HETATM   11 2H1  EOH B   2)   3.79204930 +1  -0.65670930 +1   1.17532719 +1
  H(HETATM   12 1H2  EOH B   2)   3.84582451 +1  -3.00133850 +1   0.15824505 +1
  H(HETATM   13 2H2  EOH B   2)   3.41336104 +1  -2.33056182 +1  -1.41918074 +1
  H(HETATM   14 3H2  EOH B   2)   4.98337348 +1  -1.94267760 +1  -0.69074867 +1
  H(HETATM   15  H   ACY G   1)   1.40401262 +1  -0.01854903 +1   3.21636010 +1
  O(HETATM   16  O   HOH F   3)   1.75414914 +1   2.34927212 +1  -0.93395296 +1
  O(HETATM   17  O   ACY G   1)   0.63805474 +1  -0.16907559 +1   2.58059400 +1
  H(HETATM   18  H   UNK G    )   1.71554441 +1   1.93434175 +1   0.14883852 +1
  H(HETATM   19  H   EOH B   2)   1.78889480 +1  -1.89937056 +1   1.01399043 +1
  H(HETATM   20 1H   HOH F   3)   1.33643300 +1   3.26819154 +1  -0.86042768 +1
  H(HETATM   21 2H   HOH F   3)   2.72015227 +1   2.58621000 +1  -1.07502067 +1
 
 TIME=     1.58
  REACTANTS AND PRODUCTS SWAPPED AROUND
 *+*+*+*+*+*+*+*+*+*+*+*+*+*+*+*+*+*+*+*+*+*+*+*+*+*+*+*+*+*+*+*+*+*+*+*+*+*+*+*+
            BAR SHORTENED BY       1.000 PERCENT
 

                    SINCE COS WAS JUST RESET,THE SEARCH IS BEING ENDED


          FOR POINT    3 SECOND STRUCTURE
 DISTANCE A - B      5.665849
 HEAT             -133.893588
 GRADIENT NORM       5.277486
 DIRECTION COSINE   -0.201275
 opt xyz charge=1 eps=78.4 gnorm=2   let noswap HTML GEO-OK
 Locate the transition state for the ester hydrolysis reaction

  C(HETATM    1  C1  ACY A   1)  -0.05187123 +1   0.02972562 +1   0.02460966 +1
  C(HETATM    2  C2  ACY A   1)   1.42241143 +1   0.03547959 +1   0.03314297 +1
  O(HETATM    3  O   ACY A   1)   2.14941320 +1   1.06415498 +1   0.03110112 +1
  O(HETATM    4  O   EOH B   2)   1.98256444 +1  -1.15558633 +1  -0.07306415 +1
  C(HETATM    5  C1  EOH B   2)   3.43623208 +1  -1.22271219 +1  -0.08163327 +1
  C(HETATM    6  C2  EOH B   2)   3.71695746 +1  -2.70589054 +1  -0.19201049 +1
  H(HETATM    7 1H1  ACY A   1)  -0.44926067 +1   0.15480433 +1  -1.00422260 +1
  H(HETATM    8 2H1  ACY A   1)  -0.48901148 +1  -0.91051906 +1   0.41438932 +1
  H(HETATM    9 3H1  ACY A   1)  -0.47553928 +1   0.85331649 +1   0.62973433 +1
  H(HETATM   10 1H1  EOH B   2)   3.79738234 +1  -0.63853965 +1  -0.94660353 +1
  H(HETATM   11 2H1  EOH B   2)   3.80505599 +1  -0.77078898 +1   0.85621510 +1
  H(HETATM   12 1H2  EOH B   2)   3.31094186 +1  -3.26451303 +1   0.66178955 +1
  H(HETATM   13 2H2  EOH B   2)   3.28212507 +1  -3.13882126 +1  -1.10466355 +1
  H(HETATM   14 3H2  EOH B   2)   4.80235009 +1  -2.89201358 +1  -0.22354310 +1
  H(HETATM   15  H   ACY G   1)   0.77118744 +1   0.36874495 +1   2.80809612 +1
  O(HETATM   16  O   HOH F   3)   0.84413165 +1   3.15871974 +1   0.09567480 +1
  O(HETATM   17  O   ACY G   1)   1.51162924 +1  -0.02224602 +1   2.32819859 +1
  H(HETATM   18  H   UNK G    )   1.50935317 +1   2.19157224 +1   0.07636928 +1
  H(HETATM   19  H   EOH B   2)   2.26207616 +1   0.54643549 +1   2.53874085 +1
  H(HETATM   20 1H   HOH F   3)   1.15635523 +1   3.64947136 +1   0.91411039 +1
  H(HETATM   21 2H   HOH F   3)   1.24583425 +1   3.71843453 +1  -0.63836644 +1
 
 *+*+*+*+*+*+*+*+*+*+*+*+*+*+*+*+*+*+*+*+*+*+*+*+*+*+*+*+*+*+*+*+*+*+*+*+*+*+*+*+
            BAR SHORTENED BY       1.000 PERCENT


          FOR POINT    4 SECOND STRUCTURE
 DISTANCE A - B      5.609190
 HEAT             -133.931630
 GRADIENT NORM       1.839351
 DIRECTION COSINE    0.108393
 opt xyz charge=1 eps=78.4 gnorm=2   let noswap HTML GEO-OK
 Locate the transition state for the ester hydrolysis reaction

  C(HETATM    1  C1  ACY A   1)  -0.05627954 +1   0.02483427 +1   0.03183809 +1
  C(HETATM    2  C2  ACY A   1)   1.41761115 +1   0.02852915 +1   0.04307670 +1
  O(HETATM    3  O   ACY A   1)   2.14384716 +1   1.05661048 +1   0.04335603 +1
  O(HETATM    4  O   EOH B   2)   1.97969503 +1  -1.16214414 +1  -0.05944820 +1
  C(HETATM    5  C1  EOH B   2)   3.43379184 +1  -1.21649715 +1  -0.07674037 +1
  C(HETATM    6  C2  EOH B   2)   3.72214597 +1  -2.69646924 +1  -0.19926853 +1
  H(HETATM    7 1H1  ACY A   1)  -0.45039922 +1   0.12925262 +1  -1.00035279 +1
  H(HETATM    8 2H1  ACY A   1)  -0.48866335 +1  -0.90692681 +1   0.44401725 +1
  H(HETATM    9 3H1  ACY A   1)  -0.48473037 +1   0.86088570 +1   0.61688777 +1
  H(HETATM   10 1H1  EOH B   2)   3.78985764 +1  -0.62275578 +1  -0.93791642 +1
  H(HETATM   11 2H1  EOH B   2)   3.80226441 +1  -0.76920130 +1   0.86404015 +1
  H(HETATM   12 1H2  EOH B   2)   3.32001597 +1  -3.26337695 +1   0.65231267 +1
  H(HETATM   13 2H2  EOH B   2)   3.28463050 +1  -3.12458314 +1  -1.11277607 +1
  H(HETATM   14 3H2  EOH B   2)   4.80738909 +1  -2.87655002 +1  -0.23517798 +1
  H(HETATM   15  H   ACY G   1)   0.77135080 +1   0.37730117 +1   2.81760519 +1
  O(HETATM   16  O   HOH F   3)   0.85000397 +1   3.16506780 +1   0.08249261 +1
  O(HETATM   17  O   ACY G   1)   1.49999821 +1  -0.03992009 +1   2.33789001 +1
  H(HETATM   18  H   UNK G    )   1.50282768 +1   2.19141880 +1   0.08298937 +1
  H(HETATM   19  H   EOH B   2)   2.26338243 +1   0.52283402 +1   2.53390231 +1
  H(HETATM   20 1H   HOH F   3)   1.15435247 +1   3.66627288 +1   0.89983248 +1
  H(HETATM   21 2H   HOH F   3)   1.26502084 +1   3.70780914 +1  -0.65559595 +1
 
 *+*+*+*+*+*+*+*+*+*+*+*+*+*+*+*+*+*+*+*+*+*+*+*+*+*+*+*+*+*+*+*+*+*+*+*+*+*+*+*+
            BAR SHORTENED BY       1.000 PERCENT


          FOR POINT    5 SECOND STRUCTURE
 DISTANCE A - B      5.553098
 HEAT             -133.997373
 GRADIENT NORM       1.664402
 DIRECTION COSINE    0.552809
 opt xyz charge=1 eps=78.4 gnorm=2   let noswap HTML GEO-OK
 Locate the transition state for the ester hydrolysis reaction

  C(HETATM    1  C1  ACY A   1)  -0.06187180 +1   0.02014480 +1   0.03619308 +1
  C(HETATM    2  C2  ACY A   1)   1.41202538 +1   0.02673051 +1   0.05145692 +1
  O(HETATM    3  O   ACY A   1)   2.13556224 +1   1.05663609 +1   0.05696227 +1
  O(HETATM    4  O   EOH B   2)   1.97887291 +1  -1.16225086 +1  -0.05003880 +1
  C(HETATM    5  C1  EOH B   2)   3.43373452 +1  -1.21012553 +1  -0.06981219 +1
  C(HETATM    6  C2  EOH B   2)   3.72905822 +1  -2.68726718 +1  -0.20893758 +1
  H(HETATM    7 1H1  ACY A   1)  -0.45449773 +1   0.10244522 +1  -0.99887846 +1
  H(HETATM    8 2H1  ACY A   1)  -0.49261742 +1  -0.90389334 +1   0.46470707 +1
  H(HETATM    9 3H1  ACY A   1)  -0.49233479 +1   0.86566659 +1   0.60591143 +1
  H(HETATM   10 1H1  EOH B   2)   3.78553908 +1  -0.60632341 +1  -0.92517270 +1
  H(HETATM   11 2H1  EOH B   2)   3.80114209 +1  -0.77097407 +1   0.87475247 +1
  H(HETATM   12 1H2  EOH B   2)   3.33706885 +1  -3.26509868 +1   0.63993355 +1
  H(HETATM   13 2H2  EOH B   2)   3.28878436 +1  -3.10899473 +1  -1.12347132 +1
  H(HETATM   14 3H2  EOH B   2)   4.81579617 +1  -2.86144476 +1  -0.25438572 +1
  H(HETATM   15  H   ACY G   1)   0.77251887 +1   0.38714261 +1   2.82598724 +1
  O(HETATM   16  O   HOH F   3)   0.85568104 +1   3.17424092 +1   0.06769583 +1
  O(HETATM   17  O   ACY G   1)   1.48989895 +1  -0.05028497 +1   2.34699005 +1
  H(HETATM   18  H   UNK G    )   1.49846679 +1   2.19366991 +1   0.08390623 +1
  H(HETATM   19  H   EOH B   2)   2.26667446 +1   0.49372625 +1   2.54012271 +1
  H(HETATM   20 1H   HOH F   3)   1.16070382 +1   3.68219891 +1   0.88059154 +1
  H(HETATM   21 2H   HOH F   3)   1.28071523 +1   3.70407789 +1  -0.67475005 +1
 
 TIME=     1.98
  REACTANTS AND PRODUCTS SWAPPED AROUND
 *+*+*+*+*+*+*+*+*+*+*+*+*+*+*+*+*+*+*+*+*+*+*+*+*+*+*+*+*+*+*+*+*+*+*+*+*+*+*+*+
            BAR SHORTENED BY       0.000 PERCENT
 

                    SINCE COS WAS JUST RESET,THE SEARCH IS BEING ENDED


          FOR POINT    6 FIRST  STRUCTURE
 DISTANCE A - B      5.553098
 HEAT             -130.025411
 GRADIENT NORM      13.749804
 DIRECTION COSINE    0.161941
 opt xyz charge=1 eps=78.4 gnorm=2   let noswap HTML GEO-OK
 Locate the transition state for the ester hydrolysis reaction

  C(HETATM    1  C1  ACY A   1)  -0.42703198 +1   0.32215191 +1   0.52994759 +1
  C(HETATM    2  C2  ACY A   1)   0.69662794 +1   0.53191999 +1   1.45366275 +1
  O(HETATM    3  O   ACY A   1)   1.60885860 +1   1.38412993 +1   1.33497698 +1
  O(HETATM    4  O   EOH B   2)   1.92452162 +1  -1.11429497 +1   0.44405467 +1
  C(HETATM    5  C1  EOH B   2)   3.30937645 +1  -0.89297224 +1   0.20787107 +1
  C(HETATM    6  C2  EOH B   2)   3.91841646 +1  -2.10619211 +1  -0.47047280 +1
  H(HETATM    7 1H1  ACY A   1)  -0.11104186 +1  -0.23148508 +1  -0.38059924 +1
  H(HETATM    8 2H1  ACY A   1)  -1.25789604 +1  -0.26893060 +1   0.96962997 +1
  H(HETATM    9 3H1  ACY A   1)  -0.86022416 +1   1.27872591 +1   0.18408790 +1
  H(HETATM   10 1H1  EOH B   2)   3.31319082 +1   0.00604013 +1  -0.43461590 +1
  H(HETATM   11 2H1  EOH B   2)   3.79204930 +1  -0.65670930 +1   1.17532719 +1
  H(HETATM   12 1H2  EOH B   2)   3.84582451 +1  -3.00133850 +1   0.15824505 +1
  H(HETATM   13 2H2  EOH B   2)   3.41336104 +1  -2.33056181 +1  -1.41918074 +1
  H(HETATM   14 3H2  EOH B   2)   4.98337348 +1  -1.94267760 +1  -0.69074867 +1
  H(HETATM   15  H   ACY G   1)   1.40401262 +1  -0.01854903 +1   3.21636010 +1
  O(HETATM   16  O   HOH F   3)   1.75414915 +1   2.34927212 +1  -0.93395296 +1
  O(HETATM   17  O   ACY G   1)   0.63805474 +1  -0.16907559 +1   2.58059400 +1
  H(HETATM   18  H   UNK G    )   1.71554441 +1   1.93434175 +1   0.14883852 +1
  H(HETATM   19  H   EOH B   2)   1.78889480 +1  -1.89937054 +1   1.01399044 +1
  H(HETATM   20 1H   HOH F   3)   1.33643300 +1   3.26819154 +1  -0.86042767 +1
  H(HETATM   21 2H   HOH F   3)   2.72015228 +1   2.58621000 +1  -1.07502067 +1
 
 TIME=     0.28
  REACTANTS AND PRODUCTS SWAPPED AROUND
 *+*+*+*+*+*+*+*+*+*+*+*+*+*+*+*+*+*+*+*+*+*+*+*+*+*+*+*+*+*+*+*+*+*+*+*+*+*+*+*+
            BAR SHORTENED BY       1.000 PERCENT
 

                    SINCE COS WAS JUST RESET,THE SEARCH IS BEING ENDED


          FOR POINT    7 SECOND STRUCTURE
 DISTANCE A - B      5.497567
 HEAT             -134.064410
 GRADIENT NORM       2.405010
 DIRECTION COSINE   -0.233284
 opt xyz charge=1 eps=78.4 gnorm=2   let noswap HTML GEO-OK
 Locate the transition state for the ester hydrolysis reaction

  C(HETATM    1  C1  ACY A   1)  -0.06802814 +1  -0.00226212 +1   0.04153334 +1
  C(HETATM    2  C2  ACY A   1)   1.40519069 +1   0.02184290 +1   0.05832483 +1
  O(HETATM    3  O   ACY A   1)   2.11715531 +1   1.05818800 +1   0.06487923 +1
  O(HETATM    4  O   EOH B   2)   1.98006756 +1  -1.16348728 +1  -0.04278001 +1
  C(HETATM    5  C1  EOH B   2)   3.43422822 +1  -1.20481074 +1  -0.06155686 +1
  C(HETATM    6  C2  EOH B   2)   3.73542964 +1  -2.67849856 +1  -0.22401235 +1
  H(HETATM    7 1H1  ACY A   1)  -0.45896738 +1   0.02861108 +1  -0.99786919 +1
  H(HETATM    8 2H1  ACY A   1)  -0.48952612 +1  -0.91376527 +1   0.50798363 +1
  H(HETATM    9 3H1  ACY A   1)  -0.50661144 +1   0.86177667 +1   0.57553841 +1
  H(HETATM   10 1H1  EOH B   2)   3.78569760 +1  -0.58324355 +1  -0.90471199 +1
  H(HETATM   11 2H1  EOH B   2)   3.79626672 +1  -0.78021620 +1   0.89168520 +1
  H(HETATM   12 1H2  EOH B   2)   3.35166300 +1  -3.26848552 +1   0.62061492 +1
  H(HETATM   13 2H2  EOH B   2)   3.28920291 +1  -3.08939726 +1  -1.14065510 +1
  H(HETATM   14 3H2  EOH B   2)   4.82310686 +1  -2.84830174 +1  -0.28037797 +1
  H(HETATM   15  H   ACY G   1)   0.77269005 +1   0.40391637 +1   2.83325634 +1
  O(HETATM   16  O   HOH F   3)   0.86280294 +1   3.19585825 +1   0.04708278 +1
  O(HETATM   17  O   ACY G   1)   1.48270865 +1  -0.06742651 +1   2.37403839 +1
  H(HETATM   18  H   UNK G    )   1.48462323 +1   2.20584508 +1   0.08028382 +1
  H(HETATM   19  H   EOH B   2)   2.27449235 +1   0.45154881 +1   2.57559934 +1
  H(HETATM   20 1H   HOH F   3)   1.17543252 +1   3.71767631 +1   0.84974614 +1
  H(HETATM   21 2H   HOH F   3)   1.29572438 +1   3.70790864 +1  -0.70574391 +1
 
 TIME=     2.31
  REACTANTS AND PRODUCTS SWAPPED AROUND
 *+*+*+*+*+*+*+*+*+*+*+*+*+*+*+*+*+*+*+*+*+*+*+*+*+*+*+*+*+*+*+*+*+*+*+*+*+*+*+*+
            BAR SHORTENED BY       1.000 PERCENT


          FOR POINT    8 FIRST  STRUCTURE
 DISTANCE A - B      5.442592
 HEAT             -129.925325
 GRADIENT NORM       2.101142
 DIRECTION COSINE   -0.193638
 opt xyz charge=1 eps=78.4 gnorm=2   let noswap HTML GEO-OK
 Locate the transition state for the ester hydrolysis reaction

  C(HETATM    1  C1  ACY A   1)  -0.42392277 +1   0.31270572 +1   0.52486533 +1
  C(HETATM    2  C2  ACY A   1)   0.69669994 +1   0.52924105 +1   1.45325744 +1
  O(HETATM    3  O   ACY A   1)   1.61582814 +1   1.37314900 +1   1.32186261 +1
  O(HETATM    4  O   EOH B   2)   1.92409593 +1  -1.11318513 +1   0.43696486 +1
  C(HETATM    5  C1  EOH B   2)   3.31045742 +1  -0.89588320 +1   0.20116186 +1
  C(HETATM    6  C2  EOH B   2)   3.91716872 +1  -2.11653631 +1  -0.46987463 +1
  H(HETATM    7 1H1  ACY A   1)  -0.10088010 +1  -0.23005630 +1  -0.38982752 +1
  H(HETATM    8 2H1  ACY A   1)  -1.24756676 +1  -0.28203002 +1   0.96444338 +1
  H(HETATM    9 3H1  ACY A   1)  -0.86548628 +1   1.26855803 +1   0.18141999 +1
  H(HETATM   10 1H1  EOH B   2)   3.31706905 +1  -0.00026586 +1  -0.44702215 +1
  H(HETATM   11 2H1  EOH B   2)   3.79357727 +1  -0.65267798 +1   1.16594537 +1
  H(HETATM   12 1H2  EOH B   2)   3.83947107 +1  -3.00821257 +1   0.16643504 +1
  H(HETATM   13 2H2  EOH B   2)   3.41164573 +1  -2.34536955 +1  -1.41638634 +1
  H(HETATM   14 3H2  EOH B   2)   4.98123018 +1  -1.96091300 +1  -0.69241752 +1
  H(HETATM   15  H   ACY G   1)   1.40613383 +1  -0.00958280 +1   3.21771576 +1
  O(HETATM   16  O   HOH F   3)   1.74348758 +1   2.38510828 +1  -0.93986524 +1
  O(HETATM   17  O   ACY G   1)   0.63845221 +1  -0.17107646 +1   2.57644457 +1
  H(HETATM   18  H   UNK G    )   1.70595117 +1   1.94185914 +1   0.13852885 +1
  H(HETATM   19  H   EOH B   2)   1.78627628 +1  -1.88856494 +1   1.02715328 +1
  H(HETATM   20 1H   HOH F   3)   1.32800436 +1   3.29733176 +1  -0.83819300 +1
  H(HETATM   21 2H   HOH F   3)   2.71468820 +1   2.61756066 +1  -1.06452609 +1
 
 TIME=     1.23
  REACTANTS AND PRODUCTS SWAPPED AROUND
 *+*+*+*+*+*+*+*+*+*+*+*+*+*+*+*+*+*+*+*+*+*+*+*+*+*+*+*+*+*+*+*+*+*+*+*+*+*+*+*+
            BAR SHORTENED BY       1.000 PERCENT
 

                    SINCE COS WAS JUST RESET,THE SEARCH IS BEING ENDED


          FOR POINT    9 SECOND STRUCTURE
 DISTANCE A - B      5.388166
 HEAT             -134.019644
 GRADIENT NORM       2.425204
 DIRECTION COSINE    0.233665
 opt xyz charge=1 eps=78.4 gnorm=2   let noswap HTML GEO-OK
 Locate the transition state for the ester hydrolysis reaction

  C(HETATM    1  C1  ACY A   1)  -0.07277704 +1  -0.00000815 +1   0.04700483 +1
  C(HETATM    2  C2  ACY A   1)   1.40044986 +1   0.02334036 +1   0.06915265 +1
  O(HETATM    3  O   ACY A   1)   2.11651974 +1   1.05729127 +1   0.08078298 +1
  O(HETATM    4  O   EOH B   2)   1.97752327 +1  -1.16094245 +1  -0.03376122 +1
  C(HETATM    5  C1  EOH B   2)   3.43213067 +1  -1.20005637 +1  -0.05707705 +1
  C(HETATM    6  C2  EOH B   2)   3.73782613 +1  -2.67246704 +1  -0.22879758 +1
  H(HETATM    7 1H1  ACY A   1)  -0.45971840 +1   0.02221599 +1  -0.99289412 +1
  H(HETATM    8 2H1  ACY A   1)  -0.49709038 +1  -0.90804042 +1   0.51986670 +1
  H(HETATM    9 3H1  ACY A   1)  -0.51609743 +1   0.86752416 +1   0.57145178 +1
  H(HETATM   10 1H1  EOH B   2)   3.78051584 +1  -0.57620371 +1  -0.89869296 +1
  H(HETATM   11 2H1  EOH B   2)   3.79735892 +1  -0.77965057 +1   0.89682242 +1
  H(HETATM   12 1H2  EOH B   2)   3.35899066 +1  -3.27062433 +1   0.61196650 +1
  H(HETATM   13 2H2  EOH B   2)   3.29084369 +1  -3.07907245 +1  -1.14809660 +1
  H(HETATM   14 3H2  EOH B   2)   4.82365783 +1  -2.83569606 +1  -0.28888860 +1
  H(HETATM   15  H   ACY G   1)   0.77464209 +1   0.40586945 +1   2.84095202 +1
  O(HETATM   16  O   HOH F   3)   0.86804641 +1   3.19331559 +1   0.03455774 +1
  O(HETATM   17  O   ACY G   1)   1.47158308 +1  -0.07358209 +1   2.37064357 +1
  H(HETATM   18  H   UNK G    )   1.48669776 +1   2.20072354 +1   0.08121654 +1
  H(HETATM   19  H   EOH B   2)   2.27345632 +1   0.43142679 +1   2.56244217 +1
  H(HETATM   20 1H   HOH F   3)   1.18116474 +1   3.71404947 +1   0.83600958 +1
  H(HETATM   21 2H   HOH F   3)   1.31257545 +1   3.69417661 +1  -0.71897356 +1
 
 *+*+*+*+*+*+*+*+*+*+*+*+*+*+*+*+*+*+*+*+*+*+*+*+*+*+*+*+*+*+*+*+*+*+*+*+*+*+*+*+
            BAR SHORTENED BY       1.000 PERCENT


          FOR POINT   10 SECOND STRUCTURE
 DISTANCE A - B      5.334284
 HEAT             -133.985131
 GRADIENT NORM       2.322899
 DIRECTION COSINE    0.676669
 opt xyz charge=1 eps=78.4 gnorm=2   let noswap HTML GEO-OK
 Locate the transition state for the ester hydrolysis reaction

  C(HETATM    1  C1  ACY A   1)  -0.07707466 +1   0.00114941 +1   0.05221246 +1
  C(HETATM    2  C2  ACY A   1)   1.39609551 +1   0.02387561 +1   0.07811013 +1
  O(HETATM    3  O   ACY A   1)   2.11523663 +1   1.05605661 +1   0.09491151 +1
  O(HETATM    4  O   EOH B   2)   1.97459630 +1  -1.15972252 +1  -0.02567242 +1
  C(HETATM    5  C1  EOH B   2)   3.42949993 +1  -1.19395374 +1  -0.05347362 +1
  C(HETATM    6  C2  EOH B   2)   3.73913318 +1  -2.66376457 +1  -0.23497714 +1
  H(HETATM    7 1H1  ACY A   1)  -0.46146786 +1   0.00882775 +1  -0.98847939 +1
  H(HETATM    8 2H1  ACY A   1)  -0.50158977 +1  -0.90192261 +1   0.53520222 +1
  H(HETATM    9 3H1  ACY A   1)  -0.52353064 +1   0.87313373 +1   0.56616641 +1
  H(HETATM   10 1H1  EOH B   2)   3.77338062 +1  -0.56293176 +1  -0.89290577 +1
  H(HETATM   11 2H1  EOH B   2)   3.79626811 +1  -0.77761253 +1   0.90214398 +1
  H(HETATM   12 1H2  EOH B   2)   3.36506985 +1  -3.26825600 +1   0.60317644 +1
  H(HETATM   13 2H2  EOH B   2)   3.29161113 +1  -3.06625894 +1  -1.15527857 +1
  H(HETATM   14 3H2  EOH B   2)   4.82681897 +1  -2.82284747 +1  -0.29913833 +1
  H(HETATM   15  H   ACY G   1)   0.77717397 +1   0.40895438 +1   2.84808747 +1
  O(HETATM   16  O   HOH F   3)   0.87305815 +1   3.19258374 +1   0.02244710 +1
  O(HETATM   17  O   ACY G   1)   1.45948248 +1  -0.08206203 +1   2.36938299 +1
  H(HETATM   18  H   UNK G    )   1.48760278 +1   2.19719311 +1   0.08210510 +1
  H(HETATM   19  H   EOH B   2)   2.27306525 +1   0.40769123 +1   2.55200966 +1
  H(HETATM   20 1H   HOH F   3)   1.18471646 +1   3.71654561 +1   0.82253688 +1
  H(HETATM   21 2H   HOH F   3)   1.32796009 +1   3.68279497 +1  -0.73112290 +1
 
 *+*+*+*+*+*+*+*+*+*+*+*+*+*+*+*+*+*+*+*+*+*+*+*+*+*+*+*+*+*+*+*+*+*+*+*+*+*+*+*+
            BAR SHORTENED BY       1.000 PERCENT
 

                    SINCE COS WAS JUST RESET,THE SEARCH IS BEING ENDED


          FOR POINT   11 SECOND STRUCTURE
 DISTANCE A - B      5.280941
 HEAT             -134.007172
 GRADIENT NORM       5.892471
 DIRECTION COSINE    0.345962
 opt xyz charge=1 eps=78.4 gnorm=2   let noswap HTML GEO-OK
 Locate the transition state for the ester hydrolysis reaction

  C(HETATM    1  C1  ACY A   1)  -0.08019859 +1   0.00051362 +1   0.05802054 +1
  C(HETATM    2  C2  ACY A   1)   1.39233529 +1   0.02172787 +1   0.08360611 +1
  O(HETATM    3  O   ACY A   1)   2.11064000 +1   1.05439438 +1   0.10637387 +1
  O(HETATM    4  O   EOH B   2)   1.97264831 +1  -1.16151294 +1  -0.01984736 +1
  C(HETATM    5  C1  EOH B   2)   3.42769591 +1  -1.18752294 +1  -0.05279521 +1
  C(HETATM    6  C2  EOH B   2)   3.74323019 +1  -2.65538714 +1  -0.24989929 +1
  H(HETATM    7 1H1  ACY A   1)  -0.46730460 +1  -0.00791067 +1  -0.98276244 +1
  H(HETATM    8 2H1  ACY A   1)  -0.50431525 +1  -0.89575393 +1   0.55348059 +1
  H(HETATM    9 3H1  ACY A   1)  -0.52898669 +1   0.87991663 +1   0.55660676 +1
  H(HETATM   10 1H1  EOH B   2)   3.76420443 +1  -0.54703793 +1  -0.88260122 +1
  H(HETATM   11 2H1  EOH B   2)   3.79313404 +1  -0.77902750 +1   0.90905416 +1
  H(HETATM   12 1H2  EOH B   2)   3.37307442 +1  -3.27034904 +1   0.58350998 +1
  H(HETATM   13 2H2  EOH B   2)   3.29312087 +1  -3.04564155 +1  -1.17396562 +1
  H(HETATM   14 3H2  EOH B   2)   4.82859267 +1  -2.80681575 +1  -0.32269429 +1
  H(HETATM   15  H   ACY G   1)   0.78139666 +1   0.41635900 +1   2.85436813 +1
  O(HETATM   16  O   HOH F   3)   0.87844550 +1   3.19740591 +1   0.00911408 +1
  O(HETATM   17  O   ACY G   1)   1.44982934 +1  -0.09553151 +1   2.37582436 +1
  H(HETATM   18  H   UNK G    )   1.48325115 +1   2.19965571 +1   0.08347430 +1
  H(HETATM   19  H   EOH B   2)   2.27274938 +1   0.37947645 +1   2.55336227 +1
  H(HETATM   20 1H   HOH F   3)   1.18625403 +1   3.72930702 +1   0.80636782 +1
  H(HETATM   21 2H   HOH F   3)   1.34167624 +1   3.67467748 +1  -0.74764682 +1
 
 TIME=     1.98
  REACTANTS AND PRODUCTS SWAPPED AROUND
 *+*+*+*+*+*+*+*+*+*+*+*+*+*+*+*+*+*+*+*+*+*+*+*+*+*+*+*+*+*+*+*+*+*+*+*+*+*+*+*+
            BAR SHORTENED BY       0.000 PERCENT


          FOR POINT   12 FIRST  STRUCTURE
 DISTANCE A - B      5.280941
 HEAT             -129.925325
 GRADIENT NORM       2.100911
 DIRECTION COSINE   -0.017409
 opt xyz charge=1 eps=78.4 gnorm=2   let noswap HTML GEO-OK
 Locate the transition state for the ester hydrolysis reaction

  C(HETATM    1  C1  ACY A   1)  -0.42392277 +1   0.31270572 +1   0.52486533 +1
  C(HETATM    2  C2  ACY A   1)   0.69669994 +1   0.52924105 +1   1.45325744 +1
  O(HETATM    3  O   ACY A   1)   1.61582814 +1   1.37314900 +1   1.32186261 +1
  O(HETATM    4  O   EOH B   2)   1.92409593 +1  -1.11318513 +1   0.43696486 +1
  C(HETATM    5  C1  EOH B   2)   3.31045742 +1  -0.89588320 +1   0.20116186 +1
  C(HETATM    6  C2  EOH B   2)   3.91716872 +1  -2.11653631 +1  -0.46987463 +1
  H(HETATM    7 1H1  ACY A   1)  -0.10088010 +1  -0.23005630 +1  -0.38982752 +1
  H(HETATM    8 2H1  ACY A   1)  -1.24756676 +1  -0.28203002 +1   0.96444338 +1
  H(HETATM    9 3H1  ACY A   1)  -0.86548628 +1   1.26855803 +1   0.18141999 +1
  H(HETATM   10 1H1  EOH B   2)   3.31706905 +1  -0.00026586 +1  -0.44702215 +1
  H(HETATM   11 2H1  EOH B   2)   3.79357727 +1  -0.65267798 +1   1.16594537 +1
  H(HETATM   12 1H2  EOH B   2)   3.83947107 +1  -3.00821257 +1   0.16643504 +1
  H(HETATM   13 2H2  EOH B   2)   3.41164573 +1  -2.34536955 +1  -1.41638634 +1
  H(HETATM   14 3H2  EOH B   2)   4.98123018 +1  -1.96091300 +1  -0.69241752 +1
  H(HETATM   15  H   ACY G   1)   1.40613383 +1  -0.00958280 +1   3.21771576 +1
  O(HETATM   16  O   HOH F   3)   1.74348758 +1   2.38510828 +1  -0.93986524 +1
  O(HETATM   17  O   ACY G   1)   0.63845221 +1  -0.17107646 +1   2.57644457 +1
  H(HETATM   18  H   UNK G    )   1.70595117 +1   1.94185914 +1   0.13852885 +1
  H(HETATM   19  H   EOH B   2)   1.78627628 +1  -1.88856494 +1   1.02715328 +1
  H(HETATM   20 1H   HOH F   3)   1.32800436 +1   3.29733176 +1  -0.83819300 +1
  H(HETATM   21 2H   HOH F   3)   2.71468820 +1   2.61756066 +1  -1.06452609 +1
 
 TIME=     0.06
  REACTANTS AND PRODUCTS SWAPPED AROUND
 *+*+*+*+*+*+*+*+*+*+*+*+*+*+*+*+*+*+*+*+*+*+*+*+*+*+*+*+*+*+*+*+*+*+*+*+*+*+*+*+
            BAR SHORTENED BY       1.000 PERCENT


          FOR POINT   13 SECOND STRUCTURE
 DISTANCE A - B      5.228132
 HEAT             -134.035333
 GRADIENT NORM       2.278537
 DIRECTION COSINE    0.201024
 opt xyz charge=1 eps=78.4 gnorm=2   let noswap HTML GEO-OK
 Locate the transition state for the ester hydrolysis reaction

  C(HETATM    1  C1  ACY A   1)  -0.08555612 +1  -0.00418261 +1   0.06521721 +1
  C(HETATM    2  C2  ACY A   1)   1.38758325 +1   0.02113442 +1   0.09324870 +1
  O(HETATM    3  O   ACY A   1)   2.10428692 +1   1.05460634 +1   0.11878983 +1
  O(HETATM    4  O   EOH B   2)   1.97040440 +1  -1.16051550 +1  -0.01547274 +1
  C(HETATM    5  C1  EOH B   2)   3.42546213 +1  -1.18391216 +1  -0.04867400 +1
  C(HETATM    6  C2  EOH B   2)   3.74534007 +1  -2.64784236 +1  -0.25952159 +1
  H(HETATM    7 1H1  ACY A   1)  -0.46949568 +1  -0.03694255 +1  -0.97499788 +1
  H(HETATM    8 2H1  ACY A   1)  -0.50747493 +1  -0.88791232 +1   0.58269622 +1
  H(HETATM    9 3H1  ACY A   1)  -0.53314227 +1   0.88688832 +1   0.54408836 +1
  H(HETATM   10 1H1  EOH B   2)   3.76192108 +1  -0.53456338 +1  -0.87715511 +1
  H(HETATM   11 2H1  EOH B   2)   3.79454159 +1  -0.78264395 +1   0.91314407 +1
  H(HETATM   12 1H2  EOH B   2)   3.38142054 +1  -3.27120400 +1   0.56868931 +1
  H(HETATM   13 2H2  EOH B   2)   3.29343104 +1  -3.03525320 +1  -1.18402644 +1
  H(HETATM   14 3H2  EOH B   2)   4.83373443 +1  -2.79772845 +1  -0.33551028 +1
  H(HETATM   15  H   ACY G   1)   0.78380009 +1   0.42198658 +1   2.85961479 +1
  O(HETATM   16  O   HOH F   3)   0.88307214 +1   3.20169109 +1  -0.00567792 +1
  O(HETATM   17  O   ACY G   1)   1.43943973 +1  -0.10809326 +1   2.38519398 +1
  H(HETATM   18  H   UNK G    )   1.48133968 +1   2.20040098 +1   0.08352688 +1
  H(HETATM   19  H   EOH B   2)   2.27515703 +1   0.34759341 +1   2.55796606 +1
  H(HETATM   20 1H   HOH F   3)   1.19073784 +1   3.73992126 +1   0.78715380 +1
  H(HETATM   21 2H   HOH F   3)   1.35585727 +1   3.66784924 +1  -0.76298497 +1
 
 *+*+*+*+*+*+*+*+*+*+*+*+*+*+*+*+*+*+*+*+*+*+*+*+*+*+*+*+*+*+*+*+*+*+*+*+*+*+*+*+
            BAR SHORTENED BY       1.000 PERCENT


          FOR POINT   14 SECOND STRUCTURE
 DISTANCE A - B      5.175851
 HEAT             -134.025853
 GRADIENT NORM       1.753640
 DIRECTION COSINE    0.473706
 opt xyz charge=1 eps=78.4 gnorm=2   let noswap HTML GEO-OK
 Locate the transition state for the ester hydrolysis reaction

  C(HETATM    1  C1  ACY A   1)  -0.08902082 +1  -0.01581355 +1   0.07069078 +1
  C(HETATM    2  C2  ACY A   1)   1.38417555 +1   0.01959198 +1   0.10059477 +1
  O(HETATM    3  O   ACY A   1)   2.09097330 +1   1.05802031 +1   0.12730740 +1
  O(HETATM    4  O   EOH B   2)   1.97326160 +1  -1.15925027 +1  -0.00955808 +1
  C(HETATM    5  C1  EOH B   2)   3.42841938 +1  -1.17960950 +1  -0.03538344 +1
  C(HETATM    6  C2  EOH B   2)   3.75383793 +1  -2.63857442 +1  -0.26987778 +1
  H(HETATM    7 1H1  ACY A   1)  -0.47021612 +1  -0.08436133 +1  -0.96872167 +1
  H(HETATM    8 2H1  ACY A   1)  -0.50711304 +1  -0.88428566 +1   0.61487571 +1
  H(HETATM    9 3H1  ACY A   1)  -0.54032098 +1   0.88906125 +1   0.51931619 +1
  H(HETATM   10 1H1  EOH B   2)   3.77076786 +1  -0.51588133 +1  -0.84875056 +1
  H(HETATM   11 2H1  EOH B   2)   3.78637169 +1  -0.79553675 +1   0.93719000 +1
  H(HETATM   12 1H2  EOH B   2)   3.40863713 +1  -3.27440709 +1   0.55706568 +1
  H(HETATM   13 2H2  EOH B   2)   3.29043554 +1  -3.01792203 +1  -1.19181850 +1
  H(HETATM   14 3H2  EOH B   2)   4.84280334 +1  -2.78005531 +1  -0.36698230 +1
  H(HETATM   15  H   ACY G   1)   0.78802497 +1   0.43559014 +1   2.85886892 +1
  O(HETATM   16  O   HOH F   3)   0.88523980 +1   3.21602289 +1  -0.02638997 +1
  O(HETATM   17  O   ACY G   1)   1.43374306 +1  -0.12821032 +1   2.40904916 +1
  H(HETATM   18  H   UNK G    )   1.47000233 +1   2.21080082 +1   0.07739428 +1
  H(HETATM   19  H   EOH B   2)   2.28381342 +1   0.29016497 +1   2.60541125 +1
  H(HETATM   20 1H   HOH F   3)   1.19880213 +1   3.76250336 +1   0.75896153 +1
  H(HETATM   21 2H   HOH F   3)   1.36414423 +1   3.66815512 +1  -0.78952682 +1
 
 *+*+*+*+*+*+*+*+*+*+*+*+*+*+*+*+*+*+*+*+*+*+*+*+*+*+*+*+*+*+*+*+*+*+*+*+*+*+*+*+
            BAR SHORTENED BY       1.000 PERCENT


          FOR POINT   15 SECOND STRUCTURE
 DISTANCE A - B      5.124092
 HEAT             -133.964028
 GRADIENT NORM       1.812595
 DIRECTION COSINE    0.231818
 opt xyz charge=1 eps=78.4 gnorm=2   let noswap HTML GEO-OK
 Locate the transition state for the ester hydrolysis reaction

  C(HETATM    1  C1  ACY A   1)  -0.09294844 +1  -0.01366308 +1   0.07598232 +1
  C(HETATM    2  C2  ACY A   1)   1.37999034 +1   0.02084748 +1   0.11053662 +1
  O(HETATM    3  O   ACY A   1)   2.09048605 +1   1.05706366 +1   0.14128160 +1
  O(HETATM    4  O   EOH B   2)   1.97052895 +1  -1.15687282 +1  -0.00135634 +1
  C(HETATM    5  C1  EOH B   2)   3.42605397 +1  -1.17385455 +1  -0.03188037 +1
  C(HETATM    6  C2  EOH B   2)   3.75540484 +1  -2.63065189 +1  -0.27605117 +1
  H(HETATM    7 1H1  ACY A   1)  -0.47097051 +1  -0.09065675 +1  -0.96426544 +1
  H(HETATM    8 2H1  ACY A   1)  -0.51307002 +1  -0.87795192 +1   0.62571727 +1
  H(HETATM    9 3H1  ACY A   1)  -0.54724327 +1   0.89387195 +1   0.51570375 +1
  H(HETATM   10 1H1  EOH B   2)   3.76497582 +1  -0.50500179 +1  -0.84378126 +1
  H(HETATM   11 2H1  EOH B   2)   3.78637899 +1  -0.79412135 +1   0.94014440 +1
  H(HETATM   12 1H2  EOH B   2)   3.41398106 +1  -3.27359718 +1   0.54673879 +1
  H(HETATM   13 2H2  EOH B   2)   3.29234332 +1  -3.00609420 +1  -1.19946614 +1
  H(HETATM   14 3H2  EOH B   2)   4.84412512 +1  -2.76699116 +1  -0.37418166 +1
  H(HETATM   15  H   ACY G   1)   0.79087772 +1   0.43704857 +1   2.86579134 +1
  O(HETATM   16  O   HOH F   3)   0.89027400 +1   3.21277979 +1  -0.03755812 +1
  O(HETATM   17  O   ACY G   1)   1.42247528 +1  -0.13472242 +1   2.40465501 +1
  H(HETATM   18  H   UNK G    )   1.47309942 +1   2.20547193 +1   0.07898579 +1
  H(HETATM   19  H   EOH B   2)   2.28222927 +1   0.26813822 +1   2.59201061 +1
  H(HETATM   20 1H   HOH F   3)   1.20165202 +1   3.76135955 +1   0.74734743 +1
  H(HETATM   21 2H   HOH F   3)   1.37886862 +1   3.65562638 +1  -0.79912745 +1
 
 TIME=     1.84
  REACTANTS AND PRODUCTS SWAPPED AROUND
 *+*+*+*+*+*+*+*+*+*+*+*+*+*+*+*+*+*+*+*+*+*+*+*+*+*+*+*+*+*+*+*+*+*+*+*+*+*+*+*+
            BAR SHORTENED BY       0.000 PERCENT


          FOR POINT   16 FIRST  STRUCTURE
 DISTANCE A - B      5.124092
 HEAT             -129.925325
 GRADIENT NORM       2.100910
 DIRECTION COSINE    0.092413
 opt xyz charge=1 eps=78.4 gnorm=2   let noswap HTML GEO-OK
 Locate the transition state for the ester hydrolysis reaction

  C(HETATM    1  C1  ACY A   1)  -0.42392277 +1   0.31270572 +1   0.52486533 +1
  C(HETATM    2  C2  ACY A   1)   0.69669994 +1   0.52924105 +1   1.45325744 +1
  O(HETATM    3  O   ACY A   1)   1.61582814 +1   1.37314900 +1   1.32186261 +1
  O(HETATM    4  O   EOH B   2)   1.92409593 +1  -1.11318513 +1   0.43696486 +1
  C(HETATM    5  C1  EOH B   2)   3.31045742 +1  -0.89588320 +1   0.20116186 +1
  C(HETATM    6  C2  EOH B   2)   3.91716872 +1  -2.11653631 +1  -0.46987463 +1
  H(HETATM    7 1H1  ACY A   1)  -0.10088010 +1  -0.23005630 +1  -0.38982752 +1
  H(HETATM    8 2H1  ACY A   1)  -1.24756676 +1  -0.28203002 +1   0.96444338 +1
  H(HETATM    9 3H1  ACY A   1)  -0.86548628 +1   1.26855803 +1   0.18141999 +1
  H(HETATM   10 1H1  EOH B   2)   3.31706905 +1  -0.00026586 +1  -0.44702215 +1
  H(HETATM   11 2H1  EOH B   2)   3.79357727 +1  -0.65267798 +1   1.16594537 +1
  H(HETATM   12 1H2  EOH B   2)   3.83947107 +1  -3.00821257 +1   0.16643504 +1
  H(HETATM   13 2H2  EOH B   2)   3.41164573 +1  -2.34536955 +1  -1.41638634 +1
  H(HETATM   14 3H2  EOH B   2)   4.98123018 +1  -1.96091300 +1  -0.69241752 +1
  H(HETATM   15  H   ACY G   1)   1.40613383 +1  -0.00958280 +1   3.21771576 +1
  O(HETATM   16  O   HOH F   3)   1.74348758 +1   2.38510828 +1  -0.93986524 +1
  O(HETATM   17  O   ACY G   1)   0.63845221 +1  -0.17107646 +1   2.57644457 +1
  H(HETATM   18  H   UNK G    )   1.70595117 +1   1.94185914 +1   0.13852885 +1
  H(HETATM   19  H   EOH B   2)   1.78627628 +1  -1.88856494 +1   1.02715328 +1
  H(HETATM   20 1H   HOH F   3)   1.32800436 +1   3.29733176 +1  -0.83819300 +1
  H(HETATM   21 2H   HOH F   3)   2.71468820 +1   2.61756066 +1  -1.06452609 +1
 
 TIME=     0.06
  REACTANTS AND PRODUCTS SWAPPED AROUND
 *+*+*+*+*+*+*+*+*+*+*+*+*+*+*+*+*+*+*+*+*+*+*+*+*+*+*+*+*+*+*+*+*+*+*+*+*+*+*+*+
            BAR SHORTENED BY       1.000 PERCENT


          FOR POINT   17 SECOND STRUCTURE
 DISTANCE A - B      5.072851
 HEAT             -133.878726
 GRADIENT NORM       2.790501
 DIRECTION COSINE    0.350571
 opt xyz charge=1 eps=78.4 gnorm=2   let noswap HTML GEO-OK
 Locate the transition state for the ester hydrolysis reaction

  C(HETATM    1  C1  ACY A   1)  -0.09703331 +1  -0.01156004 +1   0.08109650 +1
  C(HETATM    2  C2  ACY A   1)   1.37586858 +1   0.02178455 +1   0.12016353 +1
  O(HETATM    3  O   ACY A   1)   2.08972697 +1   1.05659914 +1   0.15487749 +1
  O(HETATM    4  O   EOH B   2)   1.96776745 +1  -1.15508111 +1   0.00575212 +1
  C(HETATM    5  C1  EOH B   2)   3.42356800 +1  -1.16865346 +1  -0.02844269 +1
  C(HETATM    6  C2  EOH B   2)   3.75773458 +1  -2.62301950 +1  -0.27929513 +1
  H(HETATM    7 1H1  ACY A   1)  -0.47087760 +1  -0.09721157 +1  -0.96010736 +1
  H(HETATM    8 2H1  ACY A   1)  -0.52099498 +1  -0.87155902 +1   0.63503528 +1
  H(HETATM    9 3H1  ACY A   1)  -0.55299597 +1   0.89898228 +1   0.51276709 +1
  H(HETATM   10 1H1  EOH B   2)   3.75693312 +1  -0.49527120 +1  -0.83827501 +1
  H(HETATM   11 2H1  EOH B   2)   3.78681560 +1  -0.79171175 +1   0.94405990 +1
  H(HETATM   12 1H2  EOH B   2)   3.42323933 +1  -3.26953349 +1   0.54331088 +1
  H(HETATM   13 2H2  EOH B   2)   3.29281404 +1  -2.99616709 +1  -1.20299511 +1
  H(HETATM   14 3H2  EOH B   2)   4.84627114 +1  -2.75457277 +1  -0.38283724 +1
  H(HETATM   15  H   ACY G   1)   0.79435839 +1   0.43787980 +1   2.87223341 +1
  O(HETATM   16  O   HOH F   3)   0.89547445 +1   3.20956378 +1  -0.04828056 +1
  O(HETATM   17  O   ACY G   1)   1.41166182 +1  -0.14081270 +1   2.40242002 +1
  H(HETATM   18  H   UNK G    )   1.47598297 +1   2.20131126 +1   0.08107870 +1
  H(HETATM   19  H   EOH B   2)   2.28041067 +1   0.24583922 +1   2.57877485 +1
  H(HETATM   20 1H   HOH F   3)   1.20368887 +1   3.76103518 +1   0.73461262 +1
  H(HETATM   21 2H   HOH F   3)   1.39384789 +1   3.64416924 +1  -0.80846015 +1
 
 *+*+*+*+*+*+*+*+*+*+*+*+*+*+*+*+*+*+*+*+*+*+*+*+*+*+*+*+*+*+*+*+*+*+*+*+*+*+*+*+
            BAR SHORTENED BY       1.000 PERCENT
 

                    SINCE COS WAS JUST RESET,THE SEARCH IS BEING ENDED


          FOR POINT   18 SECOND STRUCTURE
 DISTANCE A - B      5.022123
 HEAT             -133.733232
 GRADIENT NORM      10.636176
 DIRECTION COSINE    0.660227
 opt xyz charge=1 eps=78.4 gnorm=2   let noswap HTML GEO-OK
 Locate the transition state for the ester hydrolysis reaction

  C(HETATM    1  C1  ACY A   1)  -0.10203314 +1  -0.01054750 +1   0.08717552 +1
  C(HETATM    2  C2  ACY A   1)   1.37157909 +1   0.02448855 +1   0.13049097 +1
  O(HETATM    3  O   ACY A   1)   2.08733282 +1   1.05754044 +1   0.16763425 +1
  O(HETATM    4  O   EOH B   2)   1.96538268 +1  -1.15271274 +1   0.01171521 +1
  C(HETATM    5  C1  EOH B   2)   3.42054208 +1  -1.16415333 +1  -0.02434113 +1
  C(HETATM    6  C2  EOH B   2)   3.76118823 +1  -2.61636141 +1  -0.28303635 +1
  H(HETATM    7 1H1  ACY A   1)  -0.46944280 +1  -0.10041971 +1  -0.95682328 +1
  H(HETATM    8 2H1  ACY A   1)  -0.52968522 +1  -0.86413414 +1   0.64005837 +1
  H(HETATM    9 3H1  ACY A   1)  -0.55786285 +1   0.90437625 +1   0.51168917 +1
  H(HETATM   10 1H1  EOH B   2)   3.75089015 +1  -0.48871909 +1  -0.83268089 +1
  H(HETATM   11 2H1  EOH B   2)   3.78885956 +1  -0.78844646 +1   0.94809019 +1
  H(HETATM   12 1H2  EOH B   2)   3.42906409 +1  -3.26513908 +1   0.53784950 +1
  H(HETATM   13 2H2  EOH B   2)   3.29589279 +1  -2.98817649 +1  -1.20694697 +1
  H(HETATM   14 3H2  EOH B   2)   4.84949880 +1  -2.74526307 +1  -0.38767725 +1
  H(HETATM   15  H   ACY G   1)   0.79802562 +1   0.43572974 +1   2.87740491 +1
  O(HETATM   16  O   HOH F   3)   0.90132295 +1   3.20393280 +1  -0.05849444 +1
  O(HETATM   17  O   ACY G   1)   1.40254095 +1  -0.14307367 +1   2.40204532 +1
  H(HETATM   18  H   UNK G    )   1.48008789 +1   2.19693410 +1   0.08359069 +1
  H(HETATM   19  H   EOH B   2)   2.27782968 +1   0.22414993 +1   2.56246661 +1
  H(HETATM   20 1H   HOH F   3)   1.20681825 +1   3.75873517 +1   0.72207185 +1
  H(HETATM   21 2H   HOH F   3)   1.40802525 +1   3.63270864 +1  -0.81280604 +1
 
 *+*+*+*+*+*+*+*+*+*+*+*+*+*+*+*+*+*+*+*+*+*+*+*+*+*+*+*+*+*+*+*+*+*+*+*+*+*+*+*+
            BAR SHORTENED BY       1.000 PERCENT
 

                    SINCE COS WAS JUST RESET,THE SEARCH IS BEING ENDED


          FOR POINT   19 SECOND STRUCTURE
 DISTANCE A - B      4.971901
 HEAT             -133.936315
 GRADIENT NORM       2.631292
 DIRECTION COSINE    0.138453
 opt xyz charge=1 eps=78.4 gnorm=2   let noswap HTML GEO-OK
 Locate the transition state for the ester hydrolysis reaction

  C(HETATM    1  C1  ACY A   1)  -0.10369487 +1  -0.02088150 +1   0.08485983 +1
  C(HETATM    2  C2  ACY A   1)   1.36905013 +1   0.01990565 +1   0.13238346 +1
  O(HETATM    3  O   ACY A   1)   2.07197852 +1   1.05964436 +1   0.17927188 +1
  O(HETATM    4  O   EOH B   2)   1.96742853 +1  -1.15357423 +1   0.01471323 +1
  C(HETATM    5  C1  EOH B   2)   3.42325806 +1  -1.16128055 +1  -0.01128677 +1
  C(HETATM    6  C2  EOH B   2)   3.76497526 +1  -2.60666320 +1  -0.29866807 +1
  H(HETATM    7 1H1  ACY A   1)  -0.47187226 +1  -0.14526535 +1  -0.95333588 +1
  H(HETATM    8 2H1  ACY A   1)  -0.53087352 +1  -0.86224272 +1   0.66472636 +1
  H(HETATM    9 3H1  ACY A   1)  -0.56429268 +1   0.90450018 +1   0.47800667 +1
  H(HETATM   10 1H1  EOH B   2)   3.76397926 +1  -0.46664037 +1  -0.80026525 +1
  H(HETATM   11 2H1  EOH B   2)   3.77534708 +1  -0.80861686 +1   0.97604045 +1
  H(HETATM   12 1H2  EOH B   2)   3.43890523 +1  -3.27648125 +1   0.50830281 +1
  H(HETATM   13 2H2  EOH B   2)   3.29450978 +1  -2.95972155 +1  -1.22850272 +1
  H(HETATM   14 3H2  EOH B   2)   4.85405329 +1  -2.72869019 +1  -0.41342237 +1
  H(HETATM   15  H   ACY G   1)   0.81274476 +1   0.45892243 +1   2.87780394 +1
  O(HETATM   16  O   HOH F   3)   0.90371364 +1   3.22566749 +1  -0.08898292 +1
  O(HETATM   17  O   ACY G   1)   1.39358023 +1  -0.18136859 +1   2.44106489 +1
  H(HETATM   18  H   UNK G    )   1.46203934 +1   2.21420315 +1   0.07721021 +1
  H(HETATM   19  H   EOH B   2)   2.28245503 +1   0.14688362 +1   2.63789100 +1
  H(HETATM   20 1H   HOH F   3)   1.20106204 +1   3.79948122 +1   0.68365668 +1
  H(HETATM   21 2H   HOH F   3)   1.42030199 +1   3.63179859 +1  -0.85304279 +1
 
 TIME=     1.78
  REACTANTS AND PRODUCTS SWAPPED AROUND
 *+*+*+*+*+*+*+*+*+*+*+*+*+*+*+*+*+*+*+*+*+*+*+*+*+*+*+*+*+*+*+*+*+*+*+*+*+*+*+*+
            BAR SHORTENED BY       0.000 PERCENT


          FOR POINT   20 FIRST  STRUCTURE
 DISTANCE A - B      4.971901
 HEAT             -129.925325
 GRADIENT NORM       2.100910
 DIRECTION COSINE    0.032758
 opt xyz charge=1 eps=78.4 gnorm=2   let noswap HTML GEO-OK
 Locate the transition state for the ester hydrolysis reaction

  C(HETATM    1  C1  ACY A   1)  -0.42392277 +1   0.31270572 +1   0.52486533 +1
  C(HETATM    2  C2  ACY A   1)   0.69669994 +1   0.52924105 +1   1.45325744 +1
  O(HETATM    3  O   ACY A   1)   1.61582814 +1   1.37314900 +1   1.32186261 +1
  O(HETATM    4  O   EOH B   2)   1.92409593 +1  -1.11318513 +1   0.43696486 +1
  C(HETATM    5  C1  EOH B   2)   3.31045742 +1  -0.89588320 +1   0.20116186 +1
  C(HETATM    6  C2  EOH B   2)   3.91716872 +1  -2.11653631 +1  -0.46987463 +1
  H(HETATM    7 1H1  ACY A   1)  -0.10088010 +1  -0.23005630 +1  -0.38982752 +1
  H(HETATM    8 2H1  ACY A   1)  -1.24756676 +1  -0.28203002 +1   0.96444338 +1
  H(HETATM    9 3H1  ACY A   1)  -0.86548628 +1   1.26855803 +1   0.18141999 +1
  H(HETATM   10 1H1  EOH B   2)   3.31706905 +1  -0.00026586 +1  -0.44702215 +1
  H(HETATM   11 2H1  EOH B   2)   3.79357727 +1  -0.65267798 +1   1.16594537 +1
  H(HETATM   12 1H2  EOH B   2)   3.83947107 +1  -3.00821257 +1   0.16643504 +1
  H(HETATM   13 2H2  EOH B   2)   3.41164573 +1  -2.34536955 +1  -1.41638634 +1
  H(HETATM   14 3H2  EOH B   2)   4.98123018 +1  -1.96091300 +1  -0.69241752 +1
  H(HETATM   15  H   ACY G   1)   1.40613383 +1  -0.00958280 +1   3.21771576 +1
  O(HETATM   16  O   HOH F   3)   1.74348758 +1   2.38510828 +1  -0.93986524 +1
  O(HETATM   17  O   ACY G   1)   0.63845221 +1  -0.17107646 +1   2.57644457 +1
  H(HETATM   18  H   UNK G    )   1.70595117 +1   1.94185914 +1   0.13852885 +1
  H(HETATM   19  H   EOH B   2)   1.78627628 +1  -1.88856494 +1   1.02715328 +1
  H(HETATM   20 1H   HOH F   3)   1.32800436 +1   3.29733176 +1  -0.83819300 +1
  H(HETATM   21 2H   HOH F   3)   2.71468820 +1   2.61756066 +1  -1.06452609 +1
 
 TIME=     0.08
  REACTANTS AND PRODUCTS SWAPPED AROUND
 *+*+*+*+*+*+*+*+*+*+*+*+*+*+*+*+*+*+*+*+*+*+*+*+*+*+*+*+*+*+*+*+*+*+*+*+*+*+*+*+
            BAR SHORTENED BY       1.000 PERCENT


          FOR POINT   21 SECOND STRUCTURE
 DISTANCE A - B      4.922182
 HEAT             -133.854381
 GRADIENT NORM       2.192790
 DIRECTION COSINE    0.181387
 opt xyz charge=1 eps=78.4 gnorm=2   let noswap HTML GEO-OK
 Locate the transition state for the ester hydrolysis reaction

  C(HETATM    1  C1  ACY A   1)  -0.10604808 +1  -0.01722941 +1   0.08759719 +1
  C(HETATM    2  C2  ACY A   1)   1.36574004 +1   0.02098664 +1   0.14244268 +1
  O(HETATM    3  O   ACY A   1)   2.07236764 +1   1.05864282 +1   0.19465360 +1
  O(HETATM    4  O   EOH B   2)   1.96326322 +1  -1.15347449 +1   0.02540955 +1
  C(HETATM    5  C1  EOH B   2)   3.41913912 +1  -1.15604388 +1  -0.00703519 +1
  C(HETATM    6  C2  EOH B   2)   3.76363722 +1  -2.59938117 +1  -0.30116729 +1
  H(HETATM    7 1H1  ACY A   1)  -0.46961382 +1  -0.14718001 +1  -0.95223770 +1
  H(HETATM    8 2H1  ACY A   1)  -0.53154895 +1  -0.85538357 +1   0.67431796 +1
  H(HETATM    9 3H1  ACY A   1)  -0.57038729 +1   0.90843697 +1   0.47475530 +1
  H(HETATM   10 1H1  EOH B   2)   3.75074238 +1  -0.45702205 +1  -0.79721203 +1
  H(HETATM   11 2H1  EOH B   2)   3.77650466 +1  -0.80512722 +1   0.97734678 +1
  H(HETATM   12 1H2  EOH B   2)   3.44566948 +1  -3.27154884 +1   0.50625246 +1
  H(HETATM   13 2H2  EOH B   2)   3.29187422 +1  -2.95083815 +1  -1.23000517 +1
  H(HETATM   14 3H2  EOH B   2)   4.85216995 +1  -2.71717336 +1  -0.42143502 +1
  H(HETATM   15  H   ACY G   1)   0.81576434 +1   0.45904844 +1   2.88462253 +1
  O(HETATM   16  O   HOH F   3)   0.90846951 +1   3.22130867 +1  -0.10125436 +1
  O(HETATM   17  O   ACY G   1)   1.38290213 +1  -0.18628239 +1   2.43632588 +1
  H(HETATM   18  H   UNK G    )   1.46258178 +1   2.20977457 +1   0.08005148 +1
  H(HETATM   19  H   EOH B   2)   2.28083109 +1   0.12128115 +1   2.62898977 +1
  H(HETATM   20 1H   HOH F   3)   1.20516779 +1   3.79668049 +1   0.67053365 +1
  H(HETATM   21 2H   HOH F   3)   1.43495682 +1   3.61966930 +1  -0.86300440 +1
 
 *+*+*+*+*+*+*+*+*+*+*+*+*+*+*+*+*+*+*+*+*+*+*+*+*+*+*+*+*+*+*+*+*+*+*+*+*+*+*+*+
            BAR SHORTENED BY       1.000 PERCENT
 

                    SINCE COS WAS JUST RESET,THE SEARCH IS BEING ENDED


          FOR POINT   22 SECOND STRUCTURE
 DISTANCE A - B      4.872961
 HEAT             -133.858197
 GRADIENT NORM       5.107500
 DIRECTION COSINE    0.192629
 opt xyz charge=1 eps=78.4 gnorm=2   let noswap HTML GEO-OK
 Locate the transition state for the ester hydrolysis reaction

  C(HETATM    1  C1  ACY A   1)  -0.10865744 +1  -0.01868566 +1   0.09442849 +1
  C(HETATM    2  C2  ACY A   1)   1.36239304 +1   0.02118130 +1   0.15166571 +1
  O(HETATM    3  O   ACY A   1)   2.06994914 +1   1.06041077 +1   0.20797446 +1
  O(HETATM    4  O   EOH B   2)   1.96342692 +1  -1.15195355 +1   0.03206833 +1
  C(HETATM    5  C1  EOH B   2)   3.41854666 +1  -1.14984473 +1  -0.00103374 +1
  C(HETATM    6  C2  EOH B   2)   3.76497127 +1  -2.59057525 +1  -0.30318006 +1
  H(HETATM    7 1H1  ACY A   1)  -0.46990517 +1  -0.16512185 +1  -0.94410995 +1
  H(HETATM    8 2H1  ACY A   1)  -0.53379089 +1  -0.84883364 +1   0.69175473 +1
  H(HETATM    9 3H1  ACY A   1)  -0.57309038 +1   0.91260962 +1   0.46821998 +1
  H(HETATM   10 1H1  EOH B   2)   3.74743938 +1  -0.44523008 +1  -0.78580720 +1
  H(HETATM   11 2H1  EOH B   2)   3.77516785 +1  -0.80327799 +1   0.98428992 +1
  H(HETATM   12 1H2  EOH B   2)   3.44889908 +1  -3.26829149 +1   0.50059564 +1
  H(HETATM   13 2H2  EOH B   2)   3.29271222 +1  -2.93903852 +1  -1.23294194 +1
  H(HETATM   14 3H2  EOH B   2)   4.85604457 +1  -2.70546001 +1  -0.42614016 +1
  H(HETATM   15  H   ACY G   1)   0.82488837 +1   0.46180891 +1   2.88898388 +1
  O(HETATM   16  O   HOH F   3)   0.91376947 +1   3.22171717 +1  -0.11530747 +1
  O(HETATM   17  O   ACY G   1)   1.37423962 +1  -0.19659634 +1   2.43737820 +1
  H(HETATM   18  H   UNK G    )   1.46381367 +1   2.20973988 +1   0.09089171 +1
  H(HETATM   19  H   EOH B   2)   2.27703568 +1   0.08878452 +1   2.63206478 +1
  H(HETATM   20 1H   HOH F   3)   1.20843329 +1   3.80459215 +1   0.65215339 +1
  H(HETATM   21 2H   HOH F   3)   1.44662702 +1   3.60990330 +1  -0.87799951 +1
 
 *+*+*+*+*+*+*+*+*+*+*+*+*+*+*+*+*+*+*+*+*+*+*+*+*+*+*+*+*+*+*+*+*+*+*+*+*+*+*+*+
            BAR SHORTENED BY       1.000 PERCENT


          FOR POINT   23 SECOND STRUCTURE
 DISTANCE A - B      4.824231
 HEAT             -133.737108
 GRADIENT NORM       2.687129
 DIRECTION COSINE    0.274554
 opt xyz charge=1 eps=78.4 gnorm=2   let noswap HTML GEO-OK
 Locate the transition state for the ester hydrolysis reaction

  C(HETATM    1  C1  ACY A   1)  -0.11247695 +1  -0.01531766 +1   0.09957738 +1
  C(HETATM    2  C2  ACY A   1)   1.35926954 +1   0.02290014 +1   0.16143939 +1
  O(HETATM    3  O   ACY A   1)   2.06852694 +1   1.05907519 +1   0.22190172 +1
  O(HETATM    4  O   EOH B   2)   1.96079765 +1  -1.14919899 +1   0.03871175 +1
  C(HETATM    5  C1  EOH B   2)   3.41666693 +1  -1.14461635 +1   0.00251651 +1
  C(HETATM    6  C2  EOH B   2)   3.76767829 +1  -2.58378416 +1  -0.30506658 +1
  H(HETATM    7 1H1  ACY A   1)  -0.46912829 +1  -0.16696760 +1  -0.94005010 +1
  H(HETATM    8 2H1  ACY A   1)  -0.54293479 +1  -0.84125991 +1   0.69991787 +1
  H(HETATM    9 3H1  ACY A   1)  -0.57841331 +1   0.91821271 +1   0.46445809 +1
  H(HETATM   10 1H1  EOH B   2)   3.74364573 +1  -0.43632282 +1  -0.78027782 +1
  H(HETATM   11 2H1  EOH B   2)   3.77552988 +1  -0.80089251 +1   0.98878603 +1
  H(HETATM   12 1H2  EOH B   2)   3.45291690 +1  -3.26487848 +1   0.49800123 +1
  H(HETATM   13 2H2  EOH B   2)   3.29458320 +1  -2.93045154 +1  -1.23464341 +1
  H(HETATM   14 3H2  EOH B   2)   4.85656981 +1  -2.69451728 +1  -0.42971629 +1
  H(HETATM   15  H   ACY G   1)   0.82878114 +1   0.46180730 +1   2.89524763 +1
  O(HETATM   16  O   HOH F   3)   0.91938158 +1   3.21834541 +1  -0.12533553 +1
  O(HETATM   17  O   ACY G   1)   1.36395301 +1  -0.20207537 +1   2.43620349 +1
  H(HETATM   18  H   UNK G    )   1.46606506 +1   2.20751656 +1   0.08496704 +1
  H(HETATM   19  H   EOH B   2)   2.27504354 +1   0.06659137 +1   2.61844628 +1
  H(HETATM   20 1H   HOH F   3)   1.20933353 +1   3.80598779 +1   0.63975518 +1
  H(HETATM   21 2H   HOH F   3)   1.46091710 +1   3.59659842 +1  -0.88574583 +1
 
 TIME=     2.72
  REACTANTS AND PRODUCTS SWAPPED AROUND
 *+*+*+*+*+*+*+*+*+*+*+*+*+*+*+*+*+*+*+*+*+*+*+*+*+*+*+*+*+*+*+*+*+*+*+*+*+*+*+*+
            BAR SHORTENED BY       0.000 PERCENT


          FOR POINT   24 FIRST  STRUCTURE
 DISTANCE A - B      4.824231
 HEAT             -129.925325
 GRADIENT NORM       2.100910
 DIRECTION COSINE    0.320340
 opt xyz charge=1 eps=78.4 gnorm=2   let noswap HTML GEO-OK
 Locate the transition state for the ester hydrolysis reaction

  C(HETATM    1  C1  ACY A   1)  -0.42392277 +1   0.31270572 +1   0.52486533 +1
  C(HETATM    2  C2  ACY A   1)   0.69669994 +1   0.52924105 +1   1.45325744 +1
  O(HETATM    3  O   ACY A   1)   1.61582814 +1   1.37314900 +1   1.32186261 +1
  O(HETATM    4  O   EOH B   2)   1.92409593 +1  -1.11318513 +1   0.43696486 +1
  C(HETATM    5  C1  EOH B   2)   3.31045742 +1  -0.89588320 +1   0.20116186 +1
  C(HETATM    6  C2  EOH B   2)   3.91716872 +1  -2.11653631 +1  -0.46987463 +1
  H(HETATM    7 1H1  ACY A   1)  -0.10088010 +1  -0.23005630 +1  -0.38982752 +1
  H(HETATM    8 2H1  ACY A   1)  -1.24756676 +1  -0.28203002 +1   0.96444338 +1
  H(HETATM    9 3H1  ACY A   1)  -0.86548628 +1   1.26855803 +1   0.18141999 +1
  H(HETATM   10 1H1  EOH B   2)   3.31706905 +1  -0.00026586 +1  -0.44702215 +1
  H(HETATM   11 2H1  EOH B   2)   3.79357727 +1  -0.65267798 +1   1.16594537 +1
  H(HETATM   12 1H2  EOH B   2)   3.83947107 +1  -3.00821257 +1   0.16643504 +1
  H(HETATM   13 2H2  EOH B   2)   3.41164573 +1  -2.34536955 +1  -1.41638634 +1
  H(HETATM   14 3H2  EOH B   2)   4.98123018 +1  -1.96091300 +1  -0.69241752 +1
  H(HETATM   15  H   ACY G   1)   1.40613383 +1  -0.00958280 +1   3.21771576 +1
  O(HETATM   16  O   HOH F   3)   1.74348758 +1   2.38510828 +1  -0.93986524 +1
  O(HETATM   17  O   ACY G   1)   0.63845221 +1  -0.17107646 +1   2.57644457 +1
  H(HETATM   18  H   UNK G    )   1.70595117 +1   1.94185914 +1   0.13852885 +1
  H(HETATM   19  H   EOH B   2)   1.78627628 +1  -1.88856494 +1   1.02715328 +1
  H(HETATM   20 1H   HOH F   3)   1.32800436 +1   3.29733176 +1  -0.83819300 +1
  H(HETATM   21 2H   HOH F   3)   2.71468820 +1   2.61756066 +1  -1.06452609 +1
 
 TIME=     0.06
  REACTANTS AND PRODUCTS SWAPPED AROUND
 *+*+*+*+*+*+*+*+*+*+*+*+*+*+*+*+*+*+*+*+*+*+*+*+*+*+*+*+*+*+*+*+*+*+*+*+*+*+*+*+
            BAR SHORTENED BY       1.000 PERCENT
 

                    SINCE COS WAS JUST RESET,THE SEARCH IS BEING ENDED


          FOR POINT   25 SECOND STRUCTURE
 DISTANCE A - B      4.775989
 HEAT             -133.733671
 GRADIENT NORM       6.064312
 DIRECTION COSINE    0.240195
 opt xyz charge=1 eps=78.4 gnorm=2   let noswap HTML GEO-OK
 Locate the transition state for the ester hydrolysis reaction

  C(HETATM    1  C1  ACY A   1)  -0.11634452 +1  -0.01365787 +1   0.10516135 +1
  C(HETATM    2  C2  ACY A   1)   1.35535216 +1   0.02437704 +1   0.17072687 +1
  O(HETATM    3  O   ACY A   1)   2.06750168 +1   1.05934012 +1   0.23427105 +1
  O(HETATM    4  O   EOH B   2)   1.95812888 +1  -1.14687433 +1   0.04476313 +1
  C(HETATM    5  C1  EOH B   2)   3.41464774 +1  -1.14033547 +1   0.00865556 +1
  C(HETATM    6  C2  EOH B   2)   3.76988292 +1  -2.57467572 +1  -0.30596624 +1
  H(HETATM    7 1H1  ACY A   1)  -0.46538490 +1  -0.18745755 +1  -0.93641067 +1
  H(HETATM    8 2H1  ACY A   1)  -0.55152542 +1  -0.83436066 +1   0.71143492 +1
  H(HETATM    9 3H1  ACY A   1)  -0.58296693 +1   0.92310122 +1   0.46320040 +1
  H(HETATM   10 1H1  EOH B   2)   3.73641935 +1  -0.42948715 +1  -0.77548738 +1
  H(HETATM   11 2H1  EOH B   2)   3.77671932 +1  -0.79782907 +1   0.99202378 +1
  H(HETATM   12 1H2  EOH B   2)   3.45826880 +1  -3.26163334 +1   0.49423589 +1
  H(HETATM   13 2H2  EOH B   2)   3.29966205 +1  -2.91764477 +1  -1.23703766 +1
  H(HETATM   14 3H2  EOH B   2)   4.85927505 +1  -2.68433718 +1  -0.43261485 +1
  H(HETATM   15  H   ACY G   1)   0.83171564 +1   0.46097029 +1   2.90101575 +1
  O(HETATM   16  O   HOH F   3)   0.92425848 +1   3.21402261 +1  -0.13445733 +1
  O(HETATM   17  O   ACY G   1)   1.35540385 +1  -0.20567215 +1   2.43458167 +1
  H(HETATM   18  H   UNK G    )   1.46987159 +1   2.20344866 +1   0.08731481 +1
  H(HETATM   19  H   EOH B   2)   2.27286538 +1   0.04681999 +1   2.60329947 +1
  H(HETATM   20 1H   HOH F   3)   1.21160141 +1   3.80393088 +1   0.62781620 +1
  H(HETATM   21 2H   HOH F   3)   1.47487861 +1   3.58596289 +1  -0.89175757 +1
 
 *+*+*+*+*+*+*+*+*+*+*+*+*+*+*+*+*+*+*+*+*+*+*+*+*+*+*+*+*+*+*+*+*+*+*+*+*+*+*+*+
            BAR SHORTENED BY       1.000 PERCENT


          FOR POINT   26 SECOND STRUCTURE
 DISTANCE A - B      4.728229
 HEAT             -133.708860
 GRADIENT NORM       2.475048
 DIRECTION COSINE    0.325588
 opt xyz charge=1 eps=78.4 gnorm=2   let noswap HTML GEO-OK
 Locate the transition state for the ester hydrolysis reaction

  C(HETATM    1  C1  ACY A   1)  -0.11735540 +1  -0.01862895 +1   0.10470559 +1
  C(HETATM    2  C2  ACY A   1)   1.35357453 +1   0.02031754 +1   0.17263490 +1
  O(HETATM    3  O   ACY A   1)   2.05574795 +1   1.05925275 +1   0.24924579 +1
  O(HETATM    4  O   EOH B   2)   1.95865817 +1  -1.15007411 +1   0.04646704 +1
  C(HETATM    5  C1  EOH B   2)   3.41481796 +1  -1.13458176 +1   0.01141795 +1
  C(HETATM    6  C2  EOH B   2)   3.77284031 +1  -2.56763898 +1  -0.31195948 +1
  H(HETATM    7 1H1  ACY A   1)  -0.47282832 +1  -0.20929125 +1  -0.92854445 +1
  H(HETATM    8 2H1  ACY A   1)  -0.54930932 +1  -0.82037150 +1   0.73555159 +1
  H(HETATM    9 3H1  ACY A   1)  -0.58024903 +1   0.93023728 +1   0.43426006 +1
  H(HETATM   10 1H1  EOH B   2)   3.73824649 +1  -0.41703496 +1  -0.76419310 +1
  H(HETATM   11 2H1  EOH B   2)   3.76990164 +1  -0.79737538 +1   1.00088031 +1
  H(HETATM   12 1H2  EOH B   2)   3.46386329 +1  -3.25875622 +1   0.48433777 +1
  H(HETATM   13 2H2  EOH B   2)   3.29763495 +1  -2.90590882 +1  -1.24362431 +1
  H(HETATM   14 3H2  EOH B   2)   4.86247889 +1  -2.67210632 +1  -0.44093402 +1
  H(HETATM   15  H   ACY G   1)   0.84844306 +1   0.47129249 +1   2.90632721 +1
  O(HETATM   16  O   HOH F   3)   0.92977556 +1   3.22501521 +1  -0.15888643 +1
  O(HETATM   17  O   ACY G   1)   1.34409719 +1  -0.23287739 +1   2.46240973 +1
  H(HETATM   18  H   UNK G    )   1.45978232 +1   2.21687652 +1   0.08602644 +1
  H(HETATM   19  H   EOH B   2)   2.26889389 +1  -0.00903973 +1   2.63618398 +1
  H(HETATM   20 1H   HOH F   3)   1.20660581 +1   3.83308757 +1   0.59459165 +1
  H(HETATM   21 2H   HOH F   3)   1.48952422 +1   3.58114454 +1  -0.91813711 +1
 
 *+*+*+*+*+*+*+*+*+*+*+*+*+*+*+*+*+*+*+*+*+*+*+*+*+*+*+*+*+*+*+*+*+*+*+*+*+*+*+*+
            BAR SHORTENED BY       1.000 PERCENT
 

                    SINCE COS WAS JUST RESET,THE SEARCH IS BEING ENDED


          FOR POINT   27 SECOND STRUCTURE
 DISTANCE A - B      4.680947
 HEAT             -133.970774
 GRADIENT NORM       3.007282
 DIRECTION COSINE    0.194408
 opt xyz charge=1 eps=78.4 gnorm=2   let noswap HTML GEO-OK
 Locate the transition state for the ester hydrolysis reaction

  C(HETATM    1  C1  ACY A   1)  -0.11513044 +1  -0.03967826 +1   0.11612186 +1
  C(HETATM    2  C2  ACY A   1)   1.35621823 +1   0.02870927 +1   0.18286384 +1
  O(HETATM    3  O   ACY A   1)   2.04466409 +1   1.07454353 +1   0.25779971 +1
  O(HETATM    4  O   EOH B   2)   1.96977984 +1  -1.13690761 +1   0.05454852 +1
  C(HETATM    5  C1  EOH B   2)   3.42468661 +1  -1.13053317 +1   0.03655476 +1
  C(HETATM    6  C2  EOH B   2)   3.77515150 +1  -2.55701336 +1  -0.32646589 +1
  H(HETATM    7 1H1  ACY A   1)  -0.46833758 +1  -0.28212555 +1  -0.90601872 +1
  H(HETATM    8 2H1  ACY A   1)  -0.52599000 +1  -0.82488136 +1   0.78109115 +1
  H(HETATM    9 3H1  ACY A   1)  -0.60005241 +1   0.91015248 +1   0.40667006 +1
  H(HETATM   10 1H1  EOH B   2)   3.76444853 +1  -0.39179005 +1  -0.71211253 +1
  H(HETATM   11 2H1  EOH B   2)   3.76821132 +1  -0.82851779 +1   1.04166648 +1
  H(HETATM   12 1H2  EOH B   2)   3.45577706 +1  -3.26942770 +1   0.44583078 +1
  H(HETATM   13 2H2  EOH B   2)   3.30724172 +1  -2.86400932 +1  -1.27219237 +1
  H(HETATM   14 3H2  EOH B   2)   4.86436591 +1  -2.66538461 +1  -0.44704982 +1
  H(HETATM   15  H   ACY G   1)   0.87723199 +1   0.49017449 +1   2.89114366 +1
  O(HETATM   16  O   HOH F   3)   0.92776680 +1   3.23747645 +1  -0.19506718 +1
  O(HETATM   17  O   ACY G   1)   1.33940771 +1  -0.25867079 +1   2.48189305 +1
  H(HETATM   18  H   UNK G    )   1.45019910 +1   2.23176582 +1   0.06635134 +1
  H(HETATM   19  H   EOH B   2)   2.26306330 +1  -0.12167393 +1   2.73730552 +1
  H(HETATM   20 1H   HOH F   3)   1.21596488 +1   3.85393025 +1   0.54883725 +1
  H(HETATM   21 2H   HOH F   3)   1.48762140 +1   3.57772385 +1  -0.96370998 +1
 
 TIME=     4.61
  REACTANTS AND PRODUCTS SWAPPED AROUND
 *+*+*+*+*+*+*+*+*+*+*+*+*+*+*+*+*+*+*+*+*+*+*+*+*+*+*+*+*+*+*+*+*+*+*+*+*+*+*+*+
            BAR SHORTENED BY       0.000 PERCENT


          FOR POINT   28 FIRST  STRUCTURE
 DISTANCE A - B      4.680947
 HEAT             -129.925325
 GRADIENT NORM       2.100910
 DIRECTION COSINE    0.069531
 opt xyz charge=1 eps=78.4 gnorm=2   let noswap HTML GEO-OK
 Locate the transition state for the ester hydrolysis reaction

  C(HETATM    1  C1  ACY A   1)  -0.42392277 +1   0.31270572 +1   0.52486533 +1
  C(HETATM    2  C2  ACY A   1)   0.69669994 +1   0.52924105 +1   1.45325744 +1
  O(HETATM    3  O   ACY A   1)   1.61582814 +1   1.37314900 +1   1.32186261 +1
  O(HETATM    4  O   EOH B   2)   1.92409593 +1  -1.11318513 +1   0.43696486 +1
  C(HETATM    5  C1  EOH B   2)   3.31045742 +1  -0.89588320 +1   0.20116186 +1
  C(HETATM    6  C2  EOH B   2)   3.91716872 +1  -2.11653631 +1  -0.46987463 +1
  H(HETATM    7 1H1  ACY A   1)  -0.10088010 +1  -0.23005630 +1  -0.38982752 +1
  H(HETATM    8 2H1  ACY A   1)  -1.24756676 +1  -0.28203002 +1   0.96444338 +1
  H(HETATM    9 3H1  ACY A   1)  -0.86548628 +1   1.26855803 +1   0.18141999 +1
  H(HETATM   10 1H1  EOH B   2)   3.31706905 +1  -0.00026586 +1  -0.44702215 +1
  H(HETATM   11 2H1  EOH B   2)   3.79357727 +1  -0.65267798 +1   1.16594537 +1
  H(HETATM   12 1H2  EOH B   2)   3.83947107 +1  -3.00821257 +1   0.16643504 +1
  H(HETATM   13 2H2  EOH B   2)   3.41164573 +1  -2.34536955 +1  -1.41638634 +1
  H(HETATM   14 3H2  EOH B   2)   4.98123018 +1  -1.96091300 +1  -0.69241752 +1
  H(HETATM   15  H   ACY G   1)   1.40613383 +1  -0.00958280 +1   3.21771576 +1
  O(HETATM   16  O   HOH F   3)   1.74348758 +1   2.38510828 +1  -0.93986524 +1
  O(HETATM   17  O   ACY G   1)   0.63845221 +1  -0.17107646 +1   2.57644457 +1
  H(HETATM   18  H   UNK G    )   1.70595117 +1   1.94185914 +1   0.13852885 +1
  H(HETATM   19  H   EOH B   2)   1.78627628 +1  -1.88856494 +1   1.02715328 +1
  H(HETATM   20 1H   HOH F   3)   1.32800436 +1   3.29733176 +1  -0.83819300 +1
  H(HETATM   21 2H   HOH F   3)   2.71468820 +1   2.61756066 +1  -1.06452609 +1
 
 TIME=     0.08
  REACTANTS AND PRODUCTS SWAPPED AROUND
 *+*+*+*+*+*+*+*+*+*+*+*+*+*+*+*+*+*+*+*+*+*+*+*+*+*+*+*+*+*+*+*+*+*+*+*+*+*+*+*+
            BAR SHORTENED BY       1.000 PERCENT
 

                    SINCE COS WAS JUST RESET,THE SEARCH IS BEING ENDED


          FOR POINT   29 SECOND STRUCTURE
 DISTANCE A - B      4.634137
 HEAT             -133.906426
 GRADIENT NORM       2.701584
 DIRECTION COSINE    0.193486
 opt xyz charge=1 eps=78.4 gnorm=2   let noswap HTML GEO-OK
 Locate the transition state for the ester hydrolysis reaction

  C(HETATM    1  C1  ACY A   1)  -0.11737742 +1  -0.03493454 +1   0.12140773 +1
  C(HETATM    2  C2  ACY A   1)   1.35337414 +1   0.03081012 +1   0.19268580 +1
  O(HETATM    3  O   ACY A   1)   2.04652298 +1   1.07481173 +1   0.27012387 +1
  O(HETATM    4  O   EOH B   2)   1.96725020 +1  -1.13446154 +1   0.06102582 +1
  C(HETATM    5  C1  EOH B   2)   3.42253951 +1  -1.12598919 +1   0.04102058 +1
  C(HETATM    6  C2  EOH B   2)   3.77788409 +1  -2.55006824 +1  -0.32693165 +1
  H(HETATM    7 1H1  ACY A   1)  -0.46364350 +1  -0.28201600 +1  -0.90267002 +1
  H(HETATM    8 2H1  ACY A   1)  -0.53499903 +1  -0.81817516 +1   0.78580800 +1
  H(HETATM    9 3H1  ACY A   1)  -0.60384636 +1   0.91563299 +1   0.40626823 +1
  H(HETATM   10 1H1  EOH B   2)   3.76115540 +1  -0.38537968 +1  -0.70760504 +1
  H(HETATM   11 2H1  EOH B   2)   3.76945288 +1  -0.82522528 +1   1.04451800 +1
  H(HETATM   12 1H2  EOH B   2)   3.46100448 +1  -3.26577296 +1   0.44410934 +1
  H(HETATM   13 2H2  EOH B   2)   3.31161228 +1  -2.85466599 +1  -1.27407777 +1
  H(HETATM   14 3H2  EOH B   2)   4.86733288 +1  -2.65546354 +1  -0.44996479 +1
  H(HETATM   15  H   ACY G   1)   0.88134337 +1   0.48834767 +1   2.89666033 +1
  O(HETATM   16  O   HOH F   3)   0.93326821 +1   3.23240574 +1  -0.20395460 +1
  O(HETATM   17  O   ACY G   1)   1.33074554 +1  -0.26065384 +1   2.47999807 +1
  H(HETATM   18  H   UNK G    )   1.45434470 +1   2.22703800 +1   0.06895751 +1
  H(HETATM   19  H   EOH B   2)   2.26021195 +1  -0.14012419 +1   2.71909455 +1
  H(HETATM   20 1H   HOH F   3)   1.21735835 +1   3.85168767 +1   0.53819849 +1
  H(HETATM   21 2H   HOH F   3)   1.50092462 +1   3.56591784 +1  -0.96786693 +1
 
 *+*+*+*+*+*+*+*+*+*+*+*+*+*+*+*+*+*+*+*+*+*+*+*+*+*+*+*+*+*+*+*+*+*+*+*+*+*+*+*+
            BAR SHORTENED BY       1.000 PERCENT
 

                    SINCE COS WAS JUST RESET,THE SEARCH IS BEING ENDED


          FOR POINT   30 SECOND STRUCTURE
 DISTANCE A - B      4.587796
 HEAT             -133.811566
 GRADIENT NORM       2.923370
 DIRECTION COSINE    0.828058
 opt xyz charge=1 eps=78.4 gnorm=2   let noswap HTML GEO-OK
 Locate the transition state for the ester hydrolysis reaction

  C(HETATM    1  C1  ACY A   1)  -0.12031296 +1  -0.03066607 +1   0.12613028 +1
  C(HETATM    2  C2  ACY A   1)   1.35002539 +1   0.03180271 +1   0.20242837 +1
  O(HETATM    3  O   ACY A   1)   2.04599777 +1   1.07452360 +1   0.28264915 +1
  O(HETATM    4  O   EOH B   2)   1.96474382 +1  -1.13248095 +1   0.06780541 +1
  C(HETATM    5  C1  EOH B   2)   3.42070820 +1  -1.12046720 +1   0.04270707 +1
  C(HETATM    6  C2  EOH B   2)   3.77992250 +1  -2.54247021 +1  -0.32824850 +1
  H(HETATM    7 1H1  ACY A   1)  -0.46166435 +1  -0.27924806 +1  -0.89951690 +1
  H(HETATM    8 2H1  ACY A   1)  -0.54438910 +1  -0.81071656 +1   0.79042953 +1
  H(HETATM    9 3H1  ACY A   1)  -0.60666826 +1   0.92208296 +1   0.40564737 +1
  H(HETATM   10 1H1  EOH B   2)   3.75322572 +1  -0.37657257 +1  -0.70418171 +1
  H(HETATM   11 2H1  EOH B   2)   3.76921224 +1  -0.82191940 +1   1.04652929 +1
  H(HETATM   12 1H2  EOH B   2)   3.46512291 +1  -3.26236964 +1   0.44034055 +1
  H(HETATM   13 2H2  EOH B   2)   3.31442436 +1  -2.84688895 +1  -1.27600550 +1
  H(HETATM   14 3H2  EOH B   2)   4.86975810 +1  -2.64389079 +1  -0.45188222 +1
  H(HETATM   15  H   ACY G   1)   0.88737468 +1   0.48783326 +1   2.90301208 +1
  O(HETATM   16  O   HOH F   3)   0.93866521 +1   3.22802127 +1  -0.21300841 +1
  O(HETATM   17  O   ACY G   1)   1.32181142 +1  -0.26517703 +1   2.47668112 +1
  H(HETATM   18  H   UNK G    )   1.45743200 +1   2.22286999 +1   0.07109856 +1
  H(HETATM   19  H   EOH B   2)   2.25625254 +1  -0.15787980 +1   2.70219709 +1
  H(HETATM   20 1H   HOH F   3)   1.21690458 +1   3.85123412 +1   0.52763735 +1
  H(HETATM   21 2H   HOH F   3)   1.51405109 +1   3.55426866 +1  -0.97423837 +1
 
 *+*+*+*+*+*+*+*+*+*+*+*+*+*+*+*+*+*+*+*+*+*+*+*+*+*+*+*+*+*+*+*+*+*+*+*+*+*+*+*+
            BAR SHORTENED BY       1.000 PERCENT
 

                    SINCE COS WAS JUST RESET,THE SEARCH IS BEING ENDED


          FOR POINT   31 SECOND STRUCTURE
 DISTANCE A - B      4.541918
 HEAT             -133.780723
 GRADIENT NORM       6.346629
 DIRECTION COSINE    0.152967
 opt xyz charge=1 eps=78.4 gnorm=2   let noswap HTML GEO-OK
 Locate the transition state for the ester hydrolysis reaction

  C(HETATM    1  C1  ACY A   1)  -0.12158159 +1  -0.02514664 +1   0.12885927 +1
  C(HETATM    2  C2  ACY A   1)   1.34795632 +1   0.03236039 +1   0.20822929 +1
  O(HETATM    3  O   ACY A   1)   2.04539371 +1   1.07327331 +1   0.29794702 +1
  O(HETATM    4  O   EOH B   2)   1.96180968 +1  -1.13208290 +1   0.07145600 +1
  C(HETATM    5  C1  EOH B   2)   3.41556688 +1  -1.11483795 +1   0.04562565 +1
  C(HETATM    6  C2  EOH B   2)   3.78391765 +1  -2.53253568 +1  -0.32763572 +1
  H(HETATM    7 1H1  ACY A   1)  -0.46459862 +1  -0.27901425 +1  -0.89432386 +1
  H(HETATM    8 2H1  ACY A   1)  -0.54751374 +1  -0.80035106 +1   0.79767549 +1
  H(HETATM    9 3H1  ACY A   1)  -0.60228501 +1   0.92927184 +1   0.40558084 +1
  H(HETATM   10 1H1  EOH B   2)   3.74911991 +1  -0.36909277 +1  -0.69894736 +1
  H(HETATM   11 2H1  EOH B   2)   3.76049513 +1  -0.81442959 +1   1.05219540 +1
  H(HETATM   12 1H2  EOH B   2)   3.47202789 +1  -3.25129691 +1   0.43897984 +1
  H(HETATM   13 2H2  EOH B   2)   3.31981144 +1  -2.83570179 +1  -1.27739362 +1
  H(HETATM   14 3H2  EOH B   2)   4.87489314 +1  -2.62735538 +1  -0.44339827 +1
  H(HETATM   15  H   ACY G   1)   0.89892287 +1   0.49058675 +1   2.91066093 +1
  O(HETATM   16  O   HOH F   3)   0.94284694 +1   3.22603059 +1  -0.22368988 +1
  O(HETATM   17  O   ACY G   1)   1.31101857 +1  -0.27340977 +1   2.47871473 +1
  H(HETATM   18  H   UNK G    )   1.45702697 +1   2.22229702 +1   0.07447353 +1
  H(HETATM   19  H   EOH B   2)   2.24905671 +1  -0.17927656 +1   2.68998497 +1
  H(HETATM   20 1H   HOH F   3)   1.21349496 +1   3.87986533 +1   0.50053301 +1
  H(HETATM   21 2H   HOH F   3)   1.52618214 +1   3.54355052 +1  -0.98134057 +1
 
 TIME=     3.16
  REACTANTS AND PRODUCTS SWAPPED AROUND
 *+*+*+*+*+*+*+*+*+*+*+*+*+*+*+*+*+*+*+*+*+*+*+*+*+*+*+*+*+*+*+*+*+*+*+*+*+*+*+*+
            BAR SHORTENED BY       0.000 PERCENT


          FOR POINT   32 FIRST  STRUCTURE
 DISTANCE A - B      4.541918
 HEAT             -129.925325
 GRADIENT NORM       2.100910
 DIRECTION COSINE    0.253070
 opt xyz charge=1 eps=78.4 gnorm=2   let noswap HTML GEO-OK
 Locate the transition state for the ester hydrolysis reaction

  C(HETATM    1  C1  ACY A   1)  -0.42392277 +1   0.31270572 +1   0.52486533 +1
  C(HETATM    2  C2  ACY A   1)   0.69669994 +1   0.52924105 +1   1.45325744 +1
  O(HETATM    3  O   ACY A   1)   1.61582814 +1   1.37314900 +1   1.32186261 +1
  O(HETATM    4  O   EOH B   2)   1.92409593 +1  -1.11318513 +1   0.43696486 +1
  C(HETATM    5  C1  EOH B   2)   3.31045742 +1  -0.89588320 +1   0.20116186 +1
[...]
  C(HETATM    6  C2  EOH B   2)   3.72746106 +1  -2.24077767 +1  -0.26825296 +1
  H(HETATM    7 1H1  ACY A   1)  -0.15913317 +1  -0.18107844 +1  -0.76739234 +1
  H(HETATM    8 2H1  ACY A   1)  -0.89085023 +1  -0.65062176 +1   0.77662814 +1
  H(HETATM    9 3H1  ACY A   1)  -0.73279421 +1   1.06750986 +1   0.36328440 +1
  H(HETATM   10 1H1  EOH B   2)   3.34674396 +1  -0.09133049 +1  -0.51534328 +1
  H(HETATM   11 2H1  EOH B   2)   3.82928676 +1  -0.56437251 +1   1.16075712 +1
  H(HETATM   12 1H2  EOH B   2)   3.56091785 +1  -3.03995170 +1   0.46875752 +1
  H(HETATM   13 2H2  EOH B   2)   3.18740824 +1  -2.52200332 +1  -1.18386142 +1
  H(HETATM   14 3H2  EOH B   2)   4.80217753 +1  -2.23822140 +1  -0.51077879 +1
  H(HETATM   15  H   ACY G   1)   1.62023556 +1   0.15358820 +1   2.96661309 +1
  O(HETATM   16  O   HOH F   3)   1.24458859 +1   2.91551240 +1  -0.83825609 +1
  O(HETATM   17  O   ACY G   1)   1.01721716 +1  -0.33984263 +1   2.32800779 +1
  H(HETATM   18  H   UNK G    )   1.60300448 +1   1.96366182 +1   0.17083292 +1
  H(HETATM   19  H   EOH B   2)   1.75372281 +1  -1.42917679 +1   1.84322242 +1
  H(HETATM   20 1H   HOH F   3)   1.14063901 +1   3.76256868 +1  -0.34967086 +1
  H(HETATM   21 2H   HOH F   3)   2.06768605 +1   3.05860323 +1  -1.35707918 +1
 
 TIME=     0.05
  REACTANTS AND PRODUCTS SWAPPED AROUND
 *+*+*+*+*+*+*+*+*+*+*+*+*+*+*+*+*+*+*+*+*+*+*+*+*+*+*+*+*+*+*+*+*+*+*+*+*+*+*+*+
            BAR SHORTENED BY       1.000 PERCENT


          FOR POINT  437 SECOND STRUCTURE
 DISTANCE A - B      0.103770
 HEAT             -104.297049
 GRADIENT NORM      13.514837
 DIRECTION COSINE    0.982421
 opt xyz charge=1 eps=78.4 gnorm=2   let noswap HTML GEO-OK
 Locate the transition state for the ester hydrolysis reaction

  C(HETATM    1  C1  ACY A   1)  -0.21914673 +1   0.08936111 +1   0.30184486 +1
  C(HETATM    2  C2  ACY A   1)   1.13103728 +1   0.12413199 +1   0.92948195 +1
  O(HETATM    3  O   ACY A   1)   1.88746108 +1   1.21717997 +1   0.91496345 +1
  O(HETATM    4  O   EOH B   2)   1.88935146 +1  -1.06441011 +1   0.55931176 +1
  C(HETATM    5  C1  EOH B   2)   3.29486440 +1  -0.88528968 +1   0.24457767 +1
  C(HETATM    6  C2  EOH B   2)   3.72746496 +1  -2.24070902 +1  -0.26986978 +1
  H(HETATM    7 1H1  ACY A   1)  -0.16449533 +1  -0.18318095 +1  -0.76814744 +1
  H(HETATM    8 2H1  ACY A   1)  -0.89033558 +1  -0.65023188 +1   0.77904211 +1
  H(HETATM    9 3H1  ACY A   1)  -0.73160329 +1   1.06691432 +1   0.36467265 +1
  H(HETATM   10 1H1  EOH B   2)   3.35544741 +1  -0.08863711 +1  -0.51837043 +1
  H(HETATM   11 2H1  EOH B   2)   3.82447668 +1  -0.56657365 +1   1.16049305 +1
  H(HETATM   12 1H2  EOH B   2)   3.55954923 +1  -3.03878825 +1   0.46773545 +1
  H(HETATM   13 2H2  EOH B   2)   3.18747469 +1  -2.52211783 +1  -1.18510506 +1
  H(HETATM   14 3H2  EOH B   2)   4.80189580 +1  -2.23829032 +1  -0.51140825 +1
  H(HETATM   15  H   ACY G   1)   1.62320705 +1   0.14603760 +1   2.96470868 +1
  O(HETATM   16  O   HOH F   3)   1.24446673 +1   2.91598803 +1  -0.83859121 +1
  O(HETATM   17  O   ACY G   1)   1.03520853 +1  -0.37264276 +1   2.32276461 +1
  H(HETATM   18  H   UNK G    )   1.60174097 +1   1.96454788 +1   0.17227811 +1
  H(HETATM   19  H   EOH B   2)   1.72104877 +1  -1.40106053 +1   1.91330130 +1
  H(HETATM   20 1H   HOH F   3)   1.14187551 +1   3.76292415 +1  -0.34970135 +1
  H(HETATM   21 2H   HOH F   3)   2.06796642 +1   3.05772241 +1  -1.35610539 +1
 
 TIME=     0.05
  REACTANTS AND PRODUCTS SWAPPED AROUND
 *+*+*+*+*+*+*+*+*+*+*+*+*+*+*+*+*+*+*+*+*+*+*+*+*+*+*+*+*+*+*+*+*+*+*+*+*+*+*+*+
            BAR SHORTENED BY       1.000 PERCENT


          FOR POINT  438 FIRST  STRUCTURE
 DISTANCE A - B      0.102732
 HEAT             -104.280201
 GRADIENT NORM      12.132171
 DIRECTION COSINE    0.981507
 opt xyz charge=1 eps=78.4 gnorm=2   let noswap HTML GEO-OK
 Locate the transition state for the ester hydrolysis reaction

  C(HETATM    1  C1  ACY A   1)  -0.21847832 +1   0.09011603 +1   0.30209772 +1
  C(HETATM    2  C2  ACY A   1)   1.11899720 +1   0.13584611 +1   0.95564762 +1
  O(HETATM    3  O   ACY A   1)   1.88955490 +1   1.21743479 +1   0.91330770 +1
  O(HETATM    4  O   EOH B   2)   1.89045098 +1  -1.07865402 +1   0.59178932 +1
  C(HETATM    5  C1  EOH B   2)   3.29606104 +1  -0.88852199 +1   0.24999907 +1
  C(HETATM    6  C2  EOH B   2)   3.72746110 +1  -2.24077699 +1  -0.26826913 +1
  H(HETATM    7 1H1  ACY A   1)  -0.15918679 +1  -0.18109946 +1  -0.76739989 +1
  H(HETATM    8 2H1  ACY A   1)  -0.89084509 +1  -0.65061786 +1   0.77665228 +1
  H(HETATM    9 3H1  ACY A   1)  -0.73278230 +1   1.06750390 +1   0.36329828 +1
  H(HETATM   10 1H1  EOH B   2)   3.34683099 +1  -0.09130356 +1  -0.51537355 +1
  H(HETATM   11 2H1  EOH B   2)   3.82923865 +1  -0.56439452 +1   1.16075447 +1
  H(HETATM   12 1H2  EOH B   2)   3.56090416 +1  -3.03994006 +1   0.46874730 +1
  H(HETATM   13 2H2  EOH B   2)   3.18740891 +1  -2.52200446 +1  -1.18387385 +1
  H(HETATM   14 3H2  EOH B   2)   4.80217471 +1  -2.23822209 +1  -0.51078508 +1
  H(HETATM   15  H   ACY G   1)   1.62026527 +1   0.15351269 +1   2.96659405 +1
  O(HETATM   16  O   HOH F   3)   1.24458737 +1   2.91551716 +1  -0.83825945 +1
  O(HETATM   17  O   ACY G   1)   1.01739708 +1  -0.34017063 +1   2.32795536 +1
  H(HETATM   18  H   UNK G    )   1.60299185 +1   1.96367068 +1   0.17084737 +1
  H(HETATM   19  H   EOH B   2)   1.75339607 +1  -1.42889563 +1   1.84392321 +1
  H(HETATM   20 1H   HOH F   3)   1.14065138 +1   3.76257223 +1  -0.34967117 +1
  H(HETATM   21 2H   HOH F   3)   2.06768885 +1   3.05859442 +1  -1.35706944 +1
 
 TIME=     0.05
  REACTANTS AND PRODUCTS SWAPPED AROUND
 *+*+*+*+*+*+*+*+*+*+*+*+*+*+*+*+*+*+*+*+*+*+*+*+*+*+*+*+*+*+*+*+*+*+*+*+*+*+*+*+
            BAR SHORTENED BY       1.000 PERCENT


          FOR POINT  439 SECOND STRUCTURE
 DISTANCE A - B      0.101705
 HEAT             -104.288599
 GRADIENT NORM      13.249699
 DIRECTION COSINE    0.978620
 opt xyz charge=1 eps=78.4 gnorm=2   let noswap HTML GEO-OK
 Locate the transition state for the ester hydrolysis reaction

  C(HETATM    1  C1  ACY A   1)  -0.21797932 +1   0.09009512 +1   0.30155091 +1
  C(HETATM    2  C2  ACY A   1)   1.13224332 +1   0.12415828 +1   0.92990907 +1
  O(HETATM    3  O   ACY A   1)   1.88767067 +1   1.21739892 +1   0.91704510 +1
  O(HETATM    4  O   EOH B   2)   1.88974919 +1  -1.06495422 +1   0.56052995 +1
  C(HETATM    5  C1  EOH B   2)   3.29478702 +1  -0.88517449 +1   0.24471930 +1
  C(HETATM    6  C2  EOH B   2)   3.72763550 +1  -2.24073876 +1  -0.26909201 +1
  H(HETATM    7 1H1  ACY A   1)  -0.16313589 +1  -0.18131768 +1  -0.76884332 +1
  H(HETATM    8 2H1  ACY A   1)  -0.88986319 +1  -0.65001929 +1   0.77742515 +1
  H(HETATM    9 3H1  ACY A   1)  -0.73094237 +1   1.06732271 +1   0.36500529 +1
  H(HETATM   10 1H1  EOH B   2)   3.35518682 +1  -0.08895029 +1  -0.51927026 +1
  H(HETATM   11 2H1  EOH B   2)   3.82484341 +1  -0.56509563 +1   1.15965187 +1
  H(HETATM   12 1H2  EOH B   2)   3.56002734 +1  -3.03843143 +1   0.47059555 +1
  H(HETATM   13 2H2  EOH B   2)   3.18751341 +1  -2.52254057 +1  -1.18382747 +1
  H(HETATM   14 3H2  EOH B   2)   4.80207959 +1  -2.23823407 +1  -0.51076365 +1
  H(HETATM   15  H   ACY G   1)   1.62178995 +1   0.14539331 +1   2.96482643 +1
  O(HETATM   16  O   HOH F   3)   1.24470548 +1   2.91570232 +1  -0.83765356 +1
  O(HETATM   17  O   ACY G   1)   1.03552670 +1  -0.37311037 +1   2.32210028 +1
  H(HETATM   18  H   UNK G    )   1.60217733 +1   1.96467811 +1   0.17292121 +1
  H(HETATM   19  H   EOH B   2)   1.72137859 +1  -1.40090630 +1   1.91221903 +1
  H(HETATM   20 1H   HOH F   3)   1.13985660 +1   3.76308377 +1  -0.34988741 +1
  H(HETATM   21 2H   HOH F   3)   2.06692933 +1   3.05820795 +1  -1.35712940 +1
 
 *+*+*+*+*+*+*+*+*+*+*+*+*+*+*+*+*+*+*+*+*+*+*+*+*+*+*+*+*+*+*+*+*+*+*+*+*+*+*+*+
            BAR SHORTENED BY       1.000 PERCENT


          FOR POINT  440 SECOND STRUCTURE
 DISTANCE A - B      0.100688
 HEAT             -104.279822
 GRADIENT NORM      13.019035
 DIRECTION COSINE    0.999986
 opt xyz charge=1 eps=78.4 gnorm=2   let noswap HTML GEO-OK
 Locate the transition state for the ester hydrolysis reaction

  C(HETATM    1  C1  ACY A   1)  -0.21798431 +1   0.09009533 +1   0.30155638 +1
  C(HETATM    2  C2  ACY A   1)   1.13211086 +1   0.12427515 +1   0.93016645 +1
  O(HETATM    3  O   ACY A   1)   1.88768951 +1   1.21739928 +1   0.91700773 +1
  O(HETATM    4  O   EOH B   2)   1.88975621 +1  -1.06509122 +1   0.56084254 +1
  C(HETATM    5  C1  EOH B   2)   3.29479976 +1  -0.88520797 +1   0.24477209 +1
  C(HETATM    6  C2  EOH B   2)   3.72763376 +1  -2.24073915 +1  -0.26908378 +1
  H(HETATM    7 1H1  ACY A   1)  -0.16309640 +1  -0.18131550 +1  -0.76882889 +1
  H(HETATM    8 2H1  ACY A   1)  -0.88987301 +1  -0.65002528 +1   0.77741742 +1
  H(HETATM    9 3H1  ACY A   1)  -0.73096077 +1   1.06732452 +1   0.36498822 +1
  H(HETATM   10 1H1  EOH B   2)   3.35510326 +1  -0.08897382 +1  -0.51923129 +1
  H(HETATM   11 2H1  EOH B   2)   3.82488737 +1  -0.56508862 +1   1.15966290 +1
  H(HETATM   12 1H2  EOH B   2)   3.56003611 +1  -3.03844652 +1   0.47057707 +1
  H(HETATM   13 2H2  EOH B   2)   3.18751236 +1  -2.52253521 +1  -1.18382794 +1
  H(HETATM   14 3H2  EOH B   2)   4.80208054 +1  -2.23823395 +1  -0.51076387 +1
  H(HETATM   15  H   ACY G   1)   1.62177470 +1   0.14547450 +1   2.96484410 +1
  O(HETATM   16  O   HOH F   3)   1.24470430 +1   2.91570047 +1  -0.83765962 +1
  O(HETATM   17  O   ACY G   1)   1.03534540 +1  -0.37278097 +1   2.32215883 +1
  H(HETATM   18  H   UNK G    )   1.60218548 +1   1.96466803 +1   0.17290047 +1
  H(HETATM   19  H   EOH B   2)   1.72169876 +1  -1.40118620 +1   1.91153607 +1
  H(HETATM   20 1H   HOH F   3)   1.13986455 +1   3.76307865 +1  -0.34988525 +1
  H(HETATM   21 2H   HOH F   3)   2.06693693 +1   3.05821182 +1  -1.35712880 +1
 
 TIME=     0.19
  REACTANTS AND PRODUCTS SWAPPED AROUND
 *+*+*+*+*+*+*+*+*+*+*+*+*+*+*+*+*+*+*+*+*+*+*+*+*+*+*+*+*+*+*+*+*+*+*+*+*+*+*+*+
            BAR SHORTENED BY       1.000 PERCENT
 AT END OF STEPWISE ASCENT OF REACTION BARRIER

 -------------------------------------------------------------------------------
 opt xyz charge=1 eps=78.4 gnorm=2   let noswap HTML GEO-OK
 Locate the transition state for the ester hydrolysis reaction



     TRANSITION STATE LOCATED USING THE "SADDLE" TECHNIQUE    
     SCF FIELD WAS ACHIEVED                                   


                              PM7 CALCULATION
                                                       MOPAC2016 (Version: 21.153W)
                                                       Sat Jun  5 16:52:12 2021
                                                       No. of days remaining = 362




          FINAL H.O.F PLUS STRESS =       -104.27982 KCAL/MOL =    -436.30677 KJ/MOL
          FINAL STRESS            =          0.00000 KCAL/MOL =       0.00000 KJ/MOL
          FINAL HEAT OF FORMATION =       -104.27982 KCAL/MOL =    -436.30677 KJ/MOL
          TOTAL DISTORTION        =          0.00232 Angstroms
          AVERAGE DISTORTION      =          0.00011 Angstroms per atom (all atoms)
          RMS DISTORTION          =          0.00022 Angstroms per atom (all atoms)
          VAN DER WAALS AREA      =        171.16 SQUARE ANGSTROMS


          TOTAL ENERGY            =      -1843.95231 EV
          ELECTRONIC ENERGY       =      -2441.09030 EV  POINT GROUP:     C1  
          CORE-CORE REPULSION     =        597.13799 EV

          DIELECTRIC ENERGY       =         -2.61470 EV
          COSMO AREA              =        171.16 SQUARE ANGSTROMS
          COSMO VOLUME            =        164.01 CUBIC ANGSTROMS

          GRADIENT NORM           =          1.91862 = 0.41868 PER ATOM
          IONIZATION POTENTIAL    =         11.844888 EV
          HOMO LUMO ENERGIES (EV) =        -11.845  0.060
          NO. OF FILLED LEVELS    =         26
          MOLECULAR WEIGHT        =        125.1443

          MOLECULAR DIMENSIONS (Angstroms)

            Atom       Atom       Distance
            H    20    H    12     7.26576
            H    14    H     8     5.10888
            H    15    H     7     4.05992


          SCF CALCULATIONS        =      19420
 
          WALL-CLOCK TIME         =  5 MINUTES AND 37.945 SECONDS
          COMPUTATION TIME        = 22 MINUTES AND 17.500 SECONDS




   ATOM                 CHEMICAL                   X               Y               Z
  NUMBER                 SYMBOL               (ANGSTROMS)     (ANGSTROMS)     (ANGSTROMS)
 
     1       C(HETATM    1  C1  ACY A   1)   -0.21798925  *   0.09009554  *   0.30156179  *
     2       C(HETATM    2  C2  ACY A   1)    1.13197972  *   0.12439087  *   0.93042127  *
     3       O(HETATM    3  O   ACY A   1)    1.88770817  *   1.21739964  *   0.91697073  *
     4       O(HETATM    4  O   EOH B   2)    1.88976316  *  -1.06522685  *   0.56115202  *
     5       C(HETATM    5  C1  EOH B   2)    3.29481237  *  -0.88524111  *   0.24482436  *
     6       C(HETATM    6  C2  EOH B   2)    3.72763203  *  -2.24073952  *  -0.26907564  *
     7       H(HETATM    7 1H1  ACY A   1)   -0.16305730  *  -0.18131334  *  -0.76881459  *
     8       H(HETATM    8 2H1  ACY A   1)   -0.88988273  *  -0.65003121  *   0.77740977  *
     9       H(HETATM    9 3H1  ACY A   1)   -0.73097899  *   1.06732632  *   0.36497132  *
    10       H(HETATM   10 1H1  EOH B   2)    3.35502054  *  -0.08899712  *  -0.51919271  *
    11       H(HETATM   11 2H1  EOH B   2)    3.82493088  *  -0.56508168  *   1.15967381  *
    12       H(HETATM   12 1H2  EOH B   2)    3.56004479  *  -3.03846146  *   0.47055877  *
    13       H(HETATM   13 2H2  EOH B   2)    3.18751133  *  -2.52252990  *  -1.18382840  *
    14       H(HETATM   14 3H2  EOH B   2)    4.80208149  *  -2.23823383  *  -0.51076408  *
    15       H(HETATM   15  H   ACY G   1)    1.62175961  *   0.14555489  *   2.96486160  *
    16       O(HETATM   16  O   HOH F   3)    1.24470313  *   2.91569864  *  -0.83766562  *
    17       O(HETATM   17  O   ACY G   1)    1.03516592  *  -0.37245485  *   2.32221680  *
    18       H(HETATM   18  H   UNK G    )    1.60219354  *   1.96465806  *   0.17287994  *
    19       H(HETATM   19  H   EOH B   2)    1.72201575  *  -1.40146329  *   1.91085997  *
    20       H(HETATM   20 1H   HOH F   3)    1.13987242  *   3.76307359  *  -0.34988311  *
    21       H(HETATM   21 2H   HOH F   3)    2.06694445  *   3.05821564  *  -1.35712820  *

                             CARTESIAN COORDINATES

   1    C       -0.217989250     0.090095539     0.301561791
   2    C        1.131979721     0.124390867     0.930421273
   3    O        1.887708167     1.217399635     0.916970728
   4    O        1.889763157    -1.065226850     0.561152025
   5    C        3.294812375    -0.885241106     0.244824364
   6    C        3.727632033    -2.240739524    -0.269075635
   7    H       -0.163057300    -0.181313339    -0.768814595
   8    H       -0.889882729    -0.650031206     0.777409766
   9    H       -0.730978985     1.067326317     0.364971323
  10    H        3.355020539    -0.088997116    -0.519192714
  11    H        3.824930879    -0.565081681     1.159673813
  12    H        3.560044786    -3.038461457     0.470558770
  13    H        3.187511326    -2.522529902    -1.183828396
  14    H        4.802081486    -2.238233835    -0.510764080
  15    H        1.621759609     0.145554887     2.964861603
  16    O        1.244703130     2.915698640    -0.837665618
  17    O        1.035165920    -0.372454849     2.322216802
  18    H        1.602193539     1.964658059     0.172879939
  19    H        1.722015752    -1.401463293     1.910859970
  20    H        1.139872418     3.763073590    -0.349883110
  21    H        2.066944447     3.058215643    -1.357128203


           Empirical Formula: C4 H13 O4  =    21 atoms



      MOLECULAR POINT GROUP   :   C1  


                  EIGENVALUES  
 -32.25028 -30.49176 -29.80833 -29.59103 -27.68632 -26.47539 -22.41220 -21.80828
 -19.53765 -18.63779 -18.22731 -18.05051 -16.91203 -16.21795 -15.76749 -15.34875
 -14.99516 -14.66864 -14.12070 -13.84684 -13.55985 -13.18671 -13.00851 -12.72174
 -12.54466 -11.84489   0.05975   1.03295   1.77649   2.41837   2.77091   3.04820
   3.59524   3.96403   4.62007   5.00624   5.01690   5.04028   5.40605   5.51792
   5.59825   5.66122   5.92446   6.17787   6.66799


              NET ATOMIC CHARGES AND DIPOLE CONTRIBUTIONS

  ATOM NO.   TYPE          CHARGE      No. of ELECS.   s-Pop       p-Pop       
    1          C          -0.518991        4.5190     1.06243     3.45657
    2          C           0.713684        3.2863     1.10908     2.17724
    3          O          -0.671873        6.6719     1.84722     4.82466
    4          O          -0.477095        6.4771     1.87969     4.59741
    5          C           0.009529        3.9905     1.10026     2.89021
    6          C          -0.475753        4.4758     1.05579     3.41996
    7          H           0.209159        0.7908     0.79084
    8          H           0.213243        0.7868     0.78676
    9          H           0.208944        0.7911     0.79106
   10          H           0.153132        0.8469     0.84687
   11          H           0.151316        0.8487     0.84868
   12          H           0.171504        0.8285     0.82850
   13          H           0.168226        0.8318     0.83177
   14          H           0.179969        0.8200     0.82003
   15          H           0.418768        0.5812     0.58123
   16          O          -0.677511        6.6775     1.81378     4.86373
   17          O          -0.530053        6.5301     1.85686     4.67319
   18          H           0.444788        0.5552     0.55521
   19          H           0.509369        0.4906     0.49063
   20          H           0.400841        0.5992     0.59916
   21          H           0.398803        0.6012     0.60120
 DIPOLE           X         Y         Z       TOTAL
 POINT-CHG.     0.749     2.403     0.711     2.615
 HYBRID         0.419     0.376     0.411     0.697
 SUM            1.168     2.779     1.122     3.216


          ATOMIC ORBITAL ELECTRON POPULATIONS

                  Atom                 s        px        py        pz   
   C(HETATM    1  C1  ACY A   1)   1.06243   1.03049   1.23765   1.18842
   C(HETATM    2  C2  ACY A   1)   1.10908   0.81614   0.69180   0.66929
   O(HETATM    3  O   ACY A   1)   1.84722   1.65864   1.43743   1.72859
   O(HETATM    4  O   EOH B   2)   1.87969   1.37967   1.47460   1.74314
   C(HETATM    5  C1  EOH B   2)   1.10026   0.71786   1.04961   1.12274
   C(HETATM    6  C2  EOH B   2)   1.05579   1.17857   1.05867   1.18273
   H(HETATM    7 1H1  ACY A   1)   0.79084
   H(HETATM    8 2H1  ACY A   1)   0.78676
   H(HETATM    9 3H1  ACY A   1)   0.79106
   H(HETATM   10 1H1  EOH B   2)   0.84687
   H(HETATM   11 2H1  EOH B   2)   0.84868
   H(HETATM   12 1H2  EOH B   2)   0.82850
   H(HETATM   13 2H2  EOH B   2)   0.83177
   H(HETATM   14 3H2  EOH B   2)   0.82003
   H(HETATM   15  H   ACY G   1)   0.58123
   O(HETATM   16  O   HOH F   3)   1.81378   1.61313   1.55388   1.69672
   O(HETATM   17  O   ACY G   1)   1.85686   1.67955   1.57431   1.41934
   H(HETATM   18  H   UNK G    )   0.55521
   H(HETATM   19  H   EOH B   2)   0.49063
   H(HETATM   20 1H   HOH F   3)   0.59916
   H(HETATM   21 2H   HOH F   3)   0.60120

 **********************
 *                    *
 * JOB ENDED NORMALLY *
 *                    *
 **********************



 TOTAL JOB TIME:           338.01 SECONDS

 == MOPAC DONE ==
