 *******************************************************************************
 ** Site#: 28262 E-mail support:    MrMOPAC@ATT.net    Version 17.278W 64BITS **
 *******************************************************************************
 ** Cite this program as: MOPAC2016, Version: 17.278W, James J. P. Stewart,   **
 ** Stewart Computational Chemistry, web-site: HTTP://OpenMOPAC.net.          **
 *******************************************************************************
 **                                                                           **
 **                                MOPAC2016                                  **
 **                                                                           **
 *******************************************************************************

                              PM7 CALCULATION RESULTS


 *******************************************************************************
 *  CALCULATION DONE:                                Thu Oct 05 09:37:46 2017  *
 *  START_RES  - STARTING RESIDUE NUMBERS DEFINED
 *  Keyword:   START_RES=(3A 1157A-2001) 
 *  CHAINS     - PDB CHAIN LETTERS EXPLICITLY DEFINED
 *  Keyword:   CHAINS=(AA) 
 *  SETPI      - SOME OR ALL PI BONDS EXPLICITLY SET BY USER
 *  MOZYME     - USE LOCALIZED M.O.s IN SOLVING THE SCF EQUATIONS
 *  OPT        - OPTIMIZE COORDINATES OF ALL ATOMS WITHIN 
 *               5 ANGSTROMS OF ATOMS WITH PDB LABEL "*1157"
 *
 *
 *
 *                 CHARGE ON SYSTEM =    -1
 *
 *
 *
 *  EPS= 78.40 - USE ANDREAS KLAMT'S COSMO IMPLICIT SOLVATION MODEL
 *  1SCF       - DO 1 SCF AND THEN STOP 
 *  T=         - A TIME OF      2.0 WEEKS   REQUESTED
 *  DUMP=N     - RESTART FILE WRITTEN EVERY  7200.000 SECONDS
 *  GNORM=     - EXIT WHEN GRADIENT NORM DROPS BELOW   2.00    
 *  OUTPUT     - MINIMIZE OUTPUT
 *  GRADIENTS  - ALL GRADIENTS TO BE PRINTED
 *  HTML       - WRITE HTML SCRIPT TO READ PDB FILE USING JSMOL
 *******************************************************************************
 START_RES=(3A 1157A-2001)  CHAINS=(AA) MOZYME output charge=-1 eps=78.4    HTML setpi  T=2w gnorm=2 opt=("*1157"=5) gradients 1SCF
 Step 5 - MTH1 Chain A + 8OG Optimized with Bias=3, now optimize 5 Angstroms around 8OG without bias

 

               Keyword SETPI used, pi-bonds specified are:

               Bond No.                   Atom               to              Atom
                  1            "HETATM 2499  C6  8OG A1157"   -   "HETATM 2501  N1  8OG A1157"

 General Reference for PM7:
 "Optimization of Parameters for Semiempirical Methods VI: More Modifications to the 
 NDDO Approximations and Re-optimization of Parameters", J. J. P. Stewart, J. Mol. Mod., 1:32, 19 (2013)
 http://www.springerlink.com/openurl.asp?genre=article&id=doi:10.1007/s00894-012-1667-x

           Empirical Formula: C817 H1514 N214 O382 S8 P  =  2936 atoms


   Ion Atom No.           Label               Charge (Distances are between charged sites predicted by Lewis structure theory)
 
    1   N  346   (ATOM    346  NZ  LYS A  23)   +1  (4.9 Angstroms from anion  O 2508, Label: HETATM 2508  OP1 8OG A1157)
    2   N  368   (ATOM    368  NZ  LYS A  24)   +1  (2.7 Angstroms from anion  O 1470, Label: ATOM   1470  OE2 GLU A  97)
    3   C  464   (ATOM    464  CZ  ARG A  31)   +1  (5.9 Angstroms from anion  O 2263, Label: ATOM   2263  OD2 ASP A 143)
    4   C  737   (ATOM    737  CZ  ARG A  50)   +1  (3.4 Angstroms from anion  O  692, Label: ATOM    692  OE2 GLU A  46)
    5   C  761   (ATOM    761  CZ  ARG A  51)   +1  (3.5 Angstroms from anion  O  644, Label: ATOM    644  OE2 GLU A  43)
    6   C 1281   (ATOM   1281  CE1 HIS A  84)   +1  (3.2 Angstroms from anion  O 1251, Label: ATOM   1251  OD2 ASP A  82)
    7   C 2116   (ATOM   2116  CE1 HIS A 134)   +1  (5.4 Angstroms from anion  O 2475, Label: ATOM   2475  OXT VAL A 156)
    8   N 2181   (ATOM   2181  NZ  LYS A 138)   +1  (3.7 Angstroms from anion  O 2327, Label: ATOM   2327  OD2 ASP A 147)
 
    1   O  644   (ATOM    644  OE2 GLU A  43)   -1  (3.5 Angstroms from cation  C  761, Label: ATOM    761  CZ  ARG A  51)
    2   O  692   (ATOM    692  OE2 GLU A  46)   -1  (3.4 Angstroms from cation  C  737, Label: ATOM    737  CZ  ARG A  50)
    3   O 1251   (ATOM   1251  OD2 ASP A  82)   -1  (3.2 Angstroms from cation  C 1281, Label: ATOM   1281  CE1 HIS A  84)
    4   O 1470   (ATOM   1470  OE2 GLU A  97)   -1  (2.7 Angstroms from cation  N  368, Label: ATOM    368  NZ  LYS A  24)
    5   O 2263   (ATOM   2263  OD2 ASP A 143)   -1  (5.9 Angstroms from cation  C  464, Label: ATOM    464  CZ  ARG A  31)
    6   O 2327   (ATOM   2327  OD2 ASP A 147)   -1  (3.7 Angstroms from cation  N 2181, Label: ATOM   2181  NZ  LYS A 138)
    7   O 2475   (ATOM   2475  OXT VAL A 156)   -1  (5.4 Angstroms from cation  C 2116, Label: ATOM   2116  CE1 HIS A 134)
    8   O 2500   (HETATM 2500  O6  8OG A1157)   -1  (7.2 Angstroms from cation  C  464, Label: ATOM    464  CZ  ARG A  31)
    9   O 2508   (HETATM 2508  OP1 8OG A1157)   -1  (4.9 Angstroms from cation  N  346, Label: ATOM    346  NZ  LYS A  23)

          COMPUTED CHARGE ON SYSTEM: -1, THIS AGREES WITH THE CHARGE DEFINED BY KEYWORD "CHARGE"

 -------------------------------------------------------------------------------
 START_RES=(3A 1157A-2001)  CHAINS=(AA) MOZYME output charge=-1 eps=78.4    HTML setpi  T=2w gnorm=2 opt=("*1157"=5) gradients 1SCF
 Step 5 - MTH1 Chain A + 8OG Optimized with Bias=3, now optimize 5 Angstroms around 8OG without bias



     1SCF WAS SPECIFIED, SO BFGS WAS NOT USED                 
     SCF FIELD WAS ACHIEVED                                   


                              PM7 CALCULATION
                                                       MOPAC2016 (Version: 17.278W)
                                                       Thu Oct 05 09:42:21 2017




          FINAL HEAT OF FORMATION =     -24500.46264 KCAL/MOL = -102509.93569 KJ/MOL
          VAN DER WAALS AREA      =       6318.24 SQUARE ANGSTROMS


          TOTAL ENERGY            =    -275278.57166 EV
          ELECTRONIC ENERGY       =  -30593191.69591 EV
          CORE-CORE REPULSION     =   30315335.65947 EV
          DIELECTRIC ENERGY       =        -49.76220 EV
          COSMO AREA              =       6318.24 SQUARE ANGSTROMS
          COSMO VOLUME            =      25364.33 CUBIC ANGSTROMS

          GRADIENT NORM           =          9.34529
          NO. OF FILLED LEVELS    =       4099
          MOLECULAR WEIGHT        =      20735.6060

          MOLECULAR DIMENSIONS (Angstroms)

            Atom       Atom       Distance
            H  2759    H   235    48.70690
            H  1500    O  2448    42.22794
            H  1764    H   635    40.21139


          SCF CALCULATIONS        =          1
 
          WALL-CLOCK TIME         =  4 MINUTES AND 34.508 SECONDS
          COMPUTATION TIME        =  6 MINUTES AND 51.187 SECONDS

          LARGEST ATOMIC GRADIENTS

 Atom              Label                  Cartesian Coordinates        |Gradient|
                                         X          Y          Z

 1899  N(ATOM   1899  NE1 TRP A 123)    6.60668   -8.69920  -11.97717      4.112
  785  O(ATOM    785  OE2 GLU A  52)  -11.55414  -10.15954  -14.06435      3.078
 1811  H(ATOM   1811  HA  TRP A 117)    5.90030  -12.35879  -19.58298      2.670
 2497  C(HETATM 2497  C8  8OG A1157)   -0.29674   -7.73413  -16.85053      2.301
 1911  H(ATOM   1911  HE1 TRP A 123)    6.36281   -8.70737  -12.95243      2.293
 2498  O(HETATM 2498  O8  8OG A1157)   -1.23286   -7.15298  -17.34528      2.022
 1839  C(ATOM   1839  CG  ASP A 119)    6.89199   -7.96771  -15.62981      1.847
 1841  O(ATOM   1841  OD2 ASP A 119)    6.16907   -7.90432  -14.66028      1.808
 1915  H(ATOM   1915  HH2 TRP A 123)    3.45957  -11.40782   -9.87458      1.748
 2637  O(HETATM 2637  O   HOH A2035)   -9.23668  -11.88011  -16.44806      1.296





           Empirical Formula: C817 H1514 N214 O382 S8 P  =  2936 atoms


          NET CHARGE ON RESIDUES

      Residue         Charge  Anion or
                              Cation?
      ALA A   3       +0.017
      SER A   4       +0.000
      ARG A   5       -0.012
      LEU A   6       +0.012
      TYR A   7       +0.025
      THR A   8       -0.047
      LEU A   9       +0.043
      VAL A  10       -0.020
      LEU A  11       +0.025
      VAL A  12       -0.015
      LEU A  13       +0.015
      GLN A  14       +0.022
      PRO A  15       +0.007
      GLN A  16       -0.029
      ARG A  17       +0.026
      VAL A  18       +0.013
      LEU A  19       -0.016
      LEU A  20       +0.023
      GLY A  21       +0.013
      MET A  22       -0.025
      LYS A  23       +1.009  CATION
      LYS A  24       +0.893  CATION
      ARG A  25       +0.003
      GLY A  26       +0.043
      PHE A  27       -0.029
      GLY A  28       -0.034
      ALA A  29       +0.054
      GLY A  30       -0.058
      ARG A  31       +0.998  CATION
      TRP A  32       +0.015
      ASN A  33       +0.004
      GLY A  34       +0.011
      PHE A  35       -0.034
      GLY A  36       +0.045
      GLY A  37       -0.062
      LYS A  38       +0.055
      VAL A  39       -0.036
      GLN A  40       +0.066
      GLU A  41       -0.020
      GLY A  42       -0.026
      GLU A  43       -0.815  ANION
      THR A  44       +0.013
      ILE A  45       -0.042
      GLU A  46       -0.883  ANION
      ASP A  47       -0.063
      GLY A  48       +0.114
      ALA A  49       -0.006
      ARG A  50       +0.868  CATION
      ARG A  51       +0.931  CATION
      GLU A  52       -0.042
      LEU A  53       +0.001
      GLN A  54       +0.029
      GLU A  55       +0.040
      GLU A  56       -0.097
      SER A  57       -0.003
      GLY A  58       +0.038
      LEU A  59       +0.017
      THR A  60       -0.046
      VAL A  61       +0.063
      ASP A  62       -0.061
      ALA A  63       +0.015
      LEU A  64       +0.011
      HIS A  65       -0.063
      LYS A  66       +0.128
      VAL A  67       -0.049
      GLY A  68       -0.038
      GLN A  69       -0.032
      ILE A  70       +0.024
      VAL A  71       +0.021
      PHE A  72       +0.010
      GLU A  73       -0.059
      PHE A  74       +0.027
      VAL A  75       +0.011
      GLY A  76       -0.026
      GLU A  77       +0.045
      PRO A  78       +0.023
      GLU A  79       -0.006
      LEU A  80       +0.035
      MET A  81       -0.010
      ASP A  82       -0.900  ANION
      VAL A  83       +0.073
      HIS A  84       +0.878  CATION
      VAL A  85       +0.000
      PHE A  86       +0.020
      CYS A  87       +0.025
      THR A  88       +0.023
      ASP A  89       -0.029
      SER A  90       -0.010
      ILE A  91       +0.001
      GLN A  92       -0.021
      GLY A  93       +0.064
      THR A  94       -0.025
      PRO A  95       +0.023
      VAL A  96       -0.001
      GLU A  97       -0.875  ANION
      SER A  98       +0.013
      ASP A  99       -0.045
      GLU A 100       -0.015
      MET A 101       +0.052
      ARG A 102       +0.010
      PRO A 103       -0.013
      CYS A 104       +0.022
      TRP A 105       +0.045
      PHE A 106       -0.024
      GLN A 107       +0.029
      LEU A 108       +0.028
      ASP A 109       -0.051
      GLN A 110       -0.001
      ILE A 111       +0.042
      PRO A 112       +0.023
      PHE A 113       -0.050
      LYS A 114       +0.084
      ASP A 115       -0.040
      MET A 116       +0.010
      TRP A 117       +0.025
      PRO A 118       +0.008
      ASP A 119       -0.142
      ASP A 120       -0.051
      SER A 121       +0.027
      TYR A 122       +0.021
      TRP A 123       -0.015
      PHE A 124       -0.017
      PRO A 125       +0.019
      LEU A 126       +0.014
      LEU A 127       +0.012
      LEU A 128       +0.001
      GLN A 129       +0.086
      LYS A 130       +0.026
      LYS A 131       +0.024
      LYS A 132       -0.007
      PHE A 133       +0.025
      HIS A 134       +0.800  CATION
      GLY A 135       +0.038
      TYR A 136       +0.049
      PHE A 137       +0.015
      LYS A 138       +0.946  CATION
      PHE A 139       +0.049
      GLN A 140       -0.040
      GLY A 141       +0.062
      GLN A 142       -0.034
      ASP A 143       -0.991  ANION
      THR A 144       +0.001
      ILE A 145       +0.025
      LEU A 146       +0.002
      ASP A 147       -0.922  ANION
      TYR A 148       +0.043
      THR A 149       +0.008
      LEU A 150       -0.004
      ARG A 151       -0.007
      GLU A 152       +0.033
      VAL A 153       +0.047
      ASP A 154       -0.039
      THR A 155       -0.045
      VAL A 156       -0.855  ANION
      8OG A1157       -1.654  ANION
      SO4 A1158       +0.035
      SO4 A1159       -0.011
 


                   Salt Bridges Found (Up to  8.0 Angstroms)

     No.          Cationic site                            Anionic site                Dist. (Angstroms)

      1  (ATOM   2115  NE2 HIS A 134)  A134(+)    (ATOM   2471  O   VAL A 156)  A156(-)      2.58
      2  (ATOM    738  NH1 ARG A  50)   A50(+)    (ATOM    692  OE2 GLU A  46)   A46(-)      2.60
      3  (ATOM    368  NZ  LYS A  24)   A24(+)    (ATOM   1470  OE2 GLU A  97)   A97(-)      2.65
      4  (ATOM    763  NH2 ARG A  51)   A51(+)    (ATOM    644  OE2 GLU A  43)   A43(-)      2.67
      5  (ATOM    466  NH2 ARG A  31)   A31(+)    (ATOM   2262  OD1 ASP A 143)  A143(-)      2.70
      6  (ATOM   1278  ND1 HIS A  84)   A84(+)    (ATOM   1250  OD1 ASP A  82)   A82(-)      3.15
      7  (ATOM   2181  NZ  LYS A 138)  A138(+)    (ATOM   2327  OD2 ASP A 147)  A147(-)      3.71
      8  (ATOM   1280  NE2 HIS A  84)   A84(+)    (ATOM   2471  O   VAL A 156)  A156(-)      6.44


 DIPOLE           X         Y         Z       TOTAL
 POINT-CHG.   -21.914   100.042    48.579   113.351
 HYBRID        -0.932    11.794     6.814    13.653
 SUM          -22.846   111.835    55.392   126.876
  UNRECOGNIZED ELEMENT NAME: (* )

  Faulty line: " * JOB ENDED NORMALLY *"

 DATA CURRENTLY READ IN ARE: 


 **********************
 *                    *
 * JOB ENDED NORMALLY *
 *                    *
 **********************



 TOTAL JOB TIME:           275.10 SECONDS

 == MOPAC DONE ==
