 *******************************************************************************
 ** Site#: 28262 E-mail support:    MrMOPAC@ATT.net    Version 17.278W 64BITS **
 *******************************************************************************
 ** Cite this program as: MOPAC2016, Version: 17.278W, James J. P. Stewart,   **
 ** Stewart Computational Chemistry, web-site: HTTP://OpenMOPAC.net.          **
 *******************************************************************************
 **                                                                           **
 **                                MOPAC2016                                  **
 **                                                                           **
 *******************************************************************************

                              PM7 CALCULATION RESULTS


 *******************************************************************************
 *  CALCULATION DONE:                                Thu Oct 05 09:57:32 2017  *
 *  SETPI      - SOME OR ALL PI BONDS EXPLICITLY SET BY USER
 *  MOZYME     - USE LOCALIZED M.O.s IN SOLVING THE SCF EQUATIONS
 *  NOOPT      - DO NOT OPTIMIZE ANY COORDINATES
 *  OPT-H      - OPTIMIZE COORDINATES OF ATOMS OF TYPE H
 *
 *
 *
 *                 CHARGE ON SYSTEM =    -1
 *
 *
 *
 *  EPS= 78.40 - USE ANDREAS KLAMT'S COSMO IMPLICIT SOLVATION MODEL
 *  1SCF       - DO 1 SCF AND THEN STOP 
 *  T=         - A TIME OF      2.0 WEEKS   REQUESTED
 *  DUMP=N     - RESTART FILE WRITTEN EVERY  7200.000 SECONDS
 *  GNORM=     - EXIT WHEN GRADIENT NORM DROPS BELOW   5.00    
 *  OUTPUT     - MINIMIZE OUTPUT
 *  HTML       - WRITE HTML SCRIPT TO READ PDB FILE USING JSMOL
 *******************************************************************************
HTML OUTPUT noopt opt-H setpi t=2W GNORM=5 charge=-1 MOZYME eps=78.4 1SCF
 Step 3 - Optimizing the positions of the hydrogen atoms

 

               Keyword SETPI used, pi-bonds specified are:

               Bond No.                   Atom               to              Atom
                  1            "HETATM 2500  C6  8OG A1157"   -   "HETATM 2502  N1  8OG A1157"

 General Reference for PM7:
 "Optimization of Parameters for Semiempirical Methods VI: More Modifications to the 
 NDDO Approximations and Re-optimization of Parameters", J. J. P. Stewart, J. Mol. Mod., 1:32, 19 (2013)
 http://www.springerlink.com/openurl.asp?genre=article&id=doi:10.1007/s00894-012-1667-x

           Empirical Formula: C817 H1514 N214 O382 S8 P  =  2936 atoms


   Ion Atom No.           Label               Charge (Distances are between charged sites predicted by Lewis structure theory)
 
    1   N  346   (ATOM    346  NZ  LYS A  23)   +1  (4.7 Angstroms from anion  O 2508, Label: HETATM 2509  OP1 8OG A1157)
    2   N  368   (ATOM    368  NZ  LYS A  24)   +1  (2.8 Angstroms from anion  O 1470, Label: ATOM   1470  OE2 GLU A  97)
    3   C  464   (ATOM    464  CZ  ARG A  31)   +1  (6.0 Angstroms from anion  O 2263, Label: ATOM   2263  OD2 ASP A 143)
    4   C  737   (ATOM    737  CZ  ARG A  50)   +1  (3.3 Angstroms from anion  O  692, Label: ATOM    692  OE2 GLU A  46)
    5   C  761   (ATOM    761  CZ  ARG A  51)   +1  (3.5 Angstroms from anion  O  644, Label: ATOM    644  OE2 GLU A  43)
    6   C 1281   (ATOM   1281  CE1 HIS A  84)   +1  (3.3 Angstroms from anion  O 1251, Label: ATOM   1251  OD2 ASP A  82)
    7   C 2116   (ATOM   2116  CE1 HIS A 134)   +1  (5.4 Angstroms from anion  O 2475, Label: ATOM   2475  OXT VAL A 156)
    8   N 2181   (ATOM   2181  NZ  LYS A 138)   +1  (3.8 Angstroms from anion  O 2327, Label: ATOM   2327  OD2 ASP A 147)
 
    1   O  644   (ATOM    644  OE2 GLU A  43)   -1  (3.5 Angstroms from cation  C  761, Label: ATOM    761  CZ  ARG A  51)
    2   O  692   (ATOM    692  OE2 GLU A  46)   -1  (3.3 Angstroms from cation  C  737, Label: ATOM    737  CZ  ARG A  50)
    3   O 1251   (ATOM   1251  OD2 ASP A  82)   -1  (3.3 Angstroms from cation  C 1281, Label: ATOM   1281  CE1 HIS A  84)
    4   O 1470   (ATOM   1470  OE2 GLU A  97)   -1  (2.8 Angstroms from cation  N  368, Label: ATOM    368  NZ  LYS A  24)
    5   O 2263   (ATOM   2263  OD2 ASP A 143)   -1  (6.0 Angstroms from cation  C  464, Label: ATOM    464  CZ  ARG A  31)
    6   O 2327   (ATOM   2327  OD2 ASP A 147)   -1  (3.8 Angstroms from cation  N 2181, Label: ATOM   2181  NZ  LYS A 138)
    7   O 2475   (ATOM   2475  OXT VAL A 156)   -1  (5.4 Angstroms from cation  C 2116, Label: ATOM   2116  CE1 HIS A 134)
    8   O 2500   (HETATM 2501  O6  8OG A1157)   -1  (7.4 Angstroms from cation  C  464, Label: ATOM    464  CZ  ARG A  31)
    9   O 2508   (HETATM 2509  OP1 8OG A1157)   -1  (4.7 Angstroms from cation  N  346, Label: ATOM    346  NZ  LYS A  23)

          COMPUTED CHARGE ON SYSTEM: -1, THIS AGREES WITH THE CHARGE DEFINED BY KEYWORD "CHARGE"

 -------------------------------------------------------------------------------
HTML OUTPUT noopt opt-H setpi t=2W GNORM=5 charge=-1 MOZYME eps=78.4 1SCF
 Step 3 - Optimizing the positions of the hydrogen atoms



     1SCF WAS SPECIFIED, SO BFGS WAS NOT USED                 
     SCF FIELD WAS ACHIEVED                                   


                              PM7 CALCULATION
                                                       MOPAC2016 (Version: 17.278W)
                                                       Thu Oct 05 10:01:35 2017




          FINAL HEAT OF FORMATION =     -23049.09419 KCAL/MOL =  -96437.41011 KJ/MOL
          VAN DER WAALS AREA      =       6337.62 SQUARE ANGSTROMS


          TOTAL ENERGY            =    -275226.16019 EV
          ELECTRONIC ENERGY       =  -30555177.29587 EV
          CORE-CORE REPULSION     =   30277482.24251 EV
          DIELECTRIC ENERGY       =        -54.14155 EV
          COSMO AREA              =       6337.62 SQUARE ANGSTROMS
          COSMO VOLUME            =      25493.24 CUBIC ANGSTROMS

          NO. OF FILLED LEVELS    =       4099
          MOLECULAR WEIGHT        =      20735.6060

          MOLECULAR DIMENSIONS (Angstroms)

            Atom       Atom       Distance
            H  2759    H   235    48.92566
            H  1500    O  2448    42.26053
            H  1764    H   635    40.18040


          SCF CALCULATIONS        =          1
 
          WALL-CLOCK TIME         =  4 MINUTES AND  2.652 SECONDS
          COMPUTATION TIME        =  6 MINUTES AND 34.636 SECONDS





           Empirical Formula: C817 H1514 N214 O382 S8 P  =  2936 atoms


          NET CHARGE ON RESIDUES

      Residue         Charge  Anion or
                              Cation?
      ALA A   3       -0.038
      SER A   4       +0.018
      ARG A   5       -0.001
      LEU A   6       +0.037
      TYR A   7       -0.013
      THR A   8       -0.001
      LEU A   9       +0.007
      VAL A  10       -0.015
      LEU A  11       +0.019
      VAL A  12       -0.030
      LEU A  13       +0.011
      GLN A  14       +0.055
      PRO A  15       +0.028
      GLN A  16       -0.050
      ARG A  17       +0.010
      VAL A  18       +0.009
      LEU A  19       -0.005
      LEU A  20       +0.032
      GLY A  21       +0.010
      MET A  22       -0.011
      LYS A  23       +1.008  CATION
      LYS A  24       +0.931  CATION
      ARG A  25       +0.005
      GLY A  26       +0.026
      PHE A  27       -0.016
      GLY A  28       -0.005
      ALA A  29       +0.008
      GLY A  30       -0.011
      ARG A  31       +0.951  CATION
      TRP A  32       +0.014
      ASN A  33       -0.002
      GLY A  34       +0.014
      PHE A  35       -0.011
      GLY A  36       -0.009
      GLY A  37       -0.013
      LYS A  38       +0.058
      VAL A  39       -0.057
      GLN A  40       +0.088
      GLU A  41       -0.007
      GLY A  42       -0.036
      GLU A  43       -0.863  ANION
      THR A  44       +0.006
      ILE A  45       -0.036
      GLU A  46       -0.916  ANION
      ASP A  47       -0.028
      GLY A  48       +0.084
      ALA A  49       -0.037
      ARG A  50       +0.951  CATION
      ARG A  51       +0.948  CATION
      GLU A  52       -0.049
      LEU A  53       +0.007
      GLN A  54       +0.050
      GLU A  55       -0.034
      GLU A  56       -0.062
      SER A  57       -0.035
      GLY A  58       +0.035
      LEU A  59       -0.024
      THR A  60       -0.011
      VAL A  61       +0.075
      ASP A  62       -0.054
      ALA A  63       +0.017
      LEU A  64       -0.002
      HIS A  65       -0.057
      LYS A  66       +0.063
      VAL A  67       -0.013
      GLY A  68       -0.037
      GLN A  69       -0.041
      ILE A  70       +0.023
      VAL A  71       +0.004
      PHE A  72       +0.028
      GLU A  73       -0.050
      PHE A  74       +0.014
      VAL A  75       +0.030
      GLY A  76       -0.049
      GLU A  77       +0.027
      PRO A  78       +0.027
      GLU A  79       -0.029
      LEU A  80       +0.055
      MET A  81       -0.015
      ASP A  82       -0.905  ANION
      VAL A  83       +0.070
      HIS A  84       +0.903  CATION
      VAL A  85       -0.022
      PHE A  86       +0.031
      CYS A  87       -0.008
      THR A  88       +0.050
      ASP A  89       -0.003
      SER A  90       -0.041
      ILE A  91       -0.009
      GLN A  92       +0.013
      GLY A  93       +0.047
      THR A  94       -0.006
      PRO A  95       -0.001
      VAL A  96       -0.006
      GLU A  97       -0.884  ANION
      SER A  98       +0.005
      ASP A  99       -0.013
      GLU A 100       +0.003
      MET A 101       +0.040
      ARG A 102       +0.007
      PRO A 103       -0.006
      CYS A 104       -0.015
      TRP A 105       +0.054
      PHE A 106       -0.018
      GLN A 107       +0.020
      LEU A 108       +0.017
      ASP A 109       -0.041
      GLN A 110       +0.007
      ILE A 111       +0.045
      PRO A 112       +0.000
      PHE A 113       -0.038
      LYS A 114       +0.074
      ASP A 115       -0.036
      MET A 116       -0.005
      TRP A 117       +0.035
      PRO A 118       -0.009
      ASP A 119       -0.149
      ASP A 120       -0.071
      SER A 121       +0.033
      TYR A 122       +0.038
      TRP A 123       -0.017
      PHE A 124       -0.019
      PRO A 125       +0.026
      LEU A 126       +0.013
      LEU A 127       +0.000
      LEU A 128       +0.015
      GLN A 129       +0.057
      LYS A 130       -0.013
      LYS A 131       +0.022
      LYS A 132       -0.029
      PHE A 133       +0.013
      HIS A 134       +0.833  CATION
      GLY A 135       +0.051
      TYR A 136       +0.046
      PHE A 137       +0.032
      LYS A 138       +0.935  CATION
      PHE A 139       +0.042
      GLN A 140       -0.020
      GLY A 141       +0.070
      GLN A 142       -0.034
      ASP A 143       -1.002  ANION
      THR A 144       -0.011
      ILE A 145       -0.004
      LEU A 146       +0.020
      ASP A 147       -0.946  ANION
      TYR A 148       +0.031
      THR A 149       +0.012
      LEU A 150       -0.008
      ARG A 151       -0.008
      GLU A 152       +0.067
      VAL A 153       +0.028
      ASP A 154       -0.030
      THR A 155       -0.010
      VAL A 156       -0.874  ANION
      8OG A1157       -1.585  ANION
      SO4 A1158       +0.025
      SO4 A1159       -0.022
 


                   Salt Bridges Found (Up to  8.0 Angstroms)

     No.          Cationic site                            Anionic site                Dist. (Angstroms)

      1  (ATOM    738  NH1 ARG A  50)   A50(+)    (ATOM    692  OE2 GLU A  46)   A46(-)      2.63
      2  (ATOM   2115  NE2 HIS A 134)  A134(+)    (ATOM   2471  O   VAL A 156)  A156(-)      2.67
      3  (ATOM    760  NE  ARG A  51)   A51(+)    (ATOM    643  OE1 GLU A  43)   A43(-)      2.77
      4  (ATOM    368  NZ  LYS A  24)   A24(+)    (ATOM   1470  OE2 GLU A  97)   A97(-)      2.79
      5  (ATOM    466  NH2 ARG A  31)   A31(+)    (ATOM   2262  OD1 ASP A 143)  A143(-)      2.80
      6  (ATOM   1278  ND1 HIS A  84)   A84(+)    (ATOM   1250  OD1 ASP A  82)   A82(-)      3.42
      7  (ATOM   2181  NZ  LYS A 138)  A138(+)    (ATOM   2327  OD2 ASP A 147)  A147(-)      3.80
      8  (ATOM   1280  NE2 HIS A  84)   A84(+)    (ATOM   2471  O   VAL A 156)  A156(-)      6.33


 DIPOLE           X         Y         Z       TOTAL
 POINT-CHG.   -17.476   109.812    49.616   121.761
 HYBRID         0.451    13.382     7.663    15.428
 SUM          -17.024   123.194    57.279   136.921

 **********************
 *                    *
 * JOB ENDED NORMALLY *
 *                    *
 **********************



 TOTAL JOB TIME:           243.20 SECONDS

 == MOPAC DONE ==
