 *******************************************************************************
 ** Site#: 10005        For non-commercial use only     Version 15.317W 64BITS**
 *******************************************************************************
 ** Cite this work as:                                                        **
 **                                                                           **
 ** (a) MOPAC2012, James J. P. Stewart, Stewart Computational Chemistry,      **
 **  Version 15.317W web: HTTP://OpenMOPAC.net         Days remaining: 365    **
 **                                                                           **
 **                                 AND                                       **
 **                                                                           **
 ** (b) Maia, J.D.C., et al., J. Chem. Theory Comput. 2012, 8, 3072-3081.     **
 **                DOI: 10.1021/ct3004645.                                    **
 *******************************************************************************
 **                                                                           **
 **                                MOPAC2012                                  **
 **                                                                           **
 *******************************************************************************

                              PM7 CALCULATION RESULTS


 *******************************************************************************
 *  CALCULATION DONE:                                Fri Nov 13 09:48:20 2015  *
 *  GEO_DAT    - DATA SET GEOMETRY IS IN FILE "LOCATE_TS.ARC"
 *
 *
 *
 *                 CHARGE ON SYSTEM =    -1
 *
 *
 *
 *  EPS= 78.40 - USE ANDREAS KLAMT'S COSMO IMPLICIT SOLVATION MODEL
 *  TS         - USE EF ROUTINE FOR TS SEARCH
 *  T=         - A TIME OF 172800.0 SECONDS REQUESTED
 *  DUMP=N     - RESTART FILE WRITTEN EVERY  7200.000 SECONDS
 *  GNORM=     - EXIT WHEN GRADIENT NORM DROPS BELOW   2.00    
 *******************************************************************************
TS eps=78.4 gnorm=2  charge=-1 geo_dat="Locate_TS.arc"
 Transition state for CH3Cl --- Cl(-) <=> Cl(-) --- CH3Cl

   ATOM                 CHEMICAL                   X               Y               Z
  NUMBER                 SYMBOL               (ANGSTROMS)     (ANGSTROMS)     (ANGSTROMS)
 
     1       C(HETATM    1  C   HET A   1)    0.11535335  *  -0.00151994  *   0.00165410  *
     2      Cl(HETATM    2 Cl   HET A   1)    2.29249865  *   0.01041500  *   0.00192495  *
     3       H(HETATM    3 1HT  HET A   1)    0.11319326      1.08441038      0.01007045   
     4       H(HETATM    4 2HT  HET A   1)    0.11670725     -0.53410456     -0.94447173   
     5       H(HETATM    5 3HT  HET A   1)    0.11635598     -0.54961027      0.93883287   
     6      Cl(HETATM    6 Cl   HET A   1)   -2.06292787  *   0.00010471  *  -0.00100681  *
 

     ===================== shared-memory parallel CPU Section ======================
     **                                                                           **
     **  MOPAC calculations will run in shared-memory parallel CPUs               **
     **                                                                           **
     **  Number of Threads =  4                                                   **
     **                                                                           **
     **                                                                           **
     **  For information on this work, see:                                       **
     **                                                                           **
     **  Maia, J.D.C., et al., J. Chem. Theory Comput. 2012, 8, 3072-3081.        **
     **        DOI: 10.1021/ct3004645.                                            **
     **                                                                           **
     ===================== shared-memory parallel CPU Section ======================
      


 General Reference for PM7:
 "Optimization of Parameters for Semiempirical Methods VI: More Modifications to the 
 NDDO Approximations and Re-optimization of Parameters", J. J. P. Stewart, J. Mol. Mod., 1:32, 19 (2013)
 http://www.springerlink.com/openurl.asp?genre=article&id=doi:10.1007/s00894-012-1667-x

           Empirical Formula: C H3 Cl2  =     6 atoms



      MOLECULAR POINT GROUP   :   D3h 


      RHF CALCULATION, NO. OF DOUBLY OCCUPIED LEVELS =   11

      Transition state refinement using EF

          HESSIAN CALCULATED NUMERICALLY

 CYCLE:     1 TIME:   0.109 TIME LEFT:  2.00D  GRAD.:     2.765 HEAT: -143.4342
 CYCLE:     2 TIME:   0.016 TIME LEFT:  2.00D  GRAD.:     0.111 HEAT: -143.4510

     GRADIENT =  0.11081  IS LESS THAN CUTOFF =  2.00000



 -------------------------------------------------------------------------------
TS eps=78.4 gnorm=2  charge=-1 geo_dat="Locate_TS.arc"
 Transition state for CH3Cl --- Cl(-) <=> Cl(-) --- CH3Cl



     GEOMETRY OPTIMISED USING EIGENVECTOR FOLLOWING (TS).     
     SCF FIELD WAS ACHIEVED                                   


                              PM7 CALCULATION
                                                       MOPAC2012 (Version: 15.317W)
                                                       Fri Nov 13 09:48:20 2015
                                                       No. of days left = 365




          FINAL HEAT OF FORMATION =       -143.45104 KCAL/MOL =    -600.19915 KJ/MOL
          VAN DER WAALS AREA      =        109.08 SQUARE ANGSTROMS


          TOTAL ENERGY            =       -702.29316 EV
          ELECTRONIC ENERGY       =       -445.67283 EV  POINT GROUP:     D3h 
          CORE-CORE REPULSION     =       -256.62033 EV
          DIELECTRIC ENERGY       =         -2.72530 EV
          COSMO AREA              =        109.08 SQUARE ANGSTROMS
          COSMO VOLUME            =         92.04 CUBIC ANGSTROMS

          GRADIENT NORM           =          0.11081
          IONIZATION POTENTIAL    =         10.332853 EV
          HOMO LUMO ENERGIES (EV) =        -10.333 -0.193
          NO. OF FILLED LEVELS    =         11
          MOLECULAR WEIGHT        =         85.941

          MOLECULAR DIMENSIONS (Angstroms)

            Atom       Atom       Distance
           Cl     6   Cl     2     4.37356
            H     5    H     4     1.88337
            H     4    H     3     1.62632


          SCF CALCULATIONS        =         13
 
          WALL-CLOCK TIME         =          0.125 SECONDS
          COMPUTATION TIME        =          0.437 SECONDS




   ATOM                 CHEMICAL                   X               Y               Z
  NUMBER                 SYMBOL               (ANGSTROMS)     (ANGSTROMS)     (ANGSTROMS)
 
     1       C(HETATM    1  C   HET A   1)    0.11542641  *  -0.00094489  *   0.00157969  *
     2      Cl(HETATM    2 Cl   HET A   1)    2.30226645  *   0.00262019  *  -0.00032357  *
     3       H(HETATM    3 1HT  HET A   1)    0.11319326      1.08441038      0.01007045   
     4       H(HETATM    4 2HT  HET A   1)    0.11670725     -0.53410456     -0.94447173   
     5       H(HETATM    5 3HT  HET A   1)    0.11635598     -0.54961027      0.93883287   
     6      Cl(HETATM    6 Cl   HET A   1)   -2.07127979  *  -0.00496448  *   0.00479958  *

                             CARTESIAN COORDINATES

   1    C        0.115426414    -0.000944885     0.001579692
   2   Cl        2.302266452     0.002620191    -0.000323572
   3    H        0.113193260     1.084410380     0.010070450
   4    H        0.116707250    -0.534104560    -0.944471730
   5    H        0.116355980    -0.549610270     0.938832870
   6   Cl       -2.071279788    -0.004964483     0.004799583


           Empirical Formula: C H3 Cl2  =     6 atoms



      MOLECULAR POINT GROUP   :   D3h 


                  EIGENVALUES  
 -26.76248 -25.40459 -23.79150 -15.10007 -15.08453 -12.79336 -11.19140 -11.18858
 -11.00090 -10.99791 -10.33285  -0.19344   5.13899   5.40823   5.41681  74.94250
  75.14129  75.14187  75.74039  75.85970  75.86017  76.07440  76.07440  76.24869
  76.24871


              NET ATOMIC CHARGES AND DIPOLE CONTRIBUTIONS

  ATOM NO.                 TYPE                        CHARGE      No. of ELECS.   s-Pop       p-Pop       d-Pop       
    1          C(HETATM    1  C   HET A   1)           0.102735        3.8973     1.20468     2.69258
    2         Cl(HETATM    2 Cl   HET A   1)          -0.791871        7.7919     1.99576     5.79300     0.00311
    3          H(HETATM    3 1HT  HET A   1)           0.159773        0.8402     0.84023
    4          H(HETATM    4 2HT  HET A   1)           0.160638        0.8394     0.83936
    5          H(HETATM    5 3HT  HET A   1)           0.160480        0.8395     0.83952
    6         Cl(HETATM    6 Cl   HET A   1)          -0.791756        7.7918     1.99576     5.79289     0.00311
 DIPOLE           X         Y         Z       TOTAL
 POINT-CHG.    -0.001    -0.000    -0.003     0.004
 HYBRID        -0.000     0.003    -0.000     0.003
 SUM           -0.002     0.003    -0.003     0.005


          ATOMIC ORBITAL ELECTRON POPULATIONS

                   Atom                  s        px        py        pz      x^2-y^2     xz        z^2       yz        xy
   C(HETATM    1  C   HET A   1)   1.20468   0.42086   1.13619   1.13553
  Cl(HETATM    2 Cl   HET A   1)   1.99576   1.79305   1.99998   1.99998   0.00160   0.00049   0.00054   0.00001   0.00048
   H(HETATM    3 1HT  HET A   1)   0.84023
   H(HETATM    4 2HT  HET A   1)   0.83936
   H(HETATM    5 3HT  HET A   1)   0.83952
  Cl(HETATM    6 Cl   HET A   1)   1.99576   1.79293   1.99998   1.99998   0.00160   0.00049   0.00054   0.00001   0.00048
 *******************************************************************************
 ** Site#: 10005        For non-commercial use only     Version 15.317W 64BITS**
 *******************************************************************************
 ** Cite this work as:                                                        **
 **                                                                           **
 ** (a) MOPAC2012, James J. P. Stewart, Stewart Computational Chemistry,      **
 **  Version 15.317W web: HTTP://OpenMOPAC.net         Days remaining: 365    **
 **                                                                           **
 **                                 AND                                       **
 **                                                                           **
 ** (b) Maia, J.D.C., et al., J. Chem. Theory Comput. 2012, 8, 3072-3081.     **
 **                DOI: 10.1021/ct3004645.                                    **
 *******************************************************************************
 **                                                                           **
 **                                MOPAC2012                                  **
 **                                                                           **
 *******************************************************************************

                              PM7 CALCULATION RESULTS


 *******************************************************************************
 *  CALCULATION DONE:                                Fri Nov 13 09:48:20 2015  *
 *
 *
 *
 *                 CHARGE ON SYSTEM =    -1
 *
 *
 *
 *  EPS= 78.40 - USE ANDREAS KLAMT'S COSMO IMPLICIT SOLVATION MODEL
 *  IRC=N      - INTRINSIC REACTION COORDINATE  1 DEFINED
 *  DRC        - DYNAMIC REACTION COORDINATE CALCULATION
 *  OLDGEO     - PREVIOUS GEOMETRY TO BE USED
 *  T=         - A TIME OF 172800.0 SECONDS REQUESTED
 *  DUMP=N     - RESTART FILE WRITTEN EVERY  7200.000 SECONDS
 *  CYCLES=    - DO A MAXIMUM OF   300 STEPS
 *  T-PRIOR    - TIME TAKES PRIORITY IN DRC
 *******************************************************************************
oldgeo eps=78.4 charge=-1 IRC=1* HTML T-priority=0.5 cycles=300 DRC
 Dynamic Reaction Coordinate for CH3Cl --- Cl(-) <=> Cl(-) --- CH3Cl

   ATOM                 CHEMICAL                   X               Y               Z
  NUMBER                 SYMBOL               (ANGSTROMS)     (ANGSTROMS)     (ANGSTROMS)
 
     1       C(HETATM    1  C   HET A   1)    0.11542641  *  -0.00094489  *   0.00157969  *
     2      Cl(HETATM    2 Cl   HET A   1)    2.30226645  *   0.00262019  *  -0.00032357  *
     3       H(HETATM    3 1HT  HET A   1)    0.11319326      1.08441038      0.01007045   
     4       H(HETATM    4 2HT  HET A   1)    0.11670725     -0.53410456     -0.94447173   
     5       H(HETATM    5 3HT  HET A   1)    0.11635598     -0.54961027      0.93883287   
     6      Cl(HETATM    6 Cl   HET A   1)   -2.07127979  *  -0.00496448  *   0.00479958  *
 

 General Reference for PM7:
 "Optimization of Parameters for Semiempirical Methods VI: More Modifications to the 
 NDDO Approximations and Re-optimization of Parameters", J. J. P. Stewart, J. Mol. Mod., 1:32, 19 (2013)
 http://www.springerlink.com/openurl.asp?genre=article&id=doi:10.1007/s00894-012-1667-x

           Empirical Formula: C H3 Cl2  =     6 atoms



      MOLECULAR POINT GROUP   :   D3h 


      RHF CALCULATION, NO. OF DOUBLY OCCUPIED LEVELS =   11



          HEAT OF FORMATION =    -143.451050 KCALS/MOLE


          GRADIENT NORM =   0.77242

          MOLECULAR WEIGHT =   85.94


    FOR POINT-GROUP D3h  THERE ARE  12 UNIQUE SYMMETRY FUNCTIONS.

 STEP:   1 TIME =     0.02 SECS, INTEGRAL =      0.02 TIME LEFT: 172799.98
 STEP:   2 TIME =     0.02 SECS, INTEGRAL =      0.04 TIME LEFT: 172799.96
 STEP:   3 TIME =     0.03 SECS, INTEGRAL =      0.07 TIME LEFT: 172799.93
 STEP:   4 TIME =     0.01 SECS, INTEGRAL =      0.08 TIME LEFT: 172799.92
 STEP:   5 TIME =     0.02 SECS, INTEGRAL =      0.10 TIME LEFT: 172799.90
 STEP:   6 TIME =     0.02 SECS, INTEGRAL =      0.11 TIME LEFT: 172799.89
 STEP:   7 TIME =     0.01 SECS, INTEGRAL =      0.12 TIME LEFT: 172799.88
 STEP:   8 TIME =     0.00 SECS, INTEGRAL =      0.12 TIME LEFT: 172799.88
 STEP:   9 TIME =     0.03 SECS, INTEGRAL =      0.16 TIME LEFT: 172799.84
 STEP:  10                       INTEGRAL =      0.16 TIME LEFT: 172799.84
 STEP:  11                       INTEGRAL =      0.16 TIME LEFT: 172799.84
 STEP:  12                       INTEGRAL =      0.16 TIME LEFT: 172799.84
 STEP:  13                       INTEGRAL =      0.16 TIME LEFT: 172799.84
 STEP:  14                       INTEGRAL =      0.16 TIME LEFT: 172799.84
 STEP:  15                       INTEGRAL =      0.16 TIME LEFT: 172799.84
 STEP:  16                       INTEGRAL =      0.16 TIME LEFT: 172799.84
 STEP:  17                       INTEGRAL =      0.16 TIME LEFT: 172799.84
 STEP:  18                       INTEGRAL =      0.16 TIME LEFT: 172799.84
           INITIAL VELOCITY IN DRC (Angstroms/Femtosecond)
         0.74283         0.00007        -0.00023
        -0.12591         0.00000         0.00000
         0.00178         0.00000        -0.00000
         0.00177         0.00000        -0.00000
         0.00180         0.00000        -0.00000
        -0.12591        -0.00003         0.00008
 THE VIBRATIONAL FREQUENCY (  -555.87CM(-1)) IS TOO SMALL
 FOR ONE QUANTUM TO BE USED
 INSTEAD 0.3KCAL/MOLE WILL BE USED TO START THE IRC

 TIME PRIORITY, INTERVAL = 0.50 FEMTOSECONDS



 FEMTOSECONDS  POINT  POTENTIAL + KINETIC  =   TOTAL     ERROR    REF%   MOVEMENT
     0.000       1  -143.45104    0.30000  -143.15104   0.00000     1   %  0.0000
     0.500       1  -143.45180    0.29992  -143.15188  -0.00084     2   %  0.0029
     1.000       1  -143.45414    0.30247  -143.15167  -0.00063     3   %  0.0059
     1.500       3  -143.45996    0.30689  -143.15308  -0.00204     4   %  0.0090
     2.000       4  -143.47079    0.31189  -143.15890  -0.00786     5   %  0.0123
     2.500       5  -143.48137    0.32479  -143.15658  -0.00554     6   %  0.0157
     3.000       6  -143.49120    0.34011  -143.15109  -0.00005     7   %  0.0191
     3.500       6  -143.50143    0.35241  -143.14901   0.00202     8   %  0.0227
     4.000       7  -143.51432    0.36499  -143.14933   0.00171     9   %  0.0264
     4.500       8  -143.52872    0.37999  -143.14873   0.00231    10   %  0.0302
     5.000       8  -143.54562    0.39753  -143.14809   0.00295    11   %  0.0340
     5.500       9  -143.56734    0.41650  -143.15084   0.00020    12   %  0.0379
     6.000      10  -143.59062    0.44009  -143.15054   0.00050    13   %  0.0418
     6.500      10  -143.61609    0.46783  -143.14826   0.00278    14   %  0.0458
     7.000      11  -143.64628    0.49677  -143.14950   0.00154    15   %  0.0499
     7.500      11  -143.68075    0.52967  -143.15108  -0.00004    16   %  0.0541
     8.000      12  -143.71800    0.56774  -143.15026   0.00078    17   %  0.0584
     8.500      13  -143.76261    0.61045  -143.15217  -0.00113    18   %  0.0628
     9.000      13  -143.81606    0.65693  -143.15913  -0.00809    19   %  0.0674
     9.500      14  -143.87109    0.71265  -143.15844  -0.00740    20   %  0.0721
    10.000      14  -143.92761    0.77775  -143.14985   0.00119    21   %  0.0770
    10.500      15  -143.99118    0.84491  -143.14627   0.00477    22   %  0.0821
    11.000      15  -144.06180    0.91371  -143.14809   0.00295    23   %  0.0874
    11.500      16  -144.13943    0.99139  -143.14804   0.00300    24   %  0.0929
    12.000      16  -144.22196    1.07787  -143.14409   0.00695    25   %  0.0986
    12.500      16  -144.31688    1.17341  -143.14346   0.00758    26   %  0.1046
    13.000      17  -144.42561    1.27496  -143.15064   0.00040    27   %  0.1109
    13.500      17  -144.54484    1.38955  -143.15529  -0.00425    28   %  0.1175
    14.000      18  -144.67538    1.51874  -143.15665  -0.00560    29   %  0.1244
    14.500      18  -144.81521    1.66145  -143.15376  -0.00271    30   %  0.1317
    15.000      19  -144.96079    1.81718  -143.14361   0.00744    31   %  0.1395
    15.500      19  -145.10470    1.98753  -143.11717   0.03388    32   %  0.1477
    16.000      19  -145.27227    2.16702  -143.10525   0.04580    33   %  0.1563
    16.500      20  -145.46735    2.34510  -143.12226   0.02879    34   %  0.1654
    17.000      20  -145.68432    2.53716  -143.14716   0.00389    35   %  0.1749
    17.500      20  -145.91824    2.75675  -143.16149  -0.01044    36   %  0.1849
    18.000      21  -146.15946    3.01307  -143.14639   0.00466    37   %  0.1953
    18.500      21  -146.42656    3.28840  -143.13816   0.01289    38   %  0.2061
    19.000      22  -146.72317    3.57975  -143.14342   0.00763    39   %  0.2176
    19.500      22  -147.07251    3.87608  -143.19643  -0.04537    40   %  0.2294
    20.000      22  -147.42393    4.20147  -143.22246  -0.07140    41   %  0.2420
    20.500      23  -147.77562    4.55941  -143.21621  -0.06515    42   %  0.2553
    21.000      23  -148.11279    4.97828  -143.13451   0.01655    43   %  0.2690
    21.500      23  -148.47061    5.39051  -143.08010   0.07096    44   %  0.2837
    22.000      23  -148.84907    5.79609  -143.05298   0.09808    45   %  0.2993
    22.500      24  -149.27009    6.17653  -143.09356   0.05751    46   %  0.3157
    23.000      24  -149.69339    6.56583  -143.12756   0.02351    47   %  0.3332
    23.500      24  -150.11748    6.96527  -143.15221  -0.00114    48   %  0.3515
    24.000      25  -150.56454    7.39899  -143.16555  -0.01447    49   %  0.3709
    24.500      25  -151.00255    7.83215  -143.17040  -0.01932    50   %  0.3912
    25.000      25  -151.41784    8.24987  -143.16797  -0.01689    51   %  0.4124
    25.500      26  -151.81663    8.67138  -143.14525   0.00583    52   %  0.4348
    26.000      26  -152.20137    9.10424  -143.09713   0.05396    53   %  0.4582
    26.500      26  -152.54907    9.47740  -143.07166   0.07943    54   %  0.4825
    27.000      26  -152.85972    9.79087  -143.06885   0.08224    55   %  0.5075
    27.500      27  -153.14076   10.03675  -143.10401   0.04709    56   %  0.5336
    28.000      27  -153.37340   10.23494  -143.13846   0.01264    57   %  0.5602
    28.500      28  -153.55830   10.40298  -143.15532  -0.00422    58   %  0.5873
    29.000      28  -153.67407   10.51216  -143.16191  -0.01080    59   %  0.6149
    29.500      29  -153.71696   10.55920  -143.15776  -0.00664    60   %  0.6428
    30.000      30  -153.68355   10.52431  -143.15924  -0.00812    61   %  0.6710
    30.500      31  -153.56702   10.41023  -143.15679  -0.00567    62   %  0.6994
    31.000      32  -153.36689   10.21367  -143.15322  -0.00210    63   %  0.7279
    31.500      33  -153.08890    9.93241  -143.15649  -0.00537    64   %  0.7566
    32.000      34  -152.73760    9.57302  -143.16458  -0.01345    65   %  0.7853
    32.500      35  -152.30797    9.14651  -143.16146  -0.01033    66   %  0.8139
    33.000      36  -151.80809    8.65063  -143.15746  -0.00632    67   %  0.8424
    33.500      37  -151.25807    8.09612  -143.16194  -0.01080    68   %  0.8707
    34.000      38  -150.67463    7.50602  -143.16861  -0.01747    69   %  0.8986
    34.500      39  -150.06493    6.89949  -143.16544  -0.01430    70   %  0.9260
    35.000      40  -149.44835    6.28662  -143.16173  -0.01058    71   %  0.9528
    35.500      41  -148.85059    5.68904  -143.16154  -0.01040    72   %  0.9788
    36.000      42  -148.29661    5.13385  -143.16277  -0.01162    73   %  1.0038
    36.500      43  -147.81240    4.64342  -143.16897  -0.01782    74   %  1.0276
    37.000      43  -147.40965    4.24412  -143.16553  -0.01438    75   %  1.0501
    37.500      44  -147.11474    3.94547  -143.16927  -0.01812    76   %  1.0710
    38.000      45  -146.95268    3.77041  -143.18227  -0.03112    77   %  1.0901
    38.500      46  -146.90578    3.73702  -143.16876  -0.01760    78   %  1.1073
    39.000      46  -146.98133    3.83803  -143.14330   0.00786    79   %  1.1224
    39.500      47  -147.20292    4.05084  -143.15207  -0.00091    80   %  1.1353
    40.000      48  -147.56093    4.40138  -143.15955  -0.00839    81   %  1.1459
    40.500      48  -148.03557    4.87252  -143.16305  -0.01189    82   %  1.1540
    41.000      49  -148.62165    5.46124  -143.16041  -0.00925    83   %  1.1598
    41.500      50  -149.28660    6.12888  -143.15773  -0.00656    84   %  1.1631
    42.000      50  -150.01335    6.85821  -143.15514  -0.00397    85   %  1.1640
    42.500      51  -150.78156    7.62931  -143.15225  -0.00108    86   %  1.1625
    43.000      52  -151.57063    8.41557  -143.15506  -0.00388    87   %  1.1588
    43.500      53  -152.34850    9.20219  -143.14631   0.00486    88   %  1.1530
    44.000      54  -153.10810    9.95768  -143.15042   0.00076    89   %  1.1452
    44.500      55  -153.83803   10.67886  -143.15917  -0.00798    90   %  1.1355
    45.000      56  -154.50923   11.35663  -143.15260  -0.00141    91   %  1.1241
    45.500      57  -155.11829   11.96370  -143.15459  -0.00340    92   %  1.1111
    46.000      59  -155.64889   12.50019  -143.14870   0.00250    93   %  1.1064
    46.500      60  -156.10519   12.95229  -143.15290  -0.00170    94   %  1.1037
    47.000      60  -156.48449   13.32628  -143.15820  -0.00699    95   %  1.1002
    47.500      61  -156.77654   13.62203  -143.15450  -0.00329    96   %  1.0958
    48.000      62  -156.98276   13.83039  -143.15236  -0.00115    97   %  1.0908
    48.500      63  -157.11081   13.95457  -143.15624  -0.00502    98   %  1.0852
    49.000      64  -157.15054   14.00304  -143.14749   0.00373    99   %  1.0792
    49.500      65  -157.11837   13.97036  -143.14801   0.00322   100   %  1.0729
    50.000      65  -157.02222   13.86559  -143.15664  -0.00540   101   %  1.0664
    50.500      66  -156.86048   13.70425  -143.15623  -0.00499   102   %  1.0598
    51.000      67  -156.64005   13.48552  -143.15453  -0.00329   103   %  1.0532
    51.500      68  -156.37071   13.21687  -143.15383  -0.00258   104   %  1.0468
    52.000      68  -156.05800   12.90327  -143.15473  -0.00348   105   %  1.0406
    52.500      69  -155.70953   12.55391  -143.15562  -0.00436   106   %  1.0347
    53.000      70  -155.33407   12.17861  -143.15546  -0.00420   107   %  1.0294
    53.500      70  -154.93176   11.77891  -143.15286  -0.00159   108   %  1.0247
    54.000      71  -154.51777   11.36330  -143.15447  -0.00320   109   %  1.0208
    54.500      71  -154.09591   10.93786  -143.15805  -0.00677   110   %  1.0179
    55.000      72  -153.66932   10.50984  -143.15948  -0.00820   111   %  1.0161
    55.500      72  -153.24576   10.08600  -143.15975  -0.00847   112   %  1.0156
    56.000      73  -152.82460    9.66625  -143.15835  -0.00707   113   %  1.0165
    56.500      73  -152.41776    9.25980  -143.15795  -0.00667   114   %  1.0190
    57.000      74  -152.02509    8.86480  -143.16029  -0.00900   115   %  1.0233
    57.500      74  -151.65454    8.49190  -143.16264  -0.01135   116   %  1.0295
    58.000      75  -151.30701    8.14117  -143.16584  -0.01455   117   %  1.0376
    58.500      75  -150.98382    7.81706  -143.16676  -0.01546   118   %  1.0476
    59.000      76  -150.69105    7.52152  -143.16953  -0.01823   119   %  1.0597
    59.500      76  -150.41739    7.25285  -143.16455  -0.01324   120   %  1.0737
    60.000      77  -150.14197    7.01434  -143.12763   0.02368   121   %  1.0896
    60.500      77  -149.88086    6.80148  -143.07939   0.07192   122   %  1.1074
    61.000      77  -149.67456    6.60284  -143.07172   0.07959   123   %  1.1267
    61.500      78  -149.55069    6.39154  -143.15915  -0.00783   124   %  1.1478
    62.000      78  -149.44466    6.23047  -143.21420  -0.06288   125   %  1.1701
    62.500      79  -149.34753    6.13640  -143.21113  -0.05982   126   %  1.1936
    63.000      79  -149.27162    6.08566  -143.18596  -0.03464   127   %  1.2182
    63.500      79  -149.22908    6.05490  -143.17418  -0.02286   128   %  1.2437
    64.000      80  -149.23566    6.03309  -143.20257  -0.05125   129   %  1.2704
    64.500      80  -149.25922    6.04270  -143.21652  -0.06519   130   %  1.2976
    65.000      81  -149.29216    6.08965  -143.20251  -0.05118   131   %  1.3255
    65.500      81  -149.32728    6.17980  -143.14748   0.00385   132   %  1.3540
    66.000      81  -149.39893    6.28508  -143.11385   0.03748   133   %  1.3829
    66.500      82  -149.50874    6.39577  -143.11298   0.03836   134   %  1.4122
    67.000      82  -149.65640    6.51376  -143.14264   0.00870   135   %  1.4420
    67.500      82  -149.83648    6.67138  -143.16510  -0.01376   136   %  1.4718
    68.000      83  -150.04785    6.87053  -143.17733  -0.02598   137   %  1.5018
    68.500      83  -150.29047    7.11128  -143.17919  -0.02785   138   %  1.5319
    69.000      83  -150.56840    7.38689  -143.18151  -0.03017   139   %  1.5619
    69.500      84  -150.88568    7.69844  -143.18725  -0.03590   140   %  1.5920
    70.000      84  -151.25917    8.05043  -143.20874  -0.05738   141   %  1.6221
    70.500      84  -151.64440    8.43098  -143.21342  -0.06206   142   %  1.6521
    71.000      84  -152.04138    8.84008  -143.20130  -0.04994   143   %  1.6820
    71.500      85  -152.44150    9.31537  -143.12613   0.02524   144   %  1.7119
    72.000      85  -152.85818    9.79819  -143.05999   0.09137   145   %  1.7416
    72.500      85  -153.29474   10.27397  -143.02077   0.13060   146   %  1.7711
    73.000      86  -153.76863   10.73791  -143.03072   0.12065   147   %  1.8004
    73.500      86  -154.28264   11.18925  -143.09339   0.05799   148   %  1.8296
    74.000      86  -154.78053   11.64349  -143.13704   0.01434   149   %  1.8584
    74.500      86  -155.26232   12.10063  -143.16169  -0.01030   150   %  1.8869
    75.000      87  -155.74121   12.62144  -143.11977   0.03162   151   %  1.9148
    75.500      87  -156.20037   13.12852  -143.07185   0.07955   152   %  1.9425
    76.000      87  -156.62893   13.57185  -143.05708   0.09432   153   %  1.9701
    76.500      88  -157.02814   13.94992  -143.07823   0.07318   154   %  1.9975
    77.000      88  -157.40062   14.25958  -143.14104   0.01037   155   %  2.0248
    77.500      89  -157.71277   14.55635  -143.15642  -0.00501   156   %  2.0524
    78.000      90  -157.95482   14.80163  -143.15319  -0.00177   157   %  2.0806
    78.500      90  -158.12353   14.97909  -143.14444   0.00698   158   %  2.1096
    79.000      91  -158.22396   15.07171  -143.15224  -0.00081   159   %  2.1398
    79.500      92  -158.24487   15.09449  -143.15038   0.00106   160   %  2.1712
    80.000      93  -158.19419   15.03881  -143.15538  -0.00394   161   %  2.2040
    80.500      94  -158.07222   14.90492  -143.16730  -0.01585   162   %  2.2384
    81.000      94  -157.86865   14.70137  -143.16728  -0.01583   163   %  2.2743
    81.500      95  -157.58110   14.41764  -143.16347  -0.01201   164   %  2.3118
    82.000      96  -157.21384   14.04601  -143.16783  -0.01636   165   %  2.3508
    82.500      97  -156.73512   13.59646  -143.13867   0.01280   166   %  2.3911
    83.000      98  -156.20729   13.03806  -143.16922  -0.01775   167   %  2.4325
    83.500     100  -155.61293   12.43977  -143.17316  -0.02168   168   %  2.4746
    84.000     101  -154.84296   11.77169  -143.07128   0.08020   169   %  2.5172
    84.500     102  -154.13046   10.96524  -143.16521  -0.01373   170   %  2.5599
    85.000     103  -153.39812   10.22371  -143.17441  -0.02293   171   %  2.6022
    85.500     104  -152.65898    9.48686  -143.17212  -0.02063   172   %  2.6438
    86.000     105  -151.93773    8.76893  -143.16880  -0.01731   173   %  2.6845
    86.500     106  -151.25152    8.09657  -143.15495  -0.00346   174   %  2.7240
    87.000     107  -150.64046    7.48294  -143.15752  -0.00602   175   %  2.7620
    87.500     107  -150.12210    6.96225  -143.15984  -0.00834   176   %  2.7985
    88.000     108  -149.71424    6.55143  -143.16281  -0.01131   177   %  2.8331
    88.500     109  -149.43242    6.26194  -143.17048  -0.01898   178   %  2.8661
    89.000     110  -149.27138    6.10302  -143.16836  -0.01685   179   %  2.8972
    89.500     110  -149.23536    6.07281  -143.16255  -0.01104   180   %  2.9266
    90.000     111  -149.34254    6.16138  -143.18116  -0.02965   181   %  2.9542
    90.500     112  -149.55833    6.38697  -143.17137  -0.01985   182   %  2.9801
    91.000     112  -149.88092    6.72442  -143.15650  -0.00498   183   %  3.0042
    91.500     113  -150.31752    7.15669  -143.16083  -0.00931   184   %  3.0267
    92.000     114  -150.84401    7.68264  -143.16138  -0.00986   185   %  3.0474
    92.500     114  -151.44257    8.28562  -143.15695  -0.00543   186   %  3.0662
    93.000     115  -152.09356    8.94819  -143.14537   0.00615   187   %  3.0831
    93.500     116  -152.79266    9.63590  -143.15676  -0.00523   188   %  3.0980
    94.000     117  -153.50932   10.35193  -143.15739  -0.00586   189   %  3.1107
    94.500     119  -154.22167   11.06240  -143.15927  -0.00774   190   %  3.1213
    95.000     120  -154.91003   11.74905  -143.16098  -0.00944   191   %  3.1295
    95.500     121  -155.56310   12.38885  -143.17425  -0.02270   192   %  3.1354
    96.000     122  -156.15246   12.98657  -143.16589  -0.01434   193   %  3.1389
    96.500     123  -156.65478   13.49908  -143.15570  -0.00415   194   %  3.1398
    97.000     124  -157.08048   13.92362  -143.15686  -0.00530   195   %  3.1383
    97.500     125  -157.42245   14.26931  -143.15314  -0.00158   196   %  3.1343
    98.000     126  -157.68168   14.53168  -143.14999   0.00158   197   %  3.1280
    98.500     127  -157.91231   14.71298  -143.19933  -0.04775   198   %  3.1194
    99.000     128  -158.03130   14.86558  -143.16572  -0.01414   199   %  3.1086
    99.500     129  -158.06157   14.91413  -143.14744   0.00415   200   %  3.0960
   100.000     130  -157.98535   14.87087  -143.11449   0.03711   201   %  3.0817
   100.500     131  -157.83926   14.72978  -143.10949   0.04211   202   %  3.0662
   101.000     131  -157.64356   14.49958  -143.14398   0.00762   203   %  3.0498
   101.500     132  -157.37703   14.22609  -143.15094   0.00067   204   %  3.0329
   102.000     133  -157.02110   13.88757  -143.13352   0.01809   205   %  3.0160
   102.500     134  -156.60552   13.47742  -143.12810   0.02351   206   %  2.9994
   103.000     134  -156.14512   13.00043  -143.14469   0.00693   207   %  2.9837
   103.500     135  -155.64157   12.49076  -143.15080   0.00082   208   %  2.9690
   104.000     136  -155.10967   11.95947  -143.15020   0.00143   209   %  2.9561
   104.500     136  -154.55391   11.40990  -143.14400   0.00763   210   %  2.9449
   105.000     137  -153.99950   10.85302  -143.14648   0.00516   211   %  2.9359
   105.500     137  -153.45405   10.30215  -143.15190  -0.00026   212   %  2.9293
   106.000     138  -152.92224    9.76689  -143.15534  -0.00370   213   %  2.9253
   106.500     138  -152.40880    9.25152  -143.15728  -0.00564   214   %  2.9240
   107.000     139  -151.90222    8.75551  -143.14670   0.00494   215   %  2.9255
   107.500     140  -151.44228    8.28202  -143.16026  -0.00860   216   %  2.9296
   108.000     140  -151.03676    7.82089  -143.21587  -0.06422   217   %  2.9364
   108.500     141  -150.66071    7.41320  -143.24751  -0.09586   218   %  2.9457
   109.000     141  -150.31310    7.06181  -143.25129  -0.09963   219   %  2.9576
   109.500     141  -149.99785    6.75598  -143.24187  -0.09020   220   %  2.9715
   110.000     142  -149.70836    6.49804  -143.21033  -0.05867   221   %  2.9877
   110.500     142  -149.46187    6.28195  -143.17992  -0.02826   222   %  3.0059
   111.000     143  -149.26873    6.11355  -143.15518  -0.00351   223   %  3.0260
   111.500     143  -149.10734    5.97974  -143.12760   0.02407   224   %  3.0479
   112.000     144  -148.96596    5.88895  -143.07701   0.07467   225   %  3.0717
   112.500     144  -148.85419    5.82474  -143.02945   0.12223   226   %  3.0973
   113.000     145  -148.78494    5.76519  -143.01975   0.13193   227   %  3.1246
   113.500     145  -148.77160    5.69041  -143.08119   0.07049   228   %  3.1539
   114.000     145  -148.77945    5.65199  -143.12747   0.02421   229   %  3.1848
   114.500     146  -148.80269    5.64781  -143.15488  -0.00319   230   %  3.2173
   115.000     146  -148.84916    5.68074  -143.16843  -0.01674   231   %  3.2514
   115.500     146  -148.92773    5.75399  -143.17374  -0.02206   232   %  3.2868
   116.000     147  -149.03396    5.87026  -143.16370  -0.01201   233   %  3.3240
   116.500     147  -149.17624    6.02443  -143.15181  -0.00012   234   %  3.3621
   117.000     148  -149.35653    6.21610  -143.14043   0.01126   235   %  3.4010
   117.500     148  -149.59640    6.46795  -143.12845   0.02324   236   %  3.4413
   118.000     148  -149.85032    6.73211  -143.11821   0.03349   237   %  3.4817
   118.500     149  -150.12052    7.00985  -143.11067   0.04103   238   %  3.5220
   119.000     149  -150.42253    7.30999  -143.11254   0.03917   239   %  3.5629
   119.500     149  -150.71478    7.60892  -143.10586   0.04584   240   %  3.6028
   120.000     150  -150.98139    7.90256  -143.07883   0.07288   241   %  3.6421
   120.500     150  -151.24303    8.19621  -143.04682   0.10489   242   %  3.6803
   121.000     151  -151.58692    8.48544  -143.10148   0.05023   243   %  3.7172
   121.500     151  -151.99531    8.82391  -143.17140  -0.01968   244   %  3.7523
   122.000     152  -152.45314    9.28190  -143.17124  -0.01952   245   %  3.7854
   122.500     152  -152.96057    9.80021  -143.16036  -0.00863   246   %  3.8166
   123.000     153  -153.55052   10.36883  -143.18169  -0.02997   247   %  3.8459
   123.500     153  -154.14580   10.95114  -143.19466  -0.04293   248   %  3.8734
   124.000     154  -154.73326   11.57504  -143.15823  -0.00649   249   %  3.8991
   124.500     154  -155.28429   12.15262  -143.13167   0.02007   250   %  3.9235
   125.000     155  -155.78759   12.64136  -143.14624   0.00551   251   %  3.9467
   125.500     156  -156.22599   13.07141  -143.15457  -0.00283   252   %  3.9690
   126.000     157  -156.68129   13.43674  -143.24455  -0.09280   253   %  3.9910
   126.500     158  -157.04104   13.81516  -143.22588  -0.07412   254   %  4.0128
   127.000     159  -157.27492   14.12972  -143.14520   0.00656   255   %  4.0350
   127.500     160  -157.44056   14.32193  -143.11864   0.03313   256   %  4.0578
   128.000     160  -157.57442   14.44047  -143.13395   0.01783   257   %  4.0814
   128.500     161  -157.67984   14.51944  -143.16040  -0.00862   258   %  4.1061
   129.000     162  -157.69281   14.56521  -143.12759   0.02419   259   %  4.1321
   129.500     163  -157.63154   14.50042  -143.13112   0.02067   260   %  4.1596
   130.000     164  -157.48421   14.33086  -143.15335  -0.00155   261   %  4.1886
   130.500     165  -157.21318   14.05872  -143.15447  -0.00267   262   %  4.2190
   131.000     166  -156.79107   13.65101  -143.14006   0.01175   263   %  4.2507
   131.500     167  -156.23481   13.08901  -143.14581   0.00600   264   %  4.2834
   132.000     168  -155.57589   12.40788  -143.16801  -0.01620   265   %  4.3168
   132.500     169  -154.81311   11.65079  -143.16232  -0.01050   266   %  4.3504
   133.000     170  -153.99057   10.82382  -143.16674  -0.01493   267   %  4.3840
   133.500     171  -153.14775    9.97998  -143.16777  -0.01595   268   %  4.4171
   134.000     172  -152.21142    9.15194  -143.05948   0.09235   269   %  4.4494
   134.500     174  -151.45118    8.27962  -143.17157  -0.01974   270   %  4.4808
   135.000     175  -150.74972    7.58940  -143.16032  -0.00849   271   %  4.5109
   135.500     176  -150.13018    6.97798  -143.15220  -0.00037   272   %  4.5400
   136.000     177  -149.61455    6.45371  -143.16084  -0.00901   273   %  4.5683
   136.500     178  -149.19903    6.03345  -143.16558  -0.01375   274   %  4.5959
   137.000     178  -148.88434    5.71436  -143.16998  -0.01814   275   %  4.6232
   137.500     179  -148.64681    5.50302  -143.14378   0.00806   276   %  4.6503
   138.000     180  -148.53602    5.38033  -143.15569  -0.00385   277   %  4.6776
   138.500     181  -148.55399    5.39202  -143.16197  -0.01013   278   %  4.7051
   139.000     182  -148.70824    5.54676  -143.16148  -0.00964   279   %  4.7329
   139.500     182  -149.00105    5.84239  -143.15866  -0.00681   280   %  4.7610
   140.000     183  -149.43520    6.28018  -143.15502  -0.00317   281   %  4.7894
   140.500     184  -149.99648    6.84081  -143.15567  -0.00381   282   %  4.8178
   141.000     185  -150.64837    7.49456  -143.15381  -0.00196   283   %  4.8459
   141.500     186  -151.36699    8.21824  -143.14874   0.00312   284   %  4.8734
   142.000     187  -152.11951    8.96045  -143.15906  -0.00720   285   %  4.8999
   142.500     188  -152.84751    9.70356  -143.14396   0.00791   286   %  4.9249
   143.000     189  -153.55783   10.38307  -143.17477  -0.02290   287   %  4.9481
   143.500     191  -154.27135   11.05118  -143.22017  -0.06830   288   %  4.9689
   144.000     192  -154.78352   11.67292  -143.11060   0.04128   289   %  4.9871
   144.500     193  -155.23185   12.08301  -143.14884   0.00304   290   %  5.0022
   145.000     194  -155.64431   12.48083  -143.16348  -0.01160   291   %  5.0139
   145.500     196  -155.98358   12.83491  -143.14866   0.00323   292   %  5.0221
   146.000     197  -156.27950   13.13228  -143.14722   0.00467   293   %  5.0265
   146.500     198  -156.54015   13.39269  -143.14747   0.00443   294   %  5.0272
   147.000     199  -156.77283   13.61908  -143.15375  -0.00185   295   %  5.0242
   147.500     200  -156.96156   13.80971  -143.15185   0.00006   296   %  5.0177
   148.000     201  -157.08948   13.94469  -143.14479   0.00712   297   %  5.0081
   148.500     202  -157.14761   14.00593  -143.14168   0.01024   298   %  4.9956
   149.000     202  -157.13133   13.98504  -143.14629   0.00564   299   %  4.9806
   149.500     203  -157.03297   13.88426  -143.14872   0.00321   300   %  4.9636


           INITIAL VELOCITY IN DRC (Angstroms/Femtosecond)
        -0.74283        -0.00007         0.00023
         0.12591        -0.00000        -0.00000
        -0.00178        -0.00000         0.00000
        -0.00177        -0.00000         0.00000
        -0.00180        -0.00000         0.00000
         0.12591         0.00003        -0.00008
 THE VIBRATIONAL FREQUENCY (  -555.87CM(-1)) IS TOO SMALL
 FOR ONE QUANTUM TO BE USED
 INSTEAD 0.3KCAL/MOLE WILL BE USED TO START THE IRC

 TIME PRIORITY, INTERVAL = 0.50 FEMTOSECONDS



 FEMTOSECONDS  POINT  POTENTIAL + KINETIC  =   TOTAL     ERROR    REF%   MOVEMENT
     0.000       1  -143.45105    0.30000  -143.15105   0.00000     1   %  0.0000
     0.500       1  -143.45073    0.29997  -143.15076   0.00029     2   %  0.0029
     1.000       1  -143.45464    0.30260  -143.15204  -0.00099     3   %  0.0059
     1.500       3  -143.46055    0.30712  -143.15343  -0.00238     4   %  0.0090
     2.000       4  -143.46700    0.31297  -143.15402  -0.00297     5   %  0.0123
     2.500       5  -143.47532    0.32254  -143.15278  -0.00173     6   %  0.0156
     3.000       6  -143.48450    0.33411  -143.15039   0.00066     7   %  0.0191
     3.500       6  -143.49413    0.34590  -143.14823   0.00282     8   %  0.0227
     4.000       7  -143.50856    0.35756  -143.15100   0.00005     9   %  0.0263
     4.500       8  -143.52604    0.37324  -143.15280  -0.00175    10   %  0.0300
     5.000       8  -143.54588    0.39289  -143.15299  -0.00194    11   %  0.0338
     5.500       9  -143.55996    0.41563  -143.14433   0.00672    12   %  0.0377
     6.000      10  -143.60598    0.43572  -143.17026  -0.01921    13   %  0.0416
     6.500      10  -143.67204    0.46172  -143.21032  -0.05927    14   %  0.0456
     7.000      11  -143.71089    0.53305  -143.17784  -0.02679    15   %  0.0496
     7.500      11  -143.74552    0.60239  -143.14314   0.00792    16   %  0.0538
     8.000      12  -143.78525    0.63803  -143.14722   0.00383    17   %  0.0584
     8.500      13  -143.83034    0.67934  -143.15100   0.00005    18   %  0.0631
     9.000      13  -143.88071    0.72988  -143.15082   0.00023    19   %  0.0679
     9.500      14  -143.93635    0.78609  -143.15027   0.00079    20   %  0.0728
    10.000      14  -143.99721    0.84792  -143.14929   0.00176    21   %  0.0779
    10.500      15  -144.06760    0.91633  -143.15126  -0.00021    22   %  0.0833
    11.000      15  -144.14783    0.99110  -143.15673  -0.00567    23   %  0.0888
    11.500      16  -144.23177    1.07672  -143.15505  -0.00400    24   %  0.0945
    12.000      16  -144.31528    1.17542  -143.13986   0.01120    25   %  0.1004
    12.500      16  -144.41307    1.27933  -143.13373   0.01732    26   %  0.1067
    13.000      17  -144.52713    1.38104  -143.14608   0.00497    27   %  0.1132
    13.500      17  -144.65287    1.49761  -143.15526  -0.00420    28   %  0.1201
    14.000      18  -144.79556    1.63336  -143.16220  -0.01114    29   %  0.1274
    14.500      18  -144.94567    1.78486  -143.16082  -0.00976    30   %  0.1350
    15.000      19  -145.09129    1.95063  -143.14066   0.01039    31   %  0.1431
    15.500      19  -145.21629    2.13627  -143.08002   0.07104    32   %  0.1516
    16.000      19  -145.37571    2.32266  -143.05305   0.09801    33   %  0.1606
    16.500      20  -145.58163    2.48734  -143.09429   0.05677    34   %  0.1702
    17.000      20  -145.81642    2.66309  -143.15333  -0.00227    35   %  0.1801
    17.500      20  -146.06457    2.87869  -143.18589  -0.03482    36   %  0.1905
    18.000      21  -146.31300    3.15886  -143.15415  -0.00309    37   %  0.2011
    18.500      21  -146.58689    3.45603  -143.13086   0.02021    38   %  0.2124
    19.000      22  -146.89084    3.76266  -143.12818   0.02289    39   %  0.2241
    19.500      22  -147.24899    4.06021  -143.18878  -0.03771    40   %  0.2364
    20.000      22  -147.60869    4.38913  -143.21957  -0.06850    41   %  0.2494
    20.500      23  -147.96827    4.75354  -143.21472  -0.06365    42   %  0.2631
    21.000      23  -148.31396    5.18715  -143.12681   0.02426    43   %  0.2772
    21.500      23  -148.67850    5.60977  -143.06872   0.08235    44   %  0.2923
    22.000      23  -149.06188    6.02143  -143.04045   0.11062    45   %  0.3082
    22.500      24  -149.48796    6.39955  -143.08841   0.06267    46   %  0.3251
    23.000      24  -149.91290    6.78560  -143.12730   0.02378    47   %  0.3429
    23.500      24  -150.33507    7.18114  -143.15393  -0.00285    48   %  0.3616
    24.000      25  -150.77135    7.61473  -143.15662  -0.00553    49   %  0.3813
    24.500      25  -151.19738    8.04515  -143.15223  -0.00114    50   %  0.4020
    25.000      25  -151.60275    8.45477  -143.14797   0.00312    51   %  0.4237
    25.500      26  -151.99889    8.85722  -143.14167   0.00943    52   %  0.4464
    26.000      26  -152.39032    9.25786  -143.13246   0.01864    53   %  0.4703
    26.500      26  -152.73472    9.60632  -143.12840   0.02271    54   %  0.4950
    27.000      26  -153.03211    9.90261  -143.12949   0.02161    55   %  0.5205
    27.500      27  -153.28426   10.14794  -143.13632   0.01480    56   %  0.5469
    28.000      28  -153.48644   10.33872  -143.14772   0.00340    57   %  0.5740
    28.500      28  -153.64091   10.47475  -143.16616  -0.01504    58   %  0.6016
    29.000      29  -153.72455   10.55293  -143.17161  -0.02049    59   %  0.6296
    29.500      30  -153.73108   10.56287  -143.16821  -0.01708    60   %  0.6579
    30.000      30  -153.65314   10.49325  -143.15990  -0.00877    61   %  0.6864
    30.500      31  -153.49412   10.33554  -143.15858  -0.00744    62   %  0.7151
    31.000      32  -153.25369   10.09482  -143.15887  -0.00774    63   %  0.7439
    31.500      33  -152.94215    9.77434  -143.16780  -0.01666    64   %  0.7726
    32.000      34  -152.52765    9.38478  -143.14286   0.00828    65   %  0.8013
    32.500      35  -152.05410    8.90039  -143.15370  -0.00255    66   %  0.8298
    33.000      36  -151.53167    8.36616  -143.16551  -0.01436    67   %  0.8581
    33.500      37  -150.96431    7.79644  -143.16787  -0.01672    68   %  0.8860
    34.000      38  -150.32862    7.19719  -143.13142   0.01973    69   %  0.9135
    34.500      39  -149.70198    6.55150  -143.15049   0.00067    70   %  0.9404
    35.000      40  -149.10959    5.93337  -143.17622  -0.02506    71   %  0.9665
    35.500      41  -148.54339    5.36934  -143.17405  -0.02289    72   %  0.9917
    36.000      42  -148.03024    4.85696  -143.17328  -0.02212    73   %  1.0158
    36.500      43  -147.59066    4.41944  -143.17122  -0.02005    74   %  1.0387
    37.000      44  -147.24633    4.07722  -143.16911  -0.01794    75   %  1.0602
    37.500      44  -147.01766    3.84704  -143.17062  -0.01946    76   %  1.0800
    38.000      45  -146.92228    3.74211  -143.18017  -0.02900    77   %  1.0981
    38.500      46  -146.93922    3.78299  -143.15623  -0.00506    78   %  1.1142
    39.000      47  -147.09519    3.94575  -143.14943   0.00174    79   %  1.1282
    39.500      47  -147.38883    4.22940  -143.15943  -0.00825    80   %  1.1400
    40.000      48  -147.81170    4.65313  -143.15857  -0.00739    81   %  1.1494
    40.500      49  -148.34208    5.18608  -143.15600  -0.00482    82   %  1.1564
    41.000      49  -148.96515    5.81119  -143.15395  -0.00278    83   %  1.1610
    41.500      50  -149.66685    6.51094  -143.15591  -0.00473    84   %  1.1632
    42.000      51  -150.41766    7.26252  -143.15515  -0.00396    85   %  1.1630
    42.500      52  -151.19783    8.04422  -143.15361  -0.00242    86   %  1.1605
    43.000      53  -151.98436    8.83141  -143.15295  -0.00176    87   %  1.1558
    43.500      54  -152.76536    9.60568  -143.15968  -0.00849    88   %  1.1490
    44.000      55  -153.51928   10.35692  -143.16236  -0.01116    89   %  1.1402
    44.500      56  -154.21040   11.06485  -143.14555   0.00565    90   %  1.1296
    45.000      57  -154.84198   11.69491  -143.14707   0.00414    91   %  1.1161
    45.500      58  -155.40454   12.25808  -143.14645   0.00475    92   %  1.1083
    46.000      59  -155.89077   12.74433  -143.14644   0.00477    93   %  1.1056
    46.500      60  -156.30557   13.14996  -143.15561  -0.00439    94   %  1.1025
    47.000      61  -156.64633   13.48168  -143.16466  -0.01343    95   %  1.0984
    47.500      62  -156.90076   13.73821  -143.16255  -0.01133    96   %  1.0937
    48.000      63  -157.06227   13.91166  -143.15061   0.00063    97   %  1.0883
    48.500      63  -157.13654   13.99476  -143.14178   0.00946    98   %  1.0825
    49.000      64  -157.13309   13.99208  -143.14101   0.01024    99   %  1.0764
    49.500      65  -157.06252   13.91608  -143.14644   0.00480   100   %  1.0700
    50.000      66  -156.93585   13.77794  -143.15791  -0.00666   101   %  1.0635
    50.500      66  -156.75362   13.58628  -143.16734  -0.01609   102   %  1.0570
    51.000      67  -156.50670   13.34941  -143.15729  -0.00603   103   %  1.0506
    51.500      68  -156.21412   13.06032  -143.15379  -0.00253   104   %  1.0445
    52.000      68  -155.88421   12.72982  -143.15439  -0.00312   105   %  1.0387
    52.500      69  -155.51893   12.36475  -143.15418  -0.00291   106   %  1.0332
    53.000      70  -155.13505   11.97643  -143.15862  -0.00734   107   %  1.0285
    53.500      70  -154.73483   11.56970  -143.16513  -0.01385   108   %  1.0244
    54.000      71  -154.31510   11.15538  -143.15972  -0.00844   109   %  1.0211
    54.500      71  -153.89011   10.73602  -143.15409  -0.00280   110   %  1.0189
    55.000      72  -153.46655   10.30661  -143.15994  -0.00865   111   %  1.0178
    55.500      72  -153.04910    9.88517  -143.16393  -0.01263   112   %  1.0182
    56.000      73  -152.63326    9.47371  -143.15956  -0.00826   113   %  1.0199
    56.500      73  -152.23453    9.07727  -143.15725  -0.00595   114   %  1.0233
    57.000      74  -151.85398    8.69158  -143.16240  -0.01110   115   %  1.0284
    57.500      74  -151.49230    8.32948  -143.16281  -0.01151   116   %  1.0355
    58.000      75  -151.14152    7.99242  -143.14910   0.00221   117   %  1.0444
    58.500      75  -150.82129    7.67889  -143.14239   0.00892   118   %  1.0553
    59.000      76  -150.53789    7.38341  -143.15448  -0.00317   119   %  1.0682
    59.500      76  -150.28380    7.11683  -143.16696  -0.01565   120   %  1.0830
    60.000      77  -150.05231    6.88631  -143.16600  -0.01468   121   %  1.0997
    60.500      77  -149.84786    6.68842  -143.15944  -0.00812   122   %  1.1181
    61.000      77  -149.67935    6.51621  -143.16314  -0.01182   123   %  1.1380
    61.500      78  -149.56489    6.36273  -143.20216  -0.05084   124   %  1.1597
    62.000      78  -149.46284    6.24402  -143.21883  -0.06750   125   %  1.1826
    62.500      79  -149.36231    6.17084  -143.19147  -0.04014   126   %  1.2067
    63.000      79  -149.27702    6.12934  -143.14769   0.00365   127   %  1.2320
    63.500      79  -149.22433    6.10199  -143.12234   0.02900   128   %  1.2580
    64.000      80  -149.21257    6.07332  -143.13926   0.01208   129   %  1.2852
    64.500      80  -149.22572    6.07308  -143.15264  -0.00130   130   %  1.3129
    65.000      81  -149.25991    6.10700  -143.15291  -0.00157   131   %  1.3410
    65.500      81  -149.30231    6.18325  -143.11906   0.03229   132   %  1.3697
    66.000      81  -149.38368    6.28222  -143.10146   0.04989   133   %  1.3987
    66.500      82  -149.50621    6.40009  -143.10612   0.04523   134   %  1.4279
    67.000      82  -149.67541    6.52717  -143.14824   0.00311   135   %  1.4575
    67.500      82  -149.87255    6.69632  -143.17623  -0.02488   136   %  1.4871
    68.000      83  -150.09481    6.90911  -143.18569  -0.03434   137   %  1.5167
    68.500      83  -150.32306    7.17638  -143.14667   0.00468   138   %  1.5464
    69.000      83  -150.60321    7.47214  -143.13106   0.02030   139   %  1.5760
    69.500      83  -150.93525    7.79639  -143.13887   0.01250   140   %  1.6056
    70.000      84  -151.36826    8.13081  -143.23744  -0.08608   141   %  1.6353
    70.500      84  -151.81887    8.50652  -143.31235  -0.16098   142   %  1.6649
    71.000      84  -152.27604    8.92762  -143.34842  -0.19705   143   %  1.6944
    71.500      85  -152.74332    9.44014  -143.30318  -0.15180   144   %  1.7237
    72.000      85  -153.21734   10.00050  -143.21684  -0.06546   145   %  1.7530
    72.500      85  -153.69316   10.54444  -143.14873   0.00266   146   %  1.7821
    73.000      85  -154.17077   11.07194  -143.09884   0.05255   147   %  1.8112
    73.500      86  -154.67413   11.59037  -143.08376   0.06763   148   %  1.8403
    74.000      86  -155.16292   12.08734  -143.07558   0.07582   149   %  1.8693
    74.500      86  -155.63521   12.56225  -143.07297   0.07843   150   %  1.8980
    75.000      87  -156.09586   13.02039  -143.07548   0.07593   151   %  1.9265
    75.500      87  -156.54627   13.46330  -143.08298   0.06843   152   %  1.9547
    76.000      87  -156.96314   13.86550  -143.09764   0.05378   153   %  1.9828
    76.500      88  -157.35272   14.22806  -143.12466   0.02676   154   %  2.0108
    77.000      88  -157.69957   14.54835  -143.15121   0.00021   155   %  2.0390
    77.500      89  -157.99663   14.83007  -143.16656  -0.01513   156   %  2.0675
    78.000      90  -158.22516   15.05452  -143.17064  -0.01920   157   %  2.0966
    78.500      90  -158.37936   15.21352  -143.16584  -0.01440   158   %  2.1266
    79.000      91  -158.45201   15.29232  -143.15970  -0.00825   159   %  2.1576
    79.500      92  -158.43268   15.28652  -143.14616   0.00529   160   %  2.1899
    80.000      93  -158.35046   15.18466  -143.16580  -0.01434   161   %  2.2236
    80.500      94  -158.18549   15.01548  -143.17002  -0.01855   162   %  2.2587
    81.000      95  -157.92130   14.76943  -143.15187  -0.00041   163   %  2.2954
    81.500      96  -157.57776   14.42205  -143.15571  -0.00424   164   %  2.3336
    82.000      97  -157.16418   13.99527  -143.16892  -0.01744   165   %  2.3731
    82.500      98  -156.60902   13.49873  -143.11029   0.04119   166   %  2.4139
    83.000      99  -155.97398   12.86254  -143.11143   0.04006   167   %  2.4557
    83.500     100  -155.33221   12.16946  -143.16275  -0.01126   168   %  2.4982
    84.000     101  -154.64607   11.47052  -143.17555  -0.02406   169   %  2.5410
    84.500     102  -153.91386   10.74611  -143.16775  -0.01625   170   %  2.5838
    85.000     103  -153.15882    9.99429  -143.16454  -0.01304   171   %  2.6263
    85.500     104  -152.41045    9.24438  -143.16607  -0.01456   172   %  2.6682
    86.000     105  -151.69658    8.52644  -143.17014  -0.01863   173   %  2.7091
    86.500     106  -151.03872    7.86846  -143.17025  -0.01874   174   %  2.7487
    87.000     107  -150.46044    7.29142  -143.16902  -0.01750   175   %  2.7869
    87.500     108  -149.98498    6.81478  -143.17020  -0.01869   176   %  2.8233
    88.000     109  -149.62747    6.45535  -143.17212  -0.02060   177   %  2.8579
    88.500     109  -149.39357    6.22450  -143.16906  -0.01754   178   %  2.8906
    89.000     110  -149.30736    6.12334  -143.18402  -0.03250   179   %  2.9213
    89.500     111  -149.35369    6.16575  -143.18794  -0.03642   180   %  2.9502
    90.000     111  -149.52115    6.34052  -143.18063  -0.02910   181   %  2.9771
    90.500     112  -149.80289    6.63741  -143.16548  -0.01395   182   %  3.0021
    91.000     113  -150.19562    7.03431  -143.16131  -0.00978   183   %  3.0252
    91.500     113  -150.68384    7.52217  -143.16167  -0.01014   184   %  3.0463
    92.000     114  -151.26072    8.10059  -143.16013  -0.00860   185   %  3.0656
    92.500     115  -151.90229    8.74430  -143.15799  -0.00645   186   %  3.0828
    93.000     116  -152.61009    9.43629  -143.17379  -0.02225   187   %  3.0981
    93.500     117  -153.24666   10.17119  -143.07547   0.07608   188   %  3.1112
    94.000     118  -153.91220   10.79965  -143.11255   0.03900   189   %  3.1222
    94.500     119  -154.61291   11.46113  -143.15178  -0.00023   190   %  3.1309
    95.000     120  -155.29369   12.12830  -143.16539  -0.01383   191   %  3.1374
    95.500     121  -155.91839   12.76000  -143.15839  -0.00683   192   %  3.1415
    96.000     123  -156.47580   13.31775  -143.15805  -0.00648   193   %  3.1433
    96.500     124  -156.95946   13.79988  -143.15958  -0.00801   194   %  3.1428
    97.000     125  -157.36556   14.20088  -143.16468  -0.01310   195   %  3.1399
    97.500     126  -157.60084   14.52293  -143.07791   0.07367   196   %  3.1347
    98.000     127  -157.74486   14.67341  -143.07145   0.08014   197   %  3.1273
    98.500     128  -157.89920   14.73306  -143.16613  -0.01454   198   %  3.1179
    99.000     129  -157.96109   14.81137  -143.14972   0.00187   199   %  3.1065
    99.500     130  -157.94398   14.80240  -143.14158   0.01002   200   %  3.0935
   100.000     130  -157.88393   14.70772  -143.17620  -0.02459   201   %  3.0790
   100.500     131  -157.67875   14.57392  -143.10483   0.04678   202   %  3.0633
   101.000     132  -157.52504   14.30944  -143.21560  -0.06398   203   %  3.0470
   101.500     133  -157.29291   14.03169  -143.26122  -0.10960   204   %  3.0303
   102.000     133  -156.92285   13.76383  -143.15902  -0.00739   205   %  3.0136
   102.500     134  -156.47969   13.34504  -143.13465   0.01698   206   %  2.9973
   103.000     135  -155.99459   12.85633  -143.13826   0.01338   207   %  2.9820
   103.500     135  -155.47806   12.32675  -143.15131   0.00033   208   %  2.9679
   104.000     136  -154.93225   11.77677  -143.15548  -0.00383   209   %  2.9555
   104.500     137  -154.37735   11.22057  -143.15678  -0.00513   210   %  2.9451
   105.000     137  -153.81855   10.66207  -143.15648  -0.00483   211   %  2.9369
   105.500     138  -153.27017   10.11429  -143.15588  -0.00422   212   %  2.9313
   106.000     138  -152.74140    9.58395  -143.15745  -0.00579   213   %  2.9283
   106.500     139  -152.24164    9.07433  -143.16731  -0.01565   214   %  2.9281
   107.000     139  -151.76773    8.59251  -143.17523  -0.02356   215   %  2.9307
   107.500     140  -151.30861    8.14075  -143.16786  -0.01619   216   %  2.9362
   108.000     140  -150.89135    7.71920  -143.17215  -0.02048   217   %  2.9444
   108.500     141  -150.55235    7.31541  -143.23694  -0.08527   218   %  2.9553
   109.000     141  -150.20831    6.96182  -143.24649  -0.09481   219   %  2.9685
   109.500     142  -149.79097    6.68987  -143.10110   0.05058   220   %  2.9842
   110.000     142  -149.43562    6.43542  -143.00020   0.15148   221   %  3.0019
   110.500     143  -149.20336    6.14715  -143.05621   0.09547   222   %  3.0217
   111.000     143  -149.03052    5.89861  -143.13192   0.01977   223   %  3.0434
   111.500     144  -148.87655    5.75261  -143.12393   0.02775   224   %  3.0666
   112.000     144  -148.74771    5.68707  -143.06064   0.09105   225   %  3.0914
   112.500     144  -148.66432    5.63054  -143.03378   0.11791   226   %  3.1179
   113.000     145  -148.64551    5.56773  -143.07778   0.07391   227   %  3.1462
   113.500     145  -148.64822    5.53302  -143.11520   0.03649   228   %  3.1760
   114.000     146  -148.66647    5.52727  -143.13920   0.01249   229   %  3.2073
   114.500     146  -148.70491    5.55136  -143.15355  -0.00186   230   %  3.2401
   115.000     146  -148.77121    5.60674  -143.16447  -0.01277   231   %  3.2742
   115.500     147  -148.85675    5.68246  -143.17429  -0.02258   232   %  3.3100
   116.000     147  -148.97773    5.79912  -143.17861  -0.02691   233   %  3.3468
   116.500     148  -149.13785    5.96171  -143.17615  -0.02444   234   %  3.3844
   117.000     148  -149.34482    6.18732  -143.15750  -0.00579   235   %  3.4235
   117.500     148  -149.58168    6.43833  -143.14335   0.00836   236   %  3.4627
   118.000     149  -149.85197    6.71844  -143.13352   0.01819   237   %  3.5023
   118.500     149  -150.16729    7.03987  -143.12742   0.02430   238   %  3.5425
   119.000     149  -150.49197    7.36509  -143.12687   0.02484   239   %  3.5822
   119.500     150  -150.82520    7.69279  -143.13241   0.01931   240   %  3.6213
   120.000     150  -151.16366    8.01742  -143.14623   0.00549   241   %  3.6600
   120.500     151  -151.52028    8.36420  -143.15608  -0.00436   242   %  3.6975
   121.000     151  -151.89778    8.73549  -143.16228  -0.01055   243   %  3.7337
   121.500     152  -152.33780    9.15622  -143.18159  -0.02985   244   %  3.7682
   122.000     152  -152.82825    9.62634  -143.20190  -0.05017   245   %  3.8010
   122.500     153  -153.29401   10.16740  -143.12661   0.02513   246   %  3.8318
   123.000     153  -153.74043   10.77233  -142.96811   0.18364   247   %  3.8607
   123.500     154  -154.26811   11.31250  -142.95561   0.19614   248   %  3.8879
   124.000     154  -154.93752   11.72992  -143.20760  -0.05585   249   %  3.9132
   124.500     154  -155.52308   12.24089  -143.28219  -0.13043   250   %  3.9372
   125.000     155  -156.02471   12.86230  -143.16242  -0.01066   251   %  3.9597
   125.500     156  -156.43533   13.29235  -143.14298   0.00879   252   %  3.9815
   126.000     157  -156.92286   13.62170  -143.30116  -0.14940   253   %  4.0031
   126.500     158  -157.23239   14.03020  -143.20218  -0.05041   254   %  4.0245
   127.000     159  -157.40388   14.28073  -143.12315   0.02863   255   %  4.0465
   127.500     160  -157.53777   14.40097  -143.13680   0.01498   256   %  4.0691
   128.000     161  -157.63596   14.47686  -143.15910  -0.00731   257   %  4.0928
   128.500     162  -157.66567   14.52007  -143.14560   0.00620   258   %  4.1176
   129.000     163  -157.61224   14.49194  -143.12030   0.03150   259   %  4.1439
   129.500     164  -157.48651   14.35790  -143.12860   0.02320   260   %  4.1717
   130.000     164  -157.28727   14.12966  -143.15761  -0.00580   261   %  4.2012
   130.500     166  -156.96691   13.80936  -143.15755  -0.00573   262   %  4.2321
   131.000     167  -156.50163   13.35411  -143.14751   0.00430   263   %  4.2645
   131.500     168  -155.87092   12.75839  -143.11253   0.03929   264   %  4.2980
   132.000     169  -155.08354   11.98952  -143.09402   0.05781   265   %  4.3322
   132.500     170  -154.29175   11.12605  -143.16569  -0.01386   266   %  4.3666
   133.000     171  -153.43532   10.27986  -143.15546  -0.00363   267   %  4.4008
   133.500     172  -152.69509    9.41335  -143.28174  -0.12990   268   %  4.4345
   134.000     173  -151.79415    8.69695  -143.09720   0.05464   269   %  4.4674
   134.500     174  -151.00362    7.86895  -143.13467   0.01717   270   %  4.4994
   135.000     175  -150.33155    7.17060  -143.16095  -0.00910   271   %  4.5300
   135.500     176  -149.76588    6.60282  -143.16305  -0.01120   272   %  4.5594
   136.000     177  -149.30534    6.14638  -143.15897  -0.00712   273   %  4.5878
   136.500     178  -148.94674    5.79385  -143.15289  -0.00104   274   %  4.6153
   137.000     179  -148.69874    5.54102  -143.15772  -0.00587   275   %  4.6422
   137.500     180  -148.55496    5.39691  -143.15805  -0.00619   276   %  4.6688
   138.000     180  -148.51749    5.36780  -143.14968   0.00217   277   %  4.6954
   138.500     181  -148.60576    5.44670  -143.15906  -0.00720   278   %  4.7220
   139.000     182  -148.82936    5.66274  -143.16663  -0.01476   279   %  4.7488
   139.500     183  -149.17362    6.01803  -143.15559  -0.00373   280   %  4.7757
   140.000     183  -149.63627    6.50121  -143.13506   0.01681   281   %  4.8027
   140.500     184  -150.23362    7.07891  -143.15471  -0.00284   282   %  4.8297
   141.000     185  -150.94448    7.76418  -143.18030  -0.02843   283   %  4.8563
   141.500     186  -151.71569    8.54263  -143.17306  -0.02118   284   %  4.8822
   142.000     187  -152.48607    9.32568  -143.16039  -0.00851   285   %  4.9070
   142.500     188  -153.20430   10.07229  -143.13201   0.01987   286   %  4.9304
   143.000     190  -153.93224   10.74614  -143.18609  -0.03421   287   %  4.9519
   143.500     191  -154.54563   11.40198  -143.14364   0.00825   288   %  4.9710
   144.000     192  -155.03383   11.90967  -143.12416   0.02774   289   %  4.9875
   144.500     194  -155.47557   12.31913  -143.15644  -0.00454   290   %  5.0010
   145.000     195  -155.84706   12.68888  -143.15818  -0.00628   291   %  5.0110
   145.500     196  -156.15863   13.00115  -143.15748  -0.00558   292   %  5.0176
   146.000     197  -156.42250   13.26804  -143.15446  -0.00255   293   %  5.0204
   146.500     198  -156.64288   13.49727  -143.14562   0.00630   294   %  5.0196
   147.000     199  -156.83481   13.68592  -143.14890   0.00302   295   %  5.0151
   147.500     200  -156.98904   13.83985  -143.14919   0.00274   296   %  5.0072
   148.000     201  -157.08512   13.94377  -143.14135   0.01058   297   %  4.9962
   148.500     202  -157.11169   13.97463  -143.13706   0.01487   298   %  4.9824
   149.000     203  -157.06331   13.92242  -143.14089   0.01105   299   %  4.9662
   149.500     204  -156.93601   13.78745  -143.14857   0.00338   300   %  4.9482
   150.000     204  -156.72831   13.57365  -143.15466  -0.00271   301   %  4.9287



 **********************
 *                    *
 * JOB ENDED NORMALLY *
 *                    *
 **********************



 TOTAL JOB TIME:             3.79 SECONDS

 == MOPAC DONE ==
