 *******************************************************************************
 ** Site#: 29054        For non-commercial use only    Version 18.021W 64BITS **
 *******************************************************************************
 ** Cite this program as: MOPAC2016, Version: 18.021W, James J. P. Stewart,   **
 ** Stewart Computational Chemistry, web: HTTP://OpenMOPAC.net. Days left: 365**
 *******************************************************************************
 **                                                                           **
 **                                MOPAC2016                                  **
 **                                                                           **
 *******************************************************************************

                              PM7 CALCULATION RESULTS


 *******************************************************************************
 *  CALCULATION DONE:                                Sun Jan 21 15:47:18 2018  *
 *  SYMMETRY   - SYMMETRY CONDITIONS TO BE IMPOSED
 *
 *
 *
 *                 CHARGE ON SYSTEM =    -1
 *
 *
 *
 *  EPS= 78.40 - USE ANDREAS KLAMT'S COSMO IMPLICIT SOLVATION MODEL
 *  T=         - A TIME OF 172800.0 SECONDS REQUESTED
 *  DUMP=N     - RESTART FILE WRITTEN EVERY  7200.000 SECONDS
 *******************************************************************************



                    PARAMETER DEPENDENCE DATA

        REFERENCE ATOM      FUNCTION NO.    DEPENDENT ATOM(S)
            5                  1               6

             DESCRIPTIONS OF THE FUNCTIONS USED
   1      BOND LENGTH    IS SET EQUAL TO THE REFERENCE BOND LENGTH   
 
 charge=-1 eps=78.4 charge=-1 symmetry
 Transition state for CH3Cl --- Cl(-) <=> Cl(-) --- CH3Cl

  ATOM    CHEMICAL      BOND LENGTH      BOND ANGLE     TWIST ANGLE 
 NUMBER    SYMBOL       (ANGSTROMS)      (DEGREES)       (DEGREES) 
   (I)                     NA:I           NB:NA:I       NC:NB:NA:I       NA    NB    NC 
     1       C          0.00000000  *    0.0000000  *    0.0000000  *     0     0     0
     2       H          1.00000000  *    0.0000000  *    0.0000000  *     1     0     0
     3       H          1.00000000  *  120.0000000  *    0.0000000  *     1     2     0
     4       H          1.00000000  *  120.0000000  *  180.0000000  *     1     2     3
     5      Cl          2.00000000  *   90.0000000  *  -90.0000000  *     1     2     3
     6      Cl          2.00000000      90.0000000  *   90.0000000  *     1     2     3
 


          CARTESIAN COORDINATES 

    NO.       ATOM           X           Y           Z

     1         C          0.0000      0.0000      0.0000
     2         H          1.0000      0.0000      0.0000
     3         H         -0.5000      0.8660      0.0000
     4         H         -0.5000     -0.8660     -0.0000
     5        Cl          0.0000      0.0000      2.0000
     6        Cl          0.0000      0.0000     -2.0000

 General Reference for PM7:
 "Optimization of Parameters for Semiempirical Methods VI: More Modifications to the 
 NDDO Approximations and Re-optimization of Parameters", J. J. P. Stewart, J. Mol. Mod., 1:32, 19 (2013)
 http://www.springerlink.com/openurl.asp?genre=article&id=doi:10.1007/s00894-012-1667-x

           Empirical Formula: C H3 Cl2  =     6 atoms



      MOLECULAR POINT GROUP   :   D3h 


      RHF CALCULATION, NO. OF DOUBLY OCCUPIED LEVELS = 11


          Geometry optimization using EF

          DIAGONAL MATRIX USED AS START HESSIAN

 CYCLE:     1 TIME:   0.016 TIME LEFT:  2.00D  GRAD.:   164.283 HEAT: -125.6257
 CYCLE:     2 TIME:   0.000 TIME LEFT:  2.00D  GRAD.:    40.780 HEAT: -141.9639
 CYCLE:     3 TIME:   0.016 TIME LEFT:  2.00D  GRAD.:    10.267 HEAT: -143.3273
 CYCLE:     4 TIME:   0.000 TIME LEFT:  2.00D  GRAD.:     3.448 HEAT: -143.4430
 CYCLE:     5 TIME:   0.016 TIME LEFT:  2.00D  GRAD.:     1.433 HEAT: -143.4579
 CYCLE:     6 TIME:   0.000 TIME LEFT:  2.00D  GRAD.:     0.316 HEAT: -143.4609

     GRADIENT =  0.31611  IS LESS THAN CUTOFF =  1.00000



 -------------------------------------------------------------------------------
 charge=-1 eps=78.4 charge=-1 symmetry
 Transition state for CH3Cl --- Cl(-) <=> Cl(-) --- CH3Cl



     GEOMETRY OPTIMISED USING EIGENVECTOR FOLLOWING (EF).     
     SCF FIELD WAS ACHIEVED                                   


                              PM7 CALCULATION
                                                       MOPAC2016 (Version: 18.021W)
                                                       Sun Jan 21 15:47:18 2018
                                                       No. of days remaining = 365




          FINAL HEAT OF FORMATION =       -143.46092 KCAL/MOL =    -600.24051 KJ/MOL
          VAN DER WAALS AREA      =        108.98 SQUARE ANGSTROMS


          TOTAL ENERGY            =       -702.29358 EV
          ELECTRONIC ENERGY       =       -445.68421 EV  POINT GROUP:     D3h 
          CORE-CORE REPULSION     =       -256.60937 EV
          DIELECTRIC ENERGY       =         -2.72585 EV
          COSMO AREA              =        108.98 SQUARE ANGSTROMS
          COSMO VOLUME            =         92.00 CUBIC ANGSTROMS

          GRADIENT NORM           =          0.31611
          IONIZATION POTENTIAL    =         10.333984 EV
          HOMO LUMO ENERGIES (EV) =        -10.334 -0.196
          NO. OF FILLED LEVELS    =         11
          MOLECULAR WEIGHT        =         85.9407

          MOLECULAR DIMENSIONS (Angstroms)

            Atom       Atom       Distance
           Cl     6   Cl     5     4.37429
            H     3    H     4     1.88042
            H     3    H     2     1.62831


          SCF CALCULATIONS        =          8
 
          WALL-CLOCK TIME         =          0.078 SECONDS
          COMPUTATION TIME        =          0.203 SECONDS




  ATOM    CHEMICAL      BOND LENGTH      BOND ANGLE     TWIST ANGLE 
 NUMBER    SYMBOL       (ANGSTROMS)      (DEGREES)       (DEGREES) 
   (I)                     NA:I           NB:NA:I       NC:NB:NA:I       NA    NB    NC 
     1       C          0.00000001  *    0.0000000  *   -0.0000002  *     0     0     0
     2       H          1.08556571  *   -0.0000000  *   -0.0000000  *     1     0     0
     3       H          1.08565335  *  119.9991827  *    0.0000000  *     1     2     0
     4       H          1.08557976  *  119.9930624  *  179.9507575  *     1     2     3
     5      Cl          2.18714320  *   89.9972105  *  -90.0969653  *     1     2     3
     6      Cl          2.18714320      89.9934972  *   89.9283282  *     1     2     3

                             CARTESIAN COORDINATES

   1    C        0.000000005     0.000000011    -0.000000184
   2    H        1.085565714     0.000000011    -0.000000184
   3    H       -0.542813256     0.940211130    -0.000000184
   4    H       -0.542676033    -0.940205006    -0.000808237
   5   Cl        0.000106488    -0.003701429     2.187139883
   6   Cl        0.000248237     0.002735926    -2.187141660


           Empirical Formula: C H3 Cl2  =     6 atoms



      MOLECULAR POINT GROUP   :   D3h 


                  EIGENVALUES  
 -26.76352 -25.40485 -23.79432 -15.09407 -15.09322 -12.79227 -11.19177 -11.18899
 -11.00146 -10.99882 -10.33398  -0.19564   5.13989   5.41203   5.41370  74.94279
  75.14211  75.14218  75.74058  75.86008  75.86014  76.07520  76.07520  76.24935
  76.24936


              NET ATOMIC CHARGES AND DIPOLE CONTRIBUTIONS

  ATOM NO.   TYPE          CHARGE      No. of ELECS.   s-Pop       p-Pop       d-Pop       
    1          C           0.102980        3.8970     1.20461     2.69241
    2          H           0.160098        0.8399     0.83990
    3          H           0.160506        0.8395     0.83949
    4          H           0.160254        0.8397     0.83975
    5         Cl          -0.791852        7.7919     1.99576     5.79298     0.00311
    6         Cl          -0.791986        7.7920     1.99576     5.79311     0.00311
 DIPOLE           X         Y         Z       TOTAL
 POINT-CHG.    -0.002     0.003     0.001     0.004
 HYBRID         0.001    -0.000     0.000     0.001
 SUM           -0.001     0.003     0.001     0.003


          ATOMIC ORBITAL ELECTRON POPULATIONS

     Atom    s        px        py        pz      x^2-y^2     xz        z^2       yz        xy
    1  C   1.20461   1.13582   1.13593   0.42065
    2  H   0.83990
    3  H   0.83949
    4  H   0.83975
    5 Cl   1.99576   1.99998   1.99998   1.79303   0.00001   0.00048   0.00212   0.00048   0.00001
    6 Cl   1.99576   1.99998   1.99998   1.79316   0.00001   0.00048   0.00212   0.00048   0.00001
 *******************************************************************************
 ** Site#: 29054        For non-commercial use only    Version 18.021W 64BITS **
 *******************************************************************************
 ** Cite this program as: MOPAC2016, Version: 18.021W, James J. P. Stewart,   **
 ** Stewart Computational Chemistry, web: HTTP://OpenMOPAC.net. Days left: 365**
 *******************************************************************************
 **                                                                           **
 **                                MOPAC2016                                  **
 **                                                                           **
 *******************************************************************************

                              PM7 CALCULATION RESULTS


 *******************************************************************************
 *  CALCULATION DONE:                                Sun Jan 21 15:47:18 2018  *
 *
 *
 *
 *                 CHARGE ON SYSTEM =    -1
 *
 *
 *
 *  EPS= 78.40 - USE ANDREAS KLAMT'S COSMO IMPLICIT SOLVATION MODEL
 *  OLDGEO     - PREVIOUS GEOMETRY TO BE USED
 *  FORCE      - FORCE CALCULATION SPECIFIED
 *  T=         - A TIME OF 172800.0 SECONDS REQUESTED
 *  DUMP=N     - RESTART FILE WRITTEN EVERY  7200.000 SECONDS
 *  ISOTOPE    - FORCE MATRIX WRITTEN TO DISK (CHAN. 9 )
 *******************************************************************************
oldgeo charge=-1 eps=78.4 charge=-1 force isotope
 Transition state for CH3Cl --- Cl(-) <=> Cl(-) --- CH3Cl

  ATOM    CHEMICAL      BOND LENGTH      BOND ANGLE     TWIST ANGLE 
 NUMBER    SYMBOL       (ANGSTROMS)      (DEGREES)       (DEGREES) 
   (I)                     NA:I           NB:NA:I       NC:NB:NA:I       NA    NB    NC 
     1       C          0.00000001  *    0.0000000  *   -0.0000002  *     0     0     0
     2       H          1.08556571  *   -0.0000000  *   -0.0000000  *     1     0     0
     3       H          1.08565335  *  119.9991827  *    0.0000000  *     1     2     0
     4       H          1.08557976  *  119.9930624  *  179.9507575  *     1     2     3
     5      Cl          2.18714320  *   89.9972105  *  -90.0969653  *     1     2     3
     6      Cl          2.18714320      89.9934972  *   89.9283282  *     1     2     3
 


          CARTESIAN COORDINATES 

    NO.       ATOM           X           Y           Z

     1         C          0.0000      0.0000     -0.0000
     2         H          1.0856      0.0000     -0.0000
     3         H         -0.5428      0.9402     -0.0000
     4         H         -0.5427     -0.9402     -0.0008
     5        Cl          0.0001     -0.0037      2.1871
     6        Cl          0.0002      0.0027     -2.1871

 General Reference for PM7:
 "Optimization of Parameters for Semiempirical Methods VI: More Modifications to the 
 NDDO Approximations and Re-optimization of Parameters", J. J. P. Stewart, J. Mol. Mod., 1:32, 19 (2013)
 http://www.springerlink.com/openurl.asp?genre=article&id=doi:10.1007/s00894-012-1667-x

           Empirical Formula: C H3 Cl2  =     6 atoms



      MOLECULAR POINT GROUP   :   D3h 


      RHF CALCULATION, NO. OF DOUBLY OCCUPIED LEVELS = 11



          HEAT OF FORMATION =    -143.460925 KCALS/MOLE


          CARTESIAN COORDINATE DERIVATIVES

   NUMBER  ATOM         X            Y            Z

     1       C      0.015403     0.041893     0.023216
     2       H      0.172114    -0.036425    -0.021046
     3       H     -0.095654     0.141085    -0.132144
     4       H     -0.070942    -0.148479     0.039584
     5      Cl     -0.009739     0.012328     0.077735
     6      Cl     -0.011182    -0.010402     0.012662
 


          GRADIENT NORM =   0.34025


          TIME FOR SCF CALCULATION =    0.02

          TIME FOR DERIVATIVES     =    0.02

          MOLECULAR WEIGHT =   85.94



          ROTATIONAL CONSTANTS IN CM(-1)

          A =    4.73062342   B =    0.04944064   C =    0.04944057



           PRINCIPAL MOMENTS OF INERTIA IN UNITS OF 10**(-40)*GRAM-CM**2

          A =        5.9174   B =      566.1896   C =      566.1904


          ORIENTATION OF MOLECULE IN FORCE CALCULATION

    NO.       ATOM         X         Y         Z

     1          C      -0.0001    0.0004    0.0000
     2          H       1.0854    0.0004    0.0000
     3          H      -0.5430    0.9406    0.0000
     4          H      -0.5428   -0.9398   -0.0008
     5         Cl      -0.0000   -0.0033    2.1872
     6         Cl       0.0001    0.0031   -2.1871


    FIRST DERIVATIVES WILL BE USED IN THE CALCULATION OF SECOND DERIVATIVES

          ESTIMATED TIME TO COMPLETE CALCULATION =        1.12 SECONDS

    FOR POINT-GROUP D3h  THERE ARE  12 UNIQUE SYMMETRY FUNCTIONS.

 STEP:   1 TIME =     0.02 SECS, INTEGRAL =      0.02 TIME LEFT: 172799.95
 STEP:   2 TIME =     0.03 SECS, INTEGRAL =      0.04 TIME LEFT: 172799.93
 STEP:   3 TIME =     0.02 SECS, INTEGRAL =      0.06 TIME LEFT: 172799.91
 STEP:   4 TIME =     0.02 SECS, INTEGRAL =      0.08 TIME LEFT: 172799.89
 STEP:   5 TIME =     0.02 SECS, INTEGRAL =      0.09 TIME LEFT: 172799.88
 STEP:   6 TIME =     0.02 SECS, INTEGRAL =      0.11 TIME LEFT: 172799.86
 STEP:   7                       INTEGRAL =      0.11 TIME LEFT: 172799.86
 STEP:   8                       INTEGRAL =      0.11 TIME LEFT: 172799.86
 STEP:   9                       INTEGRAL =      0.11 TIME LEFT: 172799.86
 STEP:  10                       INTEGRAL =      0.11 TIME LEFT: 172799.86
 STEP:  11                       INTEGRAL =      0.11 TIME LEFT: 172799.86
 STEP:  12                       INTEGRAL =      0.11 TIME LEFT: 172799.86
 STEP:  13 TIME =     0.02 SECS, INTEGRAL =      0.13 TIME LEFT: 172799.84
 STEP:  14 TIME =     0.02 SECS, INTEGRAL =      0.14 TIME LEFT: 172799.82
 STEP:  15 TIME =     0.01 SECS, INTEGRAL =      0.16 TIME LEFT: 172799.81
 STEP:  16                       INTEGRAL =      0.16 TIME LEFT: 172799.81
 STEP:  17                       INTEGRAL =      0.16 TIME LEFT: 172799.81
 STEP:  18                       INTEGRAL =      0.16 TIME LEFT: 172799.81

(To convert to Hartree/Bohr^2, multiply by (10^(-21) x N x a0^2)/(4.184 x 627.51) =  0.0642)


           FORCE MATRIX IN MILLIDYNES/ANGSTROM


                  C  1       H  2       H  3       H  4      Cl  5      Cl  6
 ------------------------------------------------------------------------------
     C    1   9.256560
     H    2   3.505834   4.039847
     H    3   3.509844   0.404966   4.039847
     H    4   3.509597   0.401772   0.404966   4.039847
    Cl    5   1.142379   0.425854   0.426922   0.425962   0.736226
    Cl    6   1.141931   0.427918   0.427918   0.427918   0.656701   0.736226


          HEAT OF FORMATION =    -143.460925 KCALS/MOLE

          ZERO POINT ENERGY      20.743 KCAL/MOL

         NOTE: SYSTEM IS NOT A GROUND STATE, THEREFORE ZERO POINT
         ENERGY IS NOT MEANINGFULL. ZERO POINT ENERGY PRINTED
         DOES NOT INCLUDE THE  1 IMAGINARY FREQUENCIES


           NORMAL COORDINATE ANALYSIS (Total motion = 1 Angstrom)


   Root No.       1         2         3         4         5         6         7         8

                 1 A2"     1 E'      1 E'      1 A1'     1 E"      1 E"      2 E'      2 E'  

                -557.8     197.9     197.9     254.9    1046.9    1046.9    1260.2    1260.2
  
           1   -0.0000    0.2061   -0.0733    0.0000   -0.0000   -0.0000   -0.0436   -0.0431
           2   -0.0011    0.0733    0.2061    0.0000   -0.0000   -0.0000   -0.0430    0.0437
           3    0.7326    0.0001    0.0003   -0.0000   -0.0000   -0.0000   -0.0001    0.0001
           4   -0.0000    0.2060   -0.0733    0.0124    0.0000   -0.0000   -0.0237   -0.0233
           5   -0.0000    0.0808    0.2257    0.0000    0.0003   -0.0007    0.3385   -0.3439
           6    0.0062    0.0001    0.0003    0.0000   -0.2089    0.4942    0.0005   -0.0005
           7   -0.0000    0.2233   -0.0700   -0.0062   -0.0000   -0.0000    0.4079    0.0896
           8   -0.0000    0.0833    0.2079    0.0107   -0.0007    0.0001    0.2259    0.0890
           9    0.0062    0.0001    0.0003    0.0000    0.4947   -0.0487    0.0003    0.0001
          10   -0.0000    0.2182   -0.0871   -0.0062    0.0000    0.0000    0.0946    0.4080
          11   -0.0000    0.0663    0.2139   -0.0107    0.0004    0.0007   -0.0915   -0.2253
          12    0.0062    0.0001    0.0003   -0.0000   -0.2858   -0.4456   -0.0001   -0.0003
          13   -0.0000   -0.0441    0.0157    0.0000   -0.0022    0.0052    0.0006    0.0006
          14    0.0002   -0.0157   -0.0441    0.0007    0.0048    0.0024    0.0006   -0.0006
          15   -0.1244   -0.0000   -0.0001   -0.4815    0.0000    0.0000    0.0000   -0.0000
          16    0.0000   -0.0441    0.0157   -0.0000    0.0022   -0.0052    0.0006    0.0006
          17    0.0002   -0.0157   -0.0441   -0.0007   -0.0048   -0.0024    0.0006   -0.0006
          18   -0.1244   -0.0000   -0.0001    0.4815   -0.0000   -0.0000    0.0000   -0.0000


   Root No.       9        10        11        12

                 2 A2"     3 E'      3 E'      2 A1' 

                1269.6    2644.7    2644.7    2685.7
  
           1    0.0000   -0.0007   -0.0560    0.0000
           2    0.0000   -0.0624    0.0006    0.0000
           3   -0.0123   -0.0001   -0.0000   -0.0000
           4   -0.0000    0.0059    0.4710    0.3331
           5   -0.0005   -0.0269    0.0003    0.0000
           6    0.3215   -0.0000    0.0000    0.0000
           7   -0.0000   -0.2378    0.1021   -0.1666
           8   -0.0005    0.3844   -0.2183    0.2885
           9    0.3215    0.0006   -0.0003    0.0004
          10   -0.0000    0.2402    0.0973   -0.1665
          11   -0.0005    0.3899    0.2105   -0.2885
          12    0.3215    0.0006    0.0003   -0.0004
          13   -0.0000   -0.0000   -0.0000   -0.0000
          14    0.0000   -0.0000   -0.0000    0.0000
          15   -0.0116   -0.0000   -0.0000    0.0004
          16    0.0000    0.0000   -0.0000    0.0000
          17    0.0000   -0.0001    0.0000   -0.0000
          18   -0.0116   -0.0000    0.0000   -0.0004


           MASS-WEIGHTED COORDINATE ANALYSIS (NORMAL COORDINATES)


   Root No.       1         2         3         4         5         6         7         8

                 1 A2"     1 E'      1 E'      1 A1'     1 E"      1 E"      2 E'      2 E'  

                -557.8     197.9     197.9     254.9    1046.9    1046.9    1260.2    1260.2
  
           1   -0.0000    0.7574   -0.2695    0.0000   -0.0000   -0.0000   -0.2394   -0.2364
           2   -0.0014    0.2695    0.7574    0.0000   -0.0000   -0.0000   -0.2364    0.2394
           3    0.9244    0.0004    0.0011   -0.0000   -0.0000   -0.0000   -0.0004    0.0003
           4   -0.0000    0.2193   -0.0780    0.0031    0.0000   -0.0000   -0.0377   -0.0370
           5   -0.0000    0.0860    0.2403    0.0000    0.0005   -0.0011    0.5388   -0.5460
           6    0.0023    0.0001    0.0004    0.0000   -0.3422    0.7390    0.0008   -0.0008
           7   -0.0000    0.2378   -0.0745   -0.0015   -0.0000   -0.0000    0.6494    0.1421
           8   -0.0000    0.0887    0.2213    0.0027   -0.0012    0.0001    0.3597    0.1411
           9    0.0023    0.0001    0.0003    0.0000    0.8111   -0.0731    0.0006    0.0002
          10   -0.0000    0.2323   -0.0927   -0.0015    0.0000    0.0000    0.1507    0.6476
          11   -0.0000    0.0705    0.2278   -0.0027    0.0007    0.0010   -0.1458   -0.3575
          12    0.0023    0.0001    0.0003   -0.0000   -0.4689   -0.6658   -0.0002   -0.0005
          13   -0.0000   -0.2785    0.0991    0.0000   -0.0215    0.0464    0.0054    0.0053
          14    0.0005   -0.0991   -0.2785    0.0010    0.0464    0.0215    0.0054   -0.0054
          15   -0.2696   -0.0002   -0.0004   -0.7071    0.0001    0.0000    0.0000   -0.0000
          16    0.0000   -0.2786    0.0991   -0.0000    0.0215   -0.0464    0.0054    0.0053
          17    0.0003   -0.0991   -0.2786   -0.0010   -0.0464   -0.0215    0.0053   -0.0054
          18   -0.2696   -0.0002   -0.0004    0.7071   -0.0001   -0.0000    0.0000   -0.0000


   Root No.       9        10        11        12

                 2 A2"     3 E'      3 E'      2 A1' 

                1269.6    2644.7    2644.7    2685.7
  
           1    0.0000   -0.0035   -0.3174    0.0000
           2    0.0001   -0.3174    0.0035    0.0000
           3   -0.0751   -0.0005   -0.0000   -0.0000
           4   -0.0000    0.0087    0.7732    0.5773
           5   -0.0008   -0.0396    0.0006    0.0000
           6    0.5671   -0.0001    0.0000    0.0000
           7   -0.0000   -0.3502    0.1677   -0.2887
           8   -0.0008    0.5660   -0.3583    0.5000
           9    0.5671    0.0008   -0.0005    0.0007
          10   -0.0000    0.3536    0.1596   -0.2887
          11   -0.0008    0.5741    0.3455   -0.5000
          12    0.5671    0.0009    0.0005   -0.0007
          13   -0.0000   -0.0000   -0.0004   -0.0000
          14    0.0002   -0.0004   -0.0000    0.0000
          15   -0.1216   -0.0000   -0.0000    0.0037
          16    0.0000    0.0000   -0.0004    0.0000
          17    0.0002   -0.0004    0.0000   -0.0000
          18   -0.1216   -0.0000    0.0000   -0.0037


          DESCRIPTION OF VIBRATIONS


 VIBRATION    1    1A2"     ATOM PAIR        ENERGY CONTRIBUTION    RADIAL
 FREQ.      -557.76        C  1 -- Cl  5          -22.2% (-91.9%)   100.0%
 T-DIPOLE   15.2438        C  1 -- Cl  6          -22.2% (-91.9%)   100.0%
 TRAVEL      0.0912        C  1 --  H  4          -18.5% (-84.0%)     0.0%
 RED. MASS   9.1468        C  1 --  H  2          -18.5% (-84.0%)     0.0%
 EFF. MASS  14.5271        C  1 --  H  3          -18.5% (-84.0%)     0.0%

 VIBRATION    3    1E'      ATOM PAIR        ENERGY CONTRIBUTION    RADIAL
 FREQ.       197.94        C  1 -- Cl  6          +24.3% (389.5%)     0.0%
 T-DIPOLE    1.0933        C  1 -- Cl  5          +24.3% (389.5%)     0.0%
 TRAVEL      0.0580        C  1 --  H  2          +20.4% (356.4%)    12.1%
 RED. MASS   5.5700        C  1 --  H  4          +17.8% (333.0%)    44.0%
 EFF. MASS 101.3231        C  1 --  H  3          +13.2% (287.0%)    97.0%

 VIBRATION    4    1A1'     ATOM PAIR        ENERGY CONTRIBUTION    RADIAL
 FREQ.       254.89        C  1 -- Cl  5          +49.7% ( 51.0%)   100.0%
 T-DIPOLE    0.0000        C  1 -- Cl  6          +49.7% ( 51.0%)   100.0%
 TRAVEL      0.0863        C  1 --  H  2           +0.2% (  3.1%)   100.0%
 RED. MASS  17.7255        C  1 --  H  3           +0.2% (  3.1%)   100.0%
 EFF. MASS  35.5278

 VIBRATION    6    1E"      ATOM PAIR        ENERGY CONTRIBUTION    RADIAL
 FREQ.      1046.95        C  1 --  H  2          +54.9% ( 78.8%)     0.0%
 T-DIPOLE    0.0000        C  1 --  H  4          +44.6% ( 71.0%)     0.0%
 TRAVEL      0.2464        C  1 --  H  3           +0.5% (  7.8%)     0.0%
 RED. MASS   0.4992
 EFF. MASS   1.0605

 VIBRATION    8    2E'      ATOM PAIR        ENERGY CONTRIBUTION    RADIAL
 FREQ.      1260.23        C  1 --  H  4          +50.2% ( 69.5%)     0.5%
 T-DIPOLE    0.3775        C  1 --  H  2          +29.2% ( 53.0%)     6.1%
 TRAVEL      0.1651        C  1 --  H  3           +7.2% ( 26.3%)    49.2%
 RED. MASS   0.5476        C  1 -- Cl  6           +6.7% ( 25.5%)     0.0%
 EFF. MASS   1.9624

 VIBRATION    9    2A2"     ATOM PAIR        ENERGY CONTRIBUTION    RADIAL
 FREQ.      1269.61        C  1 --  H  4          +33.3% ( 50.1%)     0.0%
 T-DIPOLE    0.9845        C  1 --  H  2          +33.3% ( 50.1%)     0.0%
 TRAVEL      0.1983        C  1 --  H  3          +33.3% ( 50.1%)     0.0%
 RED. MASS   0.3286
 EFF. MASS   1.3507

 VIBRATION   11    3E'      ATOM PAIR        ENERGY CONTRIBUTION    RADIAL
 FREQ.      2644.66        C  1 --  H  2          +63.9% ( 83.3%)   100.0%
 T-DIPOLE    0.8730        C  1 --  H  3          +17.4% ( 43.5%)    84.4%
 TRAVEL      0.1268        C  1 --  H  4          +16.2% ( 42.0%)    83.0%
 RED. MASS   0.5280        C  1 -- Cl  5           +1.2% ( 11.4%)     0.0%
 EFF. MASS   1.5852

 VIBRATION   12    2A1'     ATOM PAIR        ENERGY CONTRIBUTION    RADIAL
 FREQ.      2685.74        C  1 --  H  4          +33.3% ( 55.2%)   100.0%
 T-DIPOLE    0.0000        C  1 --  H  2          +33.3% ( 55.2%)   100.0%
 TRAVEL      0.1578        C  1 --  H  3          +33.3% ( 55.2%)   100.0%
 RED. MASS   0.3359
 EFF. MASS   1.0082

           FORCE CONSTANT IN INTERNAL COORDINATES (Millidynes/A)

    ATOM   CHEMICAL  BOND LENGTH      BOND ANGLE     TWIST ANGLE
   NUMBER   SYMBOL  FORCE CONSTANT  FORCE CONSTANT  FORCE CONSTANT

      1       C        0.000000        0.000000        0.000000
      2       H        3.915248        0.000000        0.000000
      3       H        3.915243        0.660814        0.000000
      4       H        3.915247        0.660724        0.653727
      5      Cl        0.705918        0.665254        0.665254
      6      Cl        0.705918        0.665254        0.665254
 *******************************************************************************
 ** Site#: 29054        For non-commercial use only    Version 18.021W 64BITS **
 *******************************************************************************
 ** Cite this program as: MOPAC2016, Version: 18.021W, James J. P. Stewart,   **
 ** Stewart Computational Chemistry, web: HTTP://OpenMOPAC.net. Days left: 365**
 *******************************************************************************
 **                                                                           **
 **                                MOPAC2016                                  **
 **                                                                           **
 *******************************************************************************

                              PM7 CALCULATION RESULTS


 *******************************************************************************
 *  CALCULATION DONE:                                Sun Jan 21 15:47:19 2018  *
 *
 *
 *
 *                 CHARGE ON SYSTEM =    -1
 *
 *
 *
 *  EPS= 78.40 - USE ANDREAS KLAMT'S COSMO IMPLICIT SOLVATION MODEL
 *  IRC=N      - INTRINSIC REACTION COORDINATE  1 DEFINED
 *  OLDGEO     - PREVIOUS GEOMETRY TO BE USED
 *  RESTART    - CALCULATION RESTARTED
 *  T=         - A TIME OF 172800.0 SECONDS REQUESTED
 *  DUMP=N     - RESTART FILE WRITTEN EVERY  7200.000 SECONDS
 *  ISOTOPE    - FORCE MATRIX WRITTEN TO DISK (CHAN. 9 )
 *  HTML       - WRITE HTML SCRIPT TO GENERATE ANIMATION USING JSMOL
 *             - TO DISPLAY IN PDB FORMAT, ADD "PDBOUT"
 *  X-PRIOR    - GEOMETRY CHANGES TAKE PRIORITY IN DRC
 *******************************************************************************
oldgeo charge=-1 eps=78.4 charge=-1 IRC=1* x-priority=0.2  restart isotope html
 Transition state for CH3Cl --- Cl(-) <=> Cl(-) --- CH3Cl

  ATOM    CHEMICAL      BOND LENGTH      BOND ANGLE     TWIST ANGLE 
 NUMBER    SYMBOL       (ANGSTROMS)      (DEGREES)       (DEGREES) 
   (I)                     NA:I           NB:NA:I       NC:NB:NA:I       NA    NB    NC 
     1       C          0.00000001  *    0.0000000  *   -0.0000002  *     0     0     0
     2       H          1.08556571  *   -0.0000000  *   -0.0000000  *     1     0     0
     3       H          1.08565335  *  119.9991827  *    0.0000000  *     1     2     0
     4       H          1.08557976  *  119.9930624  *  179.9507575  *     1     2     3
     5      Cl          2.18714320  *   89.9972105  *  -90.0969653  *     1     2     3
     6      Cl          2.18714320      89.9934972  *   89.9283282  *     1     2     3
 


          CARTESIAN COORDINATES 

    NO.       ATOM           X           Y           Z

     1         C          0.0000      0.0000     -0.0000
     2         H          1.0856      0.0000     -0.0000
     3         H         -0.5428      0.9402     -0.0000
     4         H         -0.5427     -0.9402     -0.0008
     5        Cl          0.0001     -0.0037      2.1871
     6        Cl          0.0002      0.0027     -2.1871

 General Reference for PM7:
 "Optimization of Parameters for Semiempirical Methods VI: More Modifications to the 
 NDDO Approximations and Re-optimization of Parameters", J. J. P. Stewart, J. Mol. Mod., 1:32, 19 (2013)
 http://www.springerlink.com/openurl.asp?genre=article&id=doi:10.1007/s00894-012-1667-x

           Empirical Formula: C H3 Cl2  =     6 atoms



      MOLECULAR POINT GROUP   :   D3h 


      RHF CALCULATION, NO. OF DOUBLY OCCUPIED LEVELS = 11


          MOLECULAR WEIGHT =   85.94


          TIME USED UP TO RESTART =                  0.16

    FOR POINT-GROUP D3h  THERE ARE  12 UNIQUE SYMMETRY FUNCTIONS.

           INITIAL VELOCITY IN DRC (Angstroms/Femtosecond)
        -0.00002        -0.00108         0.73262
        -0.00000        -0.00001         0.00622
        -0.00000        -0.00001         0.00620
        -0.00000        -0.00001         0.00623
        -0.00001         0.00021        -0.12437
         0.00001         0.00016        -0.12437

 GEOMETRY PRIORITY, STEP = 0.2000 ANGSTROMS



     POINT   POTENTIAL  +  ENERGY LOST   =   TOTAL      ERROR    REF%   MOVEMENT
       1    -143.46093      0.00000       -143.46093   0.00000     1   %  0.0000
      17    -143.85589      1.08407       -142.77182   0.70114     2   %  0.0701
      30    -145.29689      2.92646       -142.37042   1.10253     3   %  0.1509
      43    -148.48312      6.40290       -142.08022   1.39274     4   %  0.2919
      55    -152.09472     10.06095       -142.03377   1.43918     5   %  0.4617
      68    -153.88104     12.18261       -141.69843   1.77453     6   %  0.5934
      80    -154.61651     13.46988       -141.14663   2.32633     7   %  0.6619
      92    -155.14217     14.73325       -140.40892   3.06404     8   %  0.7137
     104    -155.58472     16.04062       -139.54410   3.92885     9   %  0.7569
     116    -155.98332     17.39092       -138.59240   4.88056    10   %  0.7977
     127    -156.29373     18.64131       -137.65242   5.82053    11   %  0.8503
     140    -156.57262     20.33133       -136.24128   7.23167    12   %  0.9090
     152    -156.82745     22.12296       -134.70449   8.76846    13   %  0.9666
     164    -157.07670     23.71418       -133.36252  10.11044    14   %  1.0280
     176    -157.20240     24.72707       -132.47533  10.99763    15   %  1.0621
     189    -157.32134     26.26431       -131.05703  12.41592    16   %  1.1011
     201    -157.43093     28.02875       -129.40219  14.07077    17   %  1.1416
     214    -157.57206     29.33382       -128.23824  15.23472    18   %  1.1815
     227    -157.68824     30.41566       -127.27257  16.20039    19   %  1.2160
     239    -157.76059     31.88000       -125.88059  17.59237    20   %  1.2460
     252    -157.85532     33.88574       -123.96958  19.50337    21   %  1.2853
     265    -157.88880     34.76289       -123.12591  20.34704    22   %  1.3045
     278    -157.96687     35.85902       -122.10786  21.36510    23   %  1.3337
     291    -157.95106     37.39534       -120.55571  22.91724    24   %  1.3541
     304    -158.05312     38.93968       -119.11344  24.35951    25   %  1.3836
     317    -158.11781     39.88718       -118.23063  25.24232    26   %  1.4065
     331    -158.14860     41.30360       -116.84500  26.62796    27   %  1.4278
     343    -158.16804     42.97373       -115.19431  28.27865    28   %  1.4479
     357    -158.18236     44.01830       -114.16406  29.30890    29   %  1.4639
     370    -158.24928     45.24194       -113.00734  30.46561    30   %  1.4866
     383    -158.19496     47.02044       -111.17451  32.29844    31   %  1.5001
     396    -158.26567     48.49530       -109.77037  33.70259    32   %  1.5220
     410    -158.27063     49.58623       -108.68440  34.78855    33   %  1.5360
     423    -158.30316     50.98296       -107.32020  36.15275    34   %  1.5536
     436    -158.25197     53.10818       -105.14379  38.32916    35   %  1.5679
     449    -158.33374     53.93745       -104.39628  39.07667    36   %  1.5833
     463    -158.33359     55.18090       -103.15269  40.32026    37   %  1.5961
     476    -158.36328     56.67506       -101.68822  41.78473    38   %  1.6145
     489    -158.39473     58.20322       -100.19151  43.28144    39   %  1.6319
     503    -158.40470     59.16502        -99.23968  44.23327    40   %  1.6418
     516    -158.36653     60.19899        -98.16754  45.30542    41   %  1.6458
     530    -158.35594     61.57783        -96.77811  46.69484    42   %  1.6566
     543    -158.40922     63.50326        -94.90596  48.56700    43   %  1.6740
     557    -158.40927     64.56795        -93.84133  49.63163    44   %  1.6823
     570    -158.45228     65.53304        -92.91923  50.55372    45   %  1.6958
     583    -158.38986     66.86533        -91.52452  51.94843    46   %  1.6987
     597    -158.47735     68.76266        -89.71469  53.75827    47   %  1.7205
     610    -158.44181     69.60410        -88.83771  54.63524    48   %  1.7207
     624    -158.42571     70.79619        -87.62952  55.84344    49   %  1.7279
     637    -158.47316     72.41771        -86.05545  57.41751    50   %  1.7416
     651    -158.46994     73.69716        -84.77277  58.70018    51   %  1.7486
     664    -158.50420     74.61020        -83.89399  59.57896    52   %  1.7600
     678    -158.50424     75.83571        -82.66853  60.80442    53   %  1.7670
     691    -158.42368     77.52981        -80.89387  62.57909    54   %  1.7687
     705    -158.53631     79.02350        -79.51281  63.96014    55   %  1.7865
     718    -158.53303     80.03878        -78.49425  64.97871    56   %  1.7917
     732    -158.47944     81.20477        -77.27467  66.19829    57   %  1.7930
     745    -158.53542     82.56931        -75.96611  67.50685    58   %  1.8048
     759    -158.52348     84.46874        -74.05474  69.41822    59   %  1.8116
     772    -158.55297     85.33558        -73.21740  70.25556    60   %  1.8212
     786    -158.55163     86.44450        -72.10713  71.36583    61   %  1.8263
     800    -158.54596     87.98936        -70.55660  72.91636    62   %  1.8323
     813    -158.54436     89.94306        -68.60131  74.87165    63   %  1.8403
     827    -158.56851     90.82015        -67.74836  75.72460    64   %  1.8477
     840    -158.51992     91.86036        -66.65956  76.81340    65   %  1.8464
     854    -158.51136     93.23449        -65.27687  78.19609    66   %  1.8520


           POTENTIAL ENERGY HAS STOPPED DROPPING

           INITIAL VELOCITY IN DRC (Angstroms/Femtosecond)
         0.00002         0.00108        -0.73262
         0.00000         0.00001        -0.00622
         0.00000         0.00001        -0.00620
         0.00000         0.00001        -0.00623
         0.00001        -0.00021         0.12437
        -0.00001        -0.00016         0.12437

 GEOMETRY PRIORITY, STEP = 0.2000 ANGSTROMS



     POINT   POTENTIAL  +  ENERGY LOST   =   TOTAL      ERROR    REF%   MOVEMENT
       1    -143.46093      0.00000       -143.46093   0.00000     1   %  0.0000
      16    -143.82307      0.97033       -142.85274   0.62049     2   %  0.0633
      29    -144.99038      2.62154       -142.36883   1.10439     3   %  0.1395
      42    -148.30851      6.16465       -142.14385   1.32938     4   %  0.2811
      55    -152.06114      9.94777       -142.11337   1.35986     5   %  0.4585
      67    -153.78605     12.02385       -141.76220   1.71102     6   %  0.5864
      79    -154.52545     13.26344       -141.26200   2.21122     7   %  0.6626
      91    -155.07038     14.49151       -140.57887   2.89436     8   %  0.7151
     103    -155.52860     15.82547       -139.70312   3.77010     9   %  0.7542
     115    -155.93746     17.05652       -138.88094   4.59229    10   %  0.7971
     127    -156.25638     18.65284       -137.60354   5.86969    11   %  0.8467
     139    -156.55790     20.30479       -136.25311   7.22012    12   %  0.9079
     151    -156.83435     22.01245       -134.82190   8.65132    13   %  0.9673
     163    -157.01979     24.10382       -132.91597  10.55725    14   %  1.0230
     175    -157.18157     25.27545       -131.90612  11.56711    15   %  1.0637
     188    -157.32026     26.52373       -130.79653  12.67670    16   %  1.1046
     200    -157.41340     28.13492       -129.27848  14.19475    17   %  1.1430
     213    -157.50885     30.17445       -127.33441  16.13882    18   %  1.1842
     226    -157.53516     31.11437       -126.42078  17.05244    19   %  1.2170
     238    -157.58388     32.43085       -125.15303  18.32019    20   %  1.2452
     251    -157.70400     34.04824       -123.65576  19.81747    21   %  1.2814
     264    -157.78748     35.06550       -122.72198  20.75125    22   %  1.3093
     277    -157.77448     36.47627       -121.29821  22.17502    23   %  1.3296
     290    -157.87997     38.47925       -119.40072  24.07251    24   %  1.3632
     303    -157.95138     39.28554       -118.66583  24.80739    25   %  1.3873
     316    -157.92935     40.43617       -117.49318  25.98005    26   %  1.4010
     329    -158.01250     41.84565       -116.16686  27.30637    27   %  1.4277
     342    -158.06070     43.31737       -114.74332  28.72990    28   %  1.4528
     356    -158.08467     44.37767       -113.70700  29.76622    29   %  1.4687
     369    -158.03163     45.83608       -112.19555  31.27768    30   %  1.4804
     382    -158.10185     47.59925       -110.50260  32.97062    31   %  1.5046
     395    -158.14724     48.52839       -109.61885  33.85438    32   %  1.5231
     408    -158.09645     49.79770       -108.29875  35.17448    33   %  1.5319
     422    -158.09210     51.68211       -106.40999  37.06324    34   %  1.5492
     435    -158.16752     52.92293       -105.24459  38.22864    35   %  1.5674
     448    -158.16657     54.05720       -104.10937  39.36385    36   %  1.5797
     462    -158.20848     55.49373       -102.71474  40.75848    37   %  1.5970
     475    -158.25944     57.11590       -101.14354  42.32969    38   %  1.6165
     488    -158.26615     58.11209       -100.15406  43.31917    39   %  1.6259
     502    -158.24720     59.28398        -98.96322  44.51000    40   %  1.6341
     515    -158.22181     60.79537        -97.42644  46.04679    41   %  1.6438
     528    -158.30821     62.43039        -95.87783  47.59540    42   %  1.6646
     542    -158.28391     63.41252        -94.87139  48.60184    43   %  1.6690
     555    -158.26363     64.42633        -93.83729  49.63593    44   %  1.6751
     569    -158.29299     66.05141        -92.24158  51.23165    45   %  1.6895
     582    -158.31091     67.94600        -90.36491  53.10832    46   %  1.7016
     596    -158.30820     68.78931        -89.51888  53.95434    47   %  1.7086
     609    -158.35234     69.78022        -88.57212  54.90111    48   %  1.7216
     623    -158.35161     71.13195        -87.21966  56.25356    49   %  1.7302
     636    -158.26905     73.00182        -85.26723  58.20599    50   %  1.7339
     650    -158.35499     74.08097        -84.27402  59.19921    51   %  1.7478
     663    -158.38390     75.03868        -83.34522  60.12801    52   %  1.7577
     677    -158.36981     76.19939        -82.17041  61.30281    53   %  1.7629
     691    -158.32435     77.70919        -80.61516  62.85807    54   %  1.7671
     704    -158.37249     79.54150        -78.83098  64.64224    55   %  1.7796
     717    -158.40719     80.60973        -77.79746  65.67576    56   %  1.7899
     731    -158.40577     81.79302        -76.61275  66.86048    57   %  1.7959
     745    -158.40430     83.30429        -75.10001  68.37322    58   %  1.8030


           POTENTIAL ENERGY HAS STOPPED DROPPING


 **********************
 *                    *
 * JOB ENDED NORMALLY *
 *                    *
 **********************



 TOTAL JOB TIME:            13.13 SECONDS

 == MOPAC DONE ==
