 *******************************************************************************
 ** Site#: 10005        For non-commercial use only     Version 15.317W 64BITS**
 *******************************************************************************
 ** Cite this work as:                                                        **
 **                                                                           **
 ** (a) MOPAC2012, James J. P. Stewart, Stewart Computational Chemistry,      **
 **  Version 15.317W web: HTTP://OpenMOPAC.net         Days remaining: 365    **
 **                                                                           **
 **                                 AND                                       **
 **                                                                           **
 ** (b) Maia, J.D.C., et al., J. Chem. Theory Comput. 2012, 8, 3072-3081.     **
 **                DOI: 10.1021/ct3004645.                                    **
 *******************************************************************************
 **                                                                           **
 **                                MOPAC2012                                  **
 **                                                                           **
 *******************************************************************************

                              PM7 CALCULATION RESULTS


 *******************************************************************************
 *  CALCULATION DONE:                                Fri Nov 13 09:45:40 2015  *
 *  GEO_DAT    - DATA SET GEOMETRY IS IN FILE "LOCATE_TS.ARC"
 *
 *
 *
 *                 CHARGE ON SYSTEM =    -1
 *
 *
 *
 *  EPS= 78.40 - USE ANDREAS KLAMT'S COSMO IMPLICIT SOLVATION MODEL
 *  TS         - USE EF ROUTINE FOR TS SEARCH
 *  T=         - A TIME OF 172800.0 SECONDS REQUESTED
 *  DUMP=N     - RESTART FILE WRITTEN EVERY  7200.000 SECONDS
 *  GNORM=     - EXIT WHEN GRADIENT NORM DROPS BELOW   2.00    
 *******************************************************************************
TS eps=78.4 gnorm=2  charge=-1 geo_dat="Locate_TS.arc"
 Transition state for CH3Cl --- Cl(-) <=> Cl(-) --- CH3Cl

   ATOM                 CHEMICAL                   X               Y               Z
  NUMBER                 SYMBOL               (ANGSTROMS)     (ANGSTROMS)     (ANGSTROMS)
 
     1       C(HETATM    1  C   HET A   1)    0.11535335  *  -0.00151994  *   0.00165410  *
     2      Cl(HETATM    2 Cl   HET A   1)    2.29249865  *   0.01041500  *   0.00192495  *
     3       H(HETATM    3 1HT  HET A   1)    0.11319326      1.08441038      0.01007045   
     4       H(HETATM    4 2HT  HET A   1)    0.11670725     -0.53410456     -0.94447173   
     5       H(HETATM    5 3HT  HET A   1)    0.11635598     -0.54961027      0.93883287   
     6      Cl(HETATM    6 Cl   HET A   1)   -2.06292787  *   0.00010471  *  -0.00100681  *
 

     ===================== shared-memory parallel CPU Section ======================
     **                                                                           **
     **  MOPAC calculations will run in shared-memory parallel CPUs               **
     **                                                                           **
     **  Number of Threads =  4                                                   **
     **                                                                           **
     **                                                                           **
     **  For information on this work, see:                                       **
     **                                                                           **
     **  Maia, J.D.C., et al., J. Chem. Theory Comput. 2012, 8, 3072-3081.        **
     **        DOI: 10.1021/ct3004645.                                            **
     **                                                                           **
     ===================== shared-memory parallel CPU Section ======================
      


 General Reference for PM7:
 "Optimization of Parameters for Semiempirical Methods VI: More Modifications to the 
 NDDO Approximations and Re-optimization of Parameters", J. J. P. Stewart, J. Mol. Mod., 1:32, 19 (2013)
 http://www.springerlink.com/openurl.asp?genre=article&id=doi:10.1007/s00894-012-1667-x

           Empirical Formula: C H3 Cl2  =     6 atoms



      MOLECULAR POINT GROUP   :   D3h 


      RHF CALCULATION, NO. OF DOUBLY OCCUPIED LEVELS =   11

      Transition state refinement using EF

          HESSIAN CALCULATED NUMERICALLY

 CYCLE:     1 TIME:   0.078 TIME LEFT:  2.00D  GRAD.:     2.765 HEAT: -143.4342
 CYCLE:     2 TIME:   0.000 TIME LEFT:  2.00D  GRAD.:     0.111 HEAT: -143.4510

     GRADIENT =  0.11081  IS LESS THAN CUTOFF =  2.00000



 -------------------------------------------------------------------------------
TS eps=78.4 gnorm=2  charge=-1 geo_dat="Locate_TS.arc"
 Transition state for CH3Cl --- Cl(-) <=> Cl(-) --- CH3Cl



     GEOMETRY OPTIMISED USING EIGENVECTOR FOLLOWING (TS).     
     SCF FIELD WAS ACHIEVED                                   


                              PM7 CALCULATION
                                                       MOPAC2012 (Version: 15.317W)
                                                       Fri Nov 13 09:45:40 2015
                                                       No. of days left = 365




          FINAL HEAT OF FORMATION =       -143.45104 KCAL/MOL =    -600.19915 KJ/MOL
          VAN DER WAALS AREA      =        109.08 SQUARE ANGSTROMS


          TOTAL ENERGY            =       -702.29316 EV
          ELECTRONIC ENERGY       =       -445.67283 EV  POINT GROUP:     D3h 
          CORE-CORE REPULSION     =       -256.62033 EV
          DIELECTRIC ENERGY       =         -2.72530 EV
          COSMO AREA              =        109.08 SQUARE ANGSTROMS
          COSMO VOLUME            =         92.04 CUBIC ANGSTROMS

          GRADIENT NORM           =          0.11081
          IONIZATION POTENTIAL    =         10.332853 EV
          HOMO LUMO ENERGIES (EV) =        -10.333 -0.193
          NO. OF FILLED LEVELS    =         11
          MOLECULAR WEIGHT        =         85.941

          MOLECULAR DIMENSIONS (Angstroms)

            Atom       Atom       Distance
           Cl     6   Cl     2     4.37356
            H     5    H     4     1.88337
            H     4    H     3     1.62632


          SCF CALCULATIONS        =         13
 
          WALL-CLOCK TIME         =          0.109 SECONDS
          COMPUTATION TIME        =          0.343 SECONDS




   ATOM                 CHEMICAL                   X               Y               Z
  NUMBER                 SYMBOL               (ANGSTROMS)     (ANGSTROMS)     (ANGSTROMS)
 
     1       C(HETATM    1  C   HET A   1)    0.11542641  *  -0.00094489  *   0.00157969  *
     2      Cl(HETATM    2 Cl   HET A   1)    2.30226645  *   0.00262019  *  -0.00032357  *
     3       H(HETATM    3 1HT  HET A   1)    0.11319326      1.08441038      0.01007045   
     4       H(HETATM    4 2HT  HET A   1)    0.11670725     -0.53410456     -0.94447173   
     5       H(HETATM    5 3HT  HET A   1)    0.11635598     -0.54961027      0.93883287   
     6      Cl(HETATM    6 Cl   HET A   1)   -2.07127979  *  -0.00496448  *   0.00479958  *

                             CARTESIAN COORDINATES

   1    C        0.115426414    -0.000944885     0.001579692
   2   Cl        2.302266452     0.002620191    -0.000323572
   3    H        0.113193260     1.084410380     0.010070450
   4    H        0.116707250    -0.534104560    -0.944471730
   5    H        0.116355980    -0.549610270     0.938832870
   6   Cl       -2.071279788    -0.004964483     0.004799583


           Empirical Formula: C H3 Cl2  =     6 atoms



      MOLECULAR POINT GROUP   :   D3h 


                  EIGENVALUES  
 -26.76248 -25.40459 -23.79150 -15.10007 -15.08453 -12.79336 -11.19140 -11.18858
 -11.00090 -10.99791 -10.33285  -0.19344   5.13899   5.40823   5.41681  74.94250
  75.14129  75.14187  75.74039  75.85970  75.86017  76.07440  76.07440  76.24869
  76.24871


              NET ATOMIC CHARGES AND DIPOLE CONTRIBUTIONS

  ATOM NO.                 TYPE                        CHARGE      No. of ELECS.   s-Pop       p-Pop       d-Pop       
    1          C(HETATM    1  C   HET A   1)           0.102735        3.8973     1.20468     2.69258
    2         Cl(HETATM    2 Cl   HET A   1)          -0.791871        7.7919     1.99576     5.79300     0.00311
    3          H(HETATM    3 1HT  HET A   1)           0.159773        0.8402     0.84023
    4          H(HETATM    4 2HT  HET A   1)           0.160638        0.8394     0.83936
    5          H(HETATM    5 3HT  HET A   1)           0.160480        0.8395     0.83952
    6         Cl(HETATM    6 Cl   HET A   1)          -0.791756        7.7918     1.99576     5.79289     0.00311
 DIPOLE           X         Y         Z       TOTAL
 POINT-CHG.    -0.001    -0.000    -0.003     0.004
 HYBRID        -0.000     0.003    -0.000     0.003
 SUM           -0.002     0.003    -0.003     0.005


          ATOMIC ORBITAL ELECTRON POPULATIONS

                   Atom                  s        px        py        pz      x^2-y^2     xz        z^2       yz        xy
   C(HETATM    1  C   HET A   1)   1.20468   0.42086   1.13619   1.13553
  Cl(HETATM    2 Cl   HET A   1)   1.99576   1.79305   1.99998   1.99998   0.00160   0.00049   0.00054   0.00001   0.00048
   H(HETATM    3 1HT  HET A   1)   0.84023
   H(HETATM    4 2HT  HET A   1)   0.83936
   H(HETATM    5 3HT  HET A   1)   0.83952
  Cl(HETATM    6 Cl   HET A   1)   1.99576   1.79293   1.99998   1.99998   0.00160   0.00049   0.00054   0.00001   0.00048
 *******************************************************************************
 ** Site#: 10005        For non-commercial use only     Version 15.317W 64BITS**
 *******************************************************************************
 ** Cite this work as:                                                        **
 **                                                                           **
 ** (a) MOPAC2012, James J. P. Stewart, Stewart Computational Chemistry,      **
 **  Version 15.317W web: HTTP://OpenMOPAC.net         Days remaining: 365    **
 **                                                                           **
 **                                 AND                                       **
 **                                                                           **
 ** (b) Maia, J.D.C., et al., J. Chem. Theory Comput. 2012, 8, 3072-3081.     **
 **                DOI: 10.1021/ct3004645.                                    **
 *******************************************************************************
 **                                                                           **
 **                                MOPAC2012                                  **
 **                                                                           **
 *******************************************************************************

                              PM7 CALCULATION RESULTS


 *******************************************************************************
 *  CALCULATION DONE:                                Fri Nov 13 09:45:40 2015  *
 *
 *
 *
 *                 CHARGE ON SYSTEM =    -1
 *
 *
 *
 *  EPS= 78.40 - USE ANDREAS KLAMT'S COSMO IMPLICIT SOLVATION MODEL
 *  IRC=N      - INTRINSIC REACTION COORDINATE  1 DEFINED
 *  OLDGEO     - PREVIOUS GEOMETRY TO BE USED
 *  T=         - A TIME OF 172800.0 SECONDS REQUESTED
 *  DUMP=N     - RESTART FILE WRITTEN EVERY  7200.000 SECONDS
 *  X-PRIOR    - GEOMETRY CHANGES TAKE PRIORITY IN DRC
 *******************************************************************************
oldgeo eps=78.4 charge=-1 IRC=1* HTML X-priority=0.1
 Reaction path for CH3Cl --- Cl(-) <=> Cl(-) --- CH3Cl

   ATOM                 CHEMICAL                   X               Y               Z
  NUMBER                 SYMBOL               (ANGSTROMS)     (ANGSTROMS)     (ANGSTROMS)
 
     1       C(HETATM    1  C   HET A   1)    0.11542641  *  -0.00094489  *   0.00157969  *
     2      Cl(HETATM    2 Cl   HET A   1)    2.30226645  *   0.00262019  *  -0.00032357  *
     3       H(HETATM    3 1HT  HET A   1)    0.11319326      1.08441038      0.01007045   
     4       H(HETATM    4 2HT  HET A   1)    0.11670725     -0.53410456     -0.94447173   
     5       H(HETATM    5 3HT  HET A   1)    0.11635598     -0.54961027      0.93883287   
     6      Cl(HETATM    6 Cl   HET A   1)   -2.07127979  *  -0.00496448  *   0.00479958  *
 

 General Reference for PM7:
 "Optimization of Parameters for Semiempirical Methods VI: More Modifications to the 
 NDDO Approximations and Re-optimization of Parameters", J. J. P. Stewart, J. Mol. Mod., 1:32, 19 (2013)
 http://www.springerlink.com/openurl.asp?genre=article&id=doi:10.1007/s00894-012-1667-x

           Empirical Formula: C H3 Cl2  =     6 atoms



      MOLECULAR POINT GROUP   :   D3h 


      RHF CALCULATION, NO. OF DOUBLY OCCUPIED LEVELS =   11



          HEAT OF FORMATION =    -143.451050 KCALS/MOLE


          GRADIENT NORM =   0.77242


          TIME FOR SCF CALCULATION =    0.02

          TIME FOR DERIVATIVES     =    0.00

          MOLECULAR WEIGHT =   85.94


          ESTIMATED TIME TO COMPLETE CALCULATION =        0.56 SECONDS

    FOR POINT-GROUP D3h  THERE ARE  12 UNIQUE SYMMETRY FUNCTIONS.

 STEP:   1 TIME =     0.03 SECS, INTEGRAL =      0.03 TIME LEFT: 172799.95
 STEP:   2 TIME =     0.02 SECS, INTEGRAL =      0.05 TIME LEFT: 172799.94
 STEP:   3 TIME =     0.01 SECS, INTEGRAL =      0.06 TIME LEFT: 172799.93
 STEP:   4 TIME =     0.02 SECS, INTEGRAL =      0.08 TIME LEFT: 172799.91
 STEP:   5 TIME =     0.02 SECS, INTEGRAL =      0.09 TIME LEFT: 172799.89
 STEP:   6 TIME =     0.02 SECS, INTEGRAL =      0.11 TIME LEFT: 172799.88
 STEP:   7 TIME =     0.02 SECS, INTEGRAL =      0.12 TIME LEFT: 172799.86
 STEP:   8 TIME =     0.01 SECS, INTEGRAL =      0.14 TIME LEFT: 172799.85
 STEP:   9 TIME =     0.02 SECS, INTEGRAL =      0.16 TIME LEFT: 172799.83
 STEP:  10                       INTEGRAL =      0.16 TIME LEFT: 172799.83
 STEP:  11                       INTEGRAL =      0.16 TIME LEFT: 172799.83
 STEP:  12                       INTEGRAL =      0.16 TIME LEFT: 172799.83
 STEP:  13                       INTEGRAL =      0.16 TIME LEFT: 172799.83
 STEP:  14                       INTEGRAL =      0.16 TIME LEFT: 172799.83
 STEP:  15                       INTEGRAL =      0.16 TIME LEFT: 172799.83
 STEP:  16                       INTEGRAL =      0.16 TIME LEFT: 172799.83
 STEP:  17                       INTEGRAL =      0.16 TIME LEFT: 172799.83
 STEP:  18                       INTEGRAL =      0.16 TIME LEFT: 172799.83
           INITIAL VELOCITY IN DRC (Angstroms/Femtosecond)
         0.74283         0.00007        -0.00023
        -0.12591         0.00000         0.00000
         0.00178         0.00000        -0.00000
         0.00177         0.00000        -0.00000
         0.00180         0.00000        -0.00000
        -0.12591        -0.00003         0.00008

 GEOMETRY PRIORITY, STEP = 0.1000 ANGSTROMS



     POINT   POTENTIAL  +  ENERGY LOST   =   TOTAL      ERROR    REF%   MOVEMENT
       1    -143.45104      0.00000       -143.45104   0.00000     1   %  0.0000
      10    -143.56830      0.43288       -143.13542   0.33412     2   %  0.0443
      17    -143.75424      0.93419       -142.82005   0.64948     3   %  0.0623
      23    -144.09128      1.52678       -142.56450   0.90504     4   %  0.0901
      29    -144.86550      2.54089       -142.32461   1.14493     5   %  0.1296
      35    -145.79508      3.64914       -142.14594   1.32359     6   %  0.1815
      41    -147.80490      5.69119       -142.11371   1.35583     7   %  0.2594
      47    -149.68580      7.68420       -142.00160   1.46793     8   %  0.3406
      53    -151.22447      9.26311       -141.96136   1.50817     9   %  0.4146
      59    -152.56908     10.66536       -141.90372   1.56581    10   %  0.4935
      66    -153.54765     11.83124       -141.71640   1.75313    11   %  0.5645
      72    -154.05308     12.56998       -141.48311   1.98643    12   %  0.6147
      78    -154.38816     13.17621       -141.21194   2.25759    13   %  0.6440
      84    -154.69280     13.79137       -140.90143   2.56810    14   %  0.6736
      90    -154.95876     14.41893       -140.53983   2.92970    15   %  0.6991
      96    -155.22717     15.06369       -140.16348   3.30605    16   %  0.7275
     102    -155.43132     15.69333       -139.73799   3.73154    17   %  0.7437
     108    -155.64465     16.36233       -139.28232   4.18722    18   %  0.7648
     114    -155.85711     17.04386       -138.81324   4.65629    19   %  0.7853
     120    -156.02468     17.73627       -138.28841   5.18112    20   %  0.8048
     126    -156.18084     18.49596       -137.68487   5.78466    21   %  0.8333
     131    -156.35555     19.09409       -137.26146   6.20808    22   %  0.8634
     137    -156.50722     19.93242       -136.57480   6.89473    23   %  0.8943
     143    -156.64454     20.77077       -135.87377   7.59576    24   %  0.9240
     149    -156.74967     21.88675       -134.86292   8.60662    25   %  0.9540
     155    -156.87572     22.60336       -134.27236   9.19718    26   %  0.9813
     161    -156.93976     23.92403       -133.01573  10.45380    27   %  1.0101
     168    -157.12199     24.30413       -132.81786  10.65167    28   %  1.0404
     174    -157.17752     24.77764       -132.39988  11.06965    29   %  1.0568
     180    -157.20678     25.43067       -131.77610  11.69343    30   %  1.0716
     187    -157.27724     26.08170       -131.19554  12.27400    31   %  1.0922
     193    -157.35988     26.79545       -130.56444  12.90510    32   %  1.1142
     199    -157.42625     27.64068       -129.78557  13.68397    33   %  1.1351
     205    -157.50416     28.62968       -128.87448  14.59505    34   %  1.1583
     212    -157.55462     29.72579       -127.82883  15.64070    35   %  1.1808
     218    -157.51005     30.06053       -127.44953  16.02001    36   %  1.1954
     224    -157.55905     30.41329       -127.14577  16.32377    37   %  1.2123
     231    -157.57813     30.77367       -126.80446  16.66507    38   %  1.2203
     237    -157.59236     31.15261       -126.43975  17.02978    39   %  1.2279
     244    -157.61510     31.52385       -126.09125  17.37828    40   %  1.2382
     251    -157.67345     31.96933       -125.70412  17.76541    41   %  1.2562
     257    -157.69936     32.41277       -125.28660  18.18294    42   %  1.2670
     263    -157.72648     32.88498       -124.84151  18.62802    43   %  1.2786
     270    -157.70186     33.56838       -124.13348  19.33605    44   %  1.2865
     276    -157.71863     34.27689       -123.44174  20.02779    45   %  1.2993
     283    -157.78072     35.23235       -122.54837  20.92117    46   %  1.3188
     289    -157.82807     36.18349       -121.64458  21.82495    47   %  1.3342
     296    -157.88642     36.55828       -121.32813  22.14140    48   %  1.3505
     302    -157.86104     37.10335       -120.75769  22.71185    49   %  1.3552
     309    -157.87005     37.68615       -120.18390  23.28563    50   %  1.3650
     315    -157.87993     38.32785       -119.55207  23.91746    51   %  1.3754
     322    -157.95842     39.16679       -118.79164  24.67790    52   %  1.3937
     328    -157.96915     40.15858       -117.81057  25.65896    53   %  1.4051
     335    -158.00317     40.53063       -117.47254  25.99699    54   %  1.4174
     341    -158.03274     40.91284       -117.11990  26.34963    55   %  1.4273
     348    -158.00284     41.44818       -116.55466  26.91487    56   %  1.4303
     355    -158.06034     41.97908       -116.08126  27.38828    57   %  1.4450
     361    -158.06517     42.52473       -115.54044  27.92909    58   %  1.4531
     368    -158.02766     43.26542       -114.76224  28.70729    59   %  1.4575
     374    -158.03290     43.95833       -114.07457  29.39497    60   %  1.4664
     381    -158.09305     44.87224       -113.22082  30.24872    61   %  1.4824
     387    -158.09960     45.91481       -112.18479  31.28474    62   %  1.4922
     394    -158.12573     46.26492       -111.86081  31.60872    63   %  1.5046
     401    -158.10364     46.78647       -111.31717  32.15236    64   %  1.5059
     408    -158.14922     47.34116       -110.80806  32.66148    65   %  1.5190
     414    -158.15436     47.89547       -110.25888  33.21065    66   %  1.5254
     421    -158.11729     48.74490       -109.37238  34.09715    67   %  1.5307
     427    -158.08029     49.60531       -108.47499  34.99455    68   %  1.5360
     434    -158.16320     50.21131       -107.95189  35.51764    69   %  1.5483
     441    -158.20287     50.65571       -107.54715  35.92238    70   %  1.5601
     447    -158.20855     51.07296       -107.13559  36.33395    71   %  1.5652
     454    -158.16849     51.62707       -106.54142  36.92811    72   %  1.5654
     461    -158.21608     52.24524       -105.97084  37.49869    73   %  1.5773
     467    -158.21678     52.93600       -105.28078  38.18876    74   %  1.5832
     474    -158.15943     54.08961       -104.06982  39.39972    75   %  1.5873
     480    -158.25358     54.63095       -103.62263  39.84690    76   %  1.6029
     487    -158.21600     55.11027       -103.10573  40.36381    77   %  1.6013
     494    -158.26277     55.60176       -102.66101  40.80852    78   %  1.6126
     501    -158.21823     56.19536       -102.02287  41.44666    79   %  1.6125
     507    -158.21169     56.74873       -101.46296  42.00657    80   %  1.6172
     514    -158.22586     57.54948       -100.67638  42.79315    81   %  1.6256
     521    -158.19596     58.46947        -99.72650  43.74304    82   %  1.6300
     527    -158.18569     59.52008        -98.66561  44.80392    83   %  1.6363
     534    -158.26899     59.89181        -98.37718  45.09235    84   %  1.6460
     541    -158.30882     60.34520        -97.96362  45.50591    85   %  1.6560
     547    -158.31184     60.77788        -97.53395  45.93558    86   %  1.6600
     554    -158.26542     61.34736        -96.91806  46.55147    87   %  1.6588
     561    -158.31469     61.95712        -96.35757  47.11197    88   %  1.6691
     568    -158.26428     62.75449        -95.50979  47.95975    89   %  1.6699
     574    -158.30622     63.55826        -94.74796  48.72158    90   %  1.6790
     581    -158.30546     64.63802        -93.66745  49.80209    91   %  1.6847
     588    -158.33860     64.99186        -93.34674  50.12279    92   %  1.6929
     594    -158.30745     65.45318        -92.85427  50.61526    93   %  1.6919
     601    -158.29924     65.91791        -92.38133  51.08820    94   %  1.6948
     608    -158.34754     66.47173        -91.87581  51.59372    95   %  1.7048
     615    -158.29157     67.17223        -91.11934  52.35019    96   %  1.7036
     621    -158.34811     67.87707        -90.47104  52.99849    97   %  1.7138
     628    -158.29302     68.75337        -89.53965  53.92988    98   %  1.7141
     635    -158.31085     69.65351        -88.65734  54.81220    99   %  1.7208
     641    -158.34295     70.69451        -87.64844  55.82110   100   %  1.7286
     648    -158.37874     71.29776        -87.08098  56.38855   101   %  1.7376
     655    -158.34738     71.76571        -86.58167  56.88786   102   %  1.7360
     662    -158.36727     72.26257        -86.10470  57.36483   103   %  1.7418
     669    -158.37011     72.80290        -85.56721  57.90232   104   %  1.7456
     675    -158.32769     73.42453        -84.90316  58.56637   105   %  1.7450
     682    -158.36957     74.12731        -84.24226  59.22727   106   %  1.7530
     689    -158.37552     74.96072        -83.41480  60.05473   107   %  1.7575
     695    -158.28429     76.26718        -82.01710  61.45243   108   %  1.7568
     702    -158.40448     76.59588        -81.80860  61.66093   109   %  1.7701
     709    -158.36467     77.09608        -81.26859  62.20095   110   %  1.7675
     716    -158.40619     77.60124        -80.80494  62.66459   111   %  1.7761
     723    -158.36025     78.17420        -80.18604  63.28349   112   %  1.7739
     730    -158.40770     78.74822        -79.65949  63.81005   113   %  1.7827
     736    -158.40594     79.33621        -79.06972  64.39981   114   %  1.7856
     743    -158.33430     80.20543        -78.12887  65.34066   115   %  1.7833
     750    -158.35313     81.29022        -77.06291  66.40662   116   %  1.7900
     757    -158.31409     82.57404        -75.74005  67.72948   117   %  1.7924
     763    -158.43070     82.89749        -75.53320  67.93633   118   %  1.8069
     770    -158.53246     83.27757        -75.25490  68.21464   119   %  1.8018
     777    -158.55717     83.64798        -74.90919  68.56034   120   %  1.8095
     784    -158.53191     84.04419        -74.48772  68.98182   121   %  1.8055
     791    -158.55977     84.43978        -74.11999  69.34954   122   %  1.8133
     797    -158.56071     84.80496        -73.75575  69.71378   123   %  1.8149
     804    -158.52729     85.26141        -73.26588  70.20365   124   %  1.8112
     811    -158.56302     85.71593        -72.84709  70.62244   125   %  1.8192
     818    -158.52199     86.23422        -72.28777  71.18177   126   %  1.8157
     825    -158.56317     86.75712        -71.80605  71.66349   127   %  1.8237
     831    -158.56155     87.28093        -71.28062  72.18891   128   %  1.8257
     838    -158.50510     88.00401        -70.50109  72.96844   129   %  1.8227
     845    -158.55810     88.75000        -69.80810  73.66143   130   %  1.8311
     852    -158.48211     89.83022        -68.65189  74.81764   131   %  1.8285
     858    -158.46539     90.89413        -67.57125  75.89828   132   %  1.8311
     865    -158.54202     91.27652        -67.26550  76.20403   133   %  1.8380
     872    -158.57760     91.74844        -66.82917  76.64037   134   %  1.8455
     879    -158.53635     92.27981        -66.25654  77.21299   135   %  1.8420
     886    -158.57865     92.80837        -65.77027  77.69926   136   %  1.8500
     893    -158.53049     93.43134        -65.09915  78.37038   137   %  1.8465
     899    -158.52687     93.98438        -64.54249  78.92705   138   %  1.8486
     906    -158.57466     94.65058        -63.92409  79.54545   139   %  1.8563
     913    -158.50915     95.55858        -62.95057  80.51897   140   %  1.8533
     920    -158.56509     96.53086        -62.03424  81.43530   141   %  1.8614
     926    -158.55816     97.30713        -61.25103  82.21850   142   %  1.8628
     933    -158.59392     97.75526        -60.83866  82.63087   143   %  1.8699
     940    -158.55378     98.26165        -60.29213  83.17740   144   %  1.8658
     947    -158.59392     98.75856        -59.83536  83.63417   145   %  1.8734
     954    -158.54484     99.36234        -59.18249  84.28704   146   %  1.8695
     961    -158.58811    100.01049        -58.57762  84.89191   147   %  1.8768
     967    -158.58375    100.69238        -57.89137  85.57816   148   %  1.8784


 IRC CALCULATION COMPLETE 
           INITIAL VELOCITY IN DRC (Angstroms/Femtosecond)
        -0.74283        -0.00007         0.00023
         0.12591        -0.00000        -0.00000
        -0.00178        -0.00000         0.00000
        -0.00177        -0.00000         0.00000
        -0.00180        -0.00000         0.00000
         0.12591         0.00003        -0.00008

 GEOMETRY PRIORITY, STEP = 0.1000 ANGSTROMS



     POINT   POTENTIAL  +  ENERGY LOST   =   TOTAL      ERROR    REF%   MOVEMENT
       1    -143.45105      0.00000       -143.45105   0.00000     1   %  0.0000
      10    -143.57012      0.44787       -143.12225   0.34534     2   %  0.0449
      16    -143.78725      0.89438       -142.89287   0.57472     3   %  0.0601
      22    -144.09404      1.46199       -142.63206   0.83553     4   %  0.0824
      28    -144.74036      2.36781       -142.37255   1.09504     5   %  0.1244
      34    -145.69024      3.57344       -142.11680   1.35078     6   %  0.1745
      40    -147.07982      5.05656       -142.02326   1.44432     7   %  0.2314
      47    -149.24338      7.25275       -141.99063   1.47696     8   %  0.3226
      53    -151.13106      9.13871       -141.99236   1.47523     9   %  0.4086
      59    -152.63124     10.72914       -141.90210   1.56549    10   %  0.4946
      65    -153.45934     11.69711       -141.76224   1.70535    11   %  0.5570
      71    -153.93538     12.33839       -141.59699   1.87059    12   %  0.6036
      77    -154.31063     12.96456       -141.34607   2.12152    13   %  0.6415
      84    -154.67557     13.68462       -140.99095   2.47664    14   %  0.6698
      90    -154.91012     14.27000       -140.64012   2.82746    15   %  0.6942
      96    -155.15475     14.86735       -140.28740   3.18019    16   %  0.7164
     102    -155.37724     15.47439       -139.90285   3.56473    17   %  0.7375
     108    -155.58049     16.11572       -139.46477   4.00282    18   %  0.7576
     114    -155.77980     16.77262       -139.00719   4.46040    19   %  0.7777
     120    -155.95707     17.44391       -138.51316   4.95443    20   %  0.7974
     126    -156.10406     18.12263       -137.98143   5.48616    21   %  0.8217
     132    -156.26366     18.82271       -137.44095   6.02663    22   %  0.8507
     138    -156.40952     19.59282       -136.81670   6.65089    23   %  0.8800
     144    -156.54968     20.39313       -136.15654   7.31104    24   %  0.9089
     150    -156.68396     21.28405       -135.39991   8.06768    25   %  0.9383
     156    -156.80029     22.25727       -134.54302   8.92457    26   %  0.9674
     162    -156.87568     23.31537       -133.56032   9.90727    27   %  0.9968
     168    -157.05915     23.90709       -133.15206  10.31552    28   %  1.0298
     174    -157.12617     24.36879       -132.75737  10.71021    29   %  1.0459
     181    -157.16979     25.04382       -132.12598  11.34161    30   %  1.0624
     187    -157.20624     25.72150       -131.48474  11.98284    31   %  1.0801
     193    -157.28131     26.50032       -130.78099  12.68659    32   %  1.1011
     199    -157.33918     27.40698       -129.93220  13.53538    33   %  1.1222
     205    -157.39068     28.50845       -128.88223  14.58535    34   %  1.1441
     212    -157.51219     28.94384       -128.56835  14.89924    35   %  1.1650
     218    -157.54531     29.45602       -128.08929  15.37830    36   %  1.1787
     225    -157.61955     30.12897       -127.49057  15.97701    37   %  1.2013
     231    -157.67290     30.86188       -126.81102  16.65657    38   %  1.2171
     237    -157.71107     31.71177       -125.99930  17.46829    39   %  1.2334
     243    -157.75028     32.79275       -124.95753  18.51006    40   %  1.2511
     250    -157.81488     33.17158       -124.64330  18.82429    41   %  1.2697
     257    -157.80583     33.70316       -124.10267  19.36492    42   %  1.2764
     263    -157.82542     34.20856       -123.61686  19.85073    43   %  1.2875
     270    -157.89210     34.88118       -123.01092  20.45667    44   %  1.3062
     276    -157.91528     35.64456       -122.27072  21.19686    45   %  1.3190
     282    -157.94505     36.59712       -121.34793  22.11966    46   %  1.3330
     289    -157.98791     37.73357       -120.25433  23.21326    47   %  1.3560
     295    -158.00552     38.10411       -119.90141  23.56618    48   %  1.3638
     302    -157.96514     38.66784       -119.29731  24.17028    49   %  1.3681
     309    -158.02940     39.27103       -118.75837  24.70922    50   %  1.3846
     315    -158.05003     39.87699       -118.17304  25.29455    51   %  1.3948
     321    -158.06535     40.57232       -117.49303  25.97456    52   %  1.4049
     328    -158.01292     41.72679       -116.28613  27.18145    53   %  1.4132
     335    -158.09180     42.33879       -115.75301  27.71458    54   %  1.4280
     341    -158.09886     42.76199       -115.33688  28.13071    55   %  1.4350
     348    -158.15310     43.30440       -114.84870  28.61889    56   %  1.4493
     354    -158.16569     43.84633       -114.31936  29.14823    57   %  1.4575
     361    -158.12383     44.60573       -113.51810  29.94948    58   %  1.4620
     368    -158.18152     45.39181       -112.78972  30.67787    59   %  1.4766
     374    -158.14820     46.31483       -111.83337  31.63421    60   %  1.4835
     381    -158.13670     47.32582       -110.81088  32.65670    61   %  1.4927
     387    -158.23107     47.84993       -110.38114  33.08645    62   %  1.5113
     394    -158.21456     48.32593       -109.88863  33.57896    63   %  1.5116
     401    -158.24836     48.82146       -109.42690  34.04069    64   %  1.5240
     407    -158.25617     49.32220       -108.93397  34.53362    65   %  1.5303
     414    -158.20705     50.01921       -108.18784  35.27974    66   %  1.5322
     421    -158.25705     50.82623       -107.43082  36.03677    67   %  1.5448
     427    -158.28450     51.63986       -106.64465  36.82294    68   %  1.5535
     434    -158.30398     52.68415       -105.61983  37.84776    69   %  1.5660
     440    -158.32222     53.02553       -105.29669  38.17090    70   %  1.5723
     447    -158.32097     53.58726       -104.73371  38.73388    71   %  1.5774
     454    -158.33271     54.10770       -104.22501  39.24258    72   %  1.5838
     461    -158.27432     54.83041       -103.44391  40.02368    73   %  1.5849
     467    -158.27134     55.52597       -102.74537  40.72222    74   %  1.5908
     474    -158.33338     56.40749       -101.92588  41.54170    75   %  1.6032
     480    -158.36688     57.45140       -100.91548  42.55210    76   %  1.6165
     487    -158.37201     57.79457       -100.57744  42.89015    77   %  1.6199
     494    -158.33650     58.29533       -100.04117  43.42641    78   %  1.6189
     501    -158.38202     58.79787        -99.58415  43.88344    79   %  1.6298
     507    -158.38466     59.29629        -99.08837  44.37922    80   %  1.6340
     514    -158.33146     60.03164        -98.29981  45.16777    81   %  1.6340
     521    -158.39001     60.79365        -97.59637  45.87122    82   %  1.6455
     527    -158.30605     61.75085        -96.55520  46.91239    83   %  1.6469
     534    -158.36511     62.70583        -95.65928  47.80831    84   %  1.6580
     541    -158.39969     63.51784        -94.88185  48.58574    85   %  1.6668
     548    -158.41435     63.95376        -94.46059  49.00700    86   %  1.6715
     554    -158.37253     64.42674        -93.94579  49.52180    87   %  1.6714
     561    -158.36974     64.88201        -93.48773  49.97985    88   %  1.6750
     568    -158.43865     65.45176        -92.98689  50.48070    89   %  1.6850
     575    -158.36619     66.14313        -92.22306  51.24452    90   %  1.6844
     581    -158.36343     66.76916        -91.59427  51.87332    91   %  1.6887
     588    -158.44103     67.59739        -90.84364  52.62395    92   %  1.6992
     595    -158.34324     68.73965        -89.60359  53.86400    93   %  1.6996
     602    -158.43916     69.33746        -89.10170  54.36589    94   %  1.7090
     608    -158.43932     69.71214        -88.72718  54.74041    95   %  1.7117
     615    -158.47680     70.16653        -88.31027  55.15732    96   %  1.7208
     622    -158.43639     70.69606        -87.74032  55.72726    97   %  1.7187
     629    -158.47987     71.23783        -87.24204  56.22555    98   %  1.7279
     635    -158.47899     71.78256        -86.69643  56.77116    99   %  1.7310
     642    -158.42191     72.58142        -85.84050  57.62709   100   %  1.7300
     649    -158.48020     73.36474        -85.11547  58.35212   101   %  1.7402
     656    -158.41581     74.33671        -84.07910  59.38849   102   %  1.7396
     662    -158.40541     75.29584        -83.10958  60.35801   103   %  1.7438
     669    -158.47315     75.90709        -82.56606  60.90152   104   %  1.7520
     676    -158.50448     76.36505        -82.13943  61.32815   105   %  1.7604
     683    -158.46357     76.90362        -81.55995  61.90764   106   %  1.7578
     690    -158.50641     77.44469        -81.06172  62.40587   107   %  1.7667
     696    -158.50625     77.98048        -80.52577  62.94182   108   %  1.7695
     703    -158.45455     78.69132        -79.76323  63.70436   109   %  1.7677
     710    -158.50446     79.42502        -79.07944  64.38815   110   %  1.7767
     717    -158.43446     80.47811        -77.95634  65.51124   111   %  1.7753
     723    -158.49697     81.27440        -77.22257  66.24501   112   %  1.7842
     730    -158.49073     81.68008        -76.81065  66.65694   113   %  1.7853
     737    -158.53006     82.14910        -76.38096  67.08663   114   %  1.7936
     744    -158.48588     82.70170        -75.78419  67.68340   115   %  1.7907
     750    -158.47806     83.21887        -75.25919  68.20839   116   %  1.7929
     757    -158.52696     83.87042        -74.65654  68.81104   117   %  1.8015
     764    -158.46491     84.74153        -73.72338  69.74421   118   %  1.7994
     771    -158.52352     85.61847        -72.90505  70.56254   119   %  1.8085
     777    -158.44858     86.80172        -71.64685  71.82073   120   %  1.8071
     784    -158.55047     87.34475        -71.20572  72.26186   121   %  1.8205
     791    -158.51374     87.80377        -70.70996  72.75763   122   %  1.8163
     798    -158.55120     88.28173        -70.26947  73.19812   123   %  1.8242
     805    -158.50377     88.84647        -69.65731  73.81028   124   %  1.8208
     812    -158.54552     89.42126        -69.12425  74.34334   125   %  1.8284
     818    -158.50175     90.05966        -68.44209  75.02550   126   %  1.8265
     825    -158.49302     90.68320        -67.80982  75.65776   127   %  1.8287
     832    -158.50873     91.55797        -66.95076  76.51682   128   %  1.8339
     839    -158.48200     92.46352        -66.01848  77.44910   129   %  1.8352
     845    -158.54134     93.44986        -65.09148  78.37610   130   %  1.8433
     852    -158.53770     94.00877        -64.52893  78.93866   131   %  1.8448
     859    -158.56876     94.44036        -64.12840  79.33918   132   %  1.8523
     866    -158.53220     94.93672        -63.59547  79.87211   133   %  1.8484
     873    -158.56792     95.44890        -63.11902  80.34857   134   %  1.8560
     880    -158.52801     96.02898        -62.49904  80.96855   135   %  1.8529
     886    -158.52680     96.51946        -62.00734  81.46025   136   %  1.8550
     893    -158.56707     97.11720        -61.44988  82.01771   137   %  1.8626
     900    -158.50972     97.92373        -60.58599  82.88159   138   %  1.8594
     907    -158.56087     98.76116        -59.79971  83.66788   139   %  1.8672
     913    -158.55432     99.69274        -58.86158  84.60601   140   %  1.8694
     920    -158.58342    100.53961        -58.04381  85.42378   141   %  1.8772
     927    -158.54819    101.00263        -57.54556  85.92203   142   %  1.8729
     934    -158.58339    101.48097        -57.10243  86.36516   143   %  1.8802
     941    -158.54283    102.01236        -56.53048  86.93711   144   %  1.8766
     948    -158.58170    102.56096        -56.02073  87.44686   145   %  1.8838
     955    -158.53336    103.21542        -55.31794  88.14965   146   %  1.8805
     961    -158.52824    103.79274        -54.73550  88.73209   147   %  1.8823
     968    -158.57657    104.52721        -54.04936  89.41823   148   %  1.8899


 IRC CALCULATION COMPLETE 

 **********************
 *                    *
 * JOB ENDED NORMALLY *
 *                    *
 **********************



 TOTAL JOB TIME:            13.95 SECONDS

 == MOPAC DONE ==
