 *******************************************************************************
 ** Site#: 29054        For non-commercial use only    Version 18.021W 64BITS **
 *******************************************************************************
 ** Cite this program as: MOPAC2016, Version: 18.021W, James J. P. Stewart,   **
 ** Stewart Computational Chemistry, web: HTTP://OpenMOPAC.net. Days left: 365**
 *******************************************************************************
 **                                                                           **
 **                                MOPAC2016                                  **
 **                                                                           **
 *******************************************************************************

                              PM7 CALCULATION RESULTS


 *******************************************************************************
 *  CALCULATION DONE:                                Sun Jan 21 13:00:25 2018  *
 *  GEO_DAT    - DATA SET GEOMETRY IS IN FILE "LOCATE_TS.ARC.TXT"
 *  OPT        - OPTIMIZE COORDINATES OF ALL ATOMS
 *
 *
 *
 *                 CHARGE ON SYSTEM =    -1
 *
 *
 *
 *  EPS= 78.40 - USE ANDREAS KLAMT'S COSMO IMPLICIT SOLVATION MODEL
 *  TS         - USE EF ROUTINE FOR TS SEARCH
 *  T=         - A TIME OF 172800.0 SECONDS REQUESTED
 *  DUMP=N     - RESTART FILE WRITTEN EVERY  7200.000 SECONDS
 *******************************************************************************
geo_dat="locate_TS.arc.txt" ts eps=78.4 opt charge=-1
 Refine transition state for CH3Cl --- Cl(-) <=> Cl(-) --- CH3Cl

   ATOM                 CHEMICAL                   X               Y               Z
  NUMBER                 SYMBOL               (ANGSTROMS)     (ANGSTROMS)     (ANGSTROMS)
 
     1       C(HETATM    1  C   CH3 A   1)   -0.16534796  *  -0.00107146  *  -0.00045557  *
     2       H(HETATM    2 1H   CH3 A   1)   -0.16060833  *   1.08397543  *   0.00954581  *
     3       H(HETATM    3 2H   CH3 A   1)   -0.16148884  *  -0.53480312  *  -0.94524749  *
     4       H(HETATM    4 3H   CH3 A   1)   -0.16141918  *  -0.55275350  *   0.93392228  *
     5      Cl(HETATM    5 CL   CH3 A   1)   -2.33979697  *   0.00108014  *   0.00196308  *
     6      Cl(HETATM    6 CL   CH3 C   1)    2.01615281  *   0.00067524  *   0.00047648  *
 

 General Reference for PM7:
 "Optimization of Parameters for Semiempirical Methods VI: More Modifications to the 
 NDDO Approximations and Re-optimization of Parameters", J. J. P. Stewart, J. Mol. Mod., 1:32, 19 (2013)
 http://www.springerlink.com/openurl.asp?genre=article&id=doi:10.1007/s00894-012-1667-x

           Empirical Formula: C H3 Cl2  =     6 atoms



      MOLECULAR POINT GROUP   :   D3h 


      RHF CALCULATION, NO. OF DOUBLY OCCUPIED LEVELS = 11


          Transition state refinement using EF

          HESSIAN CALCULATED NUMERICALLY

 CYCLE:     1 TIME:   0.184 TIME LEFT:  2.00D  GRAD.:     2.938 HEAT: -143.4409
 CYCLE:     2 TIME:   0.020 TIME LEFT:  2.00D  GRAD.:     0.103 HEAT: -143.4608

     GRADIENT =  0.10273  IS LESS THAN CUTOFF =  1.00000



 -------------------------------------------------------------------------------
 ts eps=78.4 opt charge=-1
 Refine transition state for CH3Cl --- Cl(-) <=> Cl(-) --- CH3Cl



     GEOMETRY OPTIMISED USING EIGENVECTOR FOLLOWING (TS).     
     SCF FIELD WAS ACHIEVED                                   


                              PM7 CALCULATION
                                                       MOPAC2016 (Version: 18.021W)
                                                       Sun Jan 21 13:00:25 2018
                                                       No. of days remaining = 365




          FINAL HEAT OF FORMATION =       -143.46084 KCAL/MOL =    -600.24017 KJ/MOL
          VAN DER WAALS AREA      =        109.08 SQUARE ANGSTROMS


          TOTAL ENERGY            =       -702.29358 EV
          ELECTRONIC ENERGY       =       -445.68275 EV  POINT GROUP:     D3h 
          CORE-CORE REPULSION     =       -256.61083 EV
          DIELECTRIC ENERGY       =         -2.72558 EV
          COSMO AREA              =        109.08 SQUARE ANGSTROMS
          COSMO VOLUME            =         92.06 CUBIC ANGSTROMS

          GRADIENT NORM           =          0.10273
          IONIZATION POTENTIAL    =         10.333657 EV
          HOMO LUMO ENERGIES (EV) =        -10.334 -0.195
          NO. OF FILLED LEVELS    =         11
          MOLECULAR WEIGHT        =         85.9407

          MOLECULAR DIMENSIONS (Angstroms)

            Atom       Atom       Distance
           Cl     6   Cl     5     4.37377
            H     4    H     2     1.88018
            H     4    H     3     1.62767


          SCF CALCULATIONS        =         22
 
          WALL-CLOCK TIME         =          0.219 SECONDS
          COMPUTATION TIME        =          0.764 SECONDS




   ATOM                 CHEMICAL                   X               Y               Z
  NUMBER                 SYMBOL               (ANGSTROMS)     (ANGSTROMS)     (ANGSTROMS)
 
     1       C(HETATM    1  C   CH3 A   1)   -0.16245720  *  -0.00052651  *  -0.00001551  *
     2       H(HETATM    2 1H   CH3 A   1)   -0.16233162  *   1.08472269  *   0.00977229  *
     3       H(HETATM    3 2H   CH3 A   1)   -0.16278673  *  -0.53423634  *  -0.94512425  *
     4       H(HETATM    4 3H   CH3 A   1)   -0.16219802  *  -0.55233400  *   0.93449690  *
     5      Cl(HETATM    5 CL   CH3 A   1)   -2.34922667  *   0.00080542  *   0.00174171  *
     6      Cl(HETATM    6 CL   CH3 C   1)    2.02454065  *   0.00034048  *   0.00028586  *

                             CARTESIAN COORDINATES

   1    C       -0.162457202    -0.000526512    -0.000015512
   2    H       -0.162331622     1.084722694     0.009772294
   3    H       -0.162786729    -0.534236341    -0.945124255
   4    H       -0.162198022    -0.552334003     0.934496903
   5   Cl       -2.349226669     0.000805419     0.001741711
   6   Cl        2.024540653     0.000340481     0.000285859


           Empirical Formula: C H3 Cl2  =     6 atoms



      MOLECULAR POINT GROUP   :   D3h 


                  EIGENVALUES  
 -26.76705 -25.40512 -23.79604 -15.09782 -15.09312 -12.79364 -11.19200 -11.18922
 -11.00160 -10.99886 -10.33366  -0.19519   5.14251   5.41365   5.41492  74.94163
  75.14082  75.14091  75.73951  75.85906  75.85913  76.07394  76.07394  76.24820
  76.24822


              NET ATOMIC CHARGES AND DIPOLE CONTRIBUTIONS

  ATOM NO.                 TYPE                        CHARGE      No. of ELECS.   s-Pop       p-Pop       d-Pop       
    1          C(HETATM    1  C   CH3 A   1)           0.102947        3.8971     1.20441     2.69264
    2          H(HETATM    2 1H   CH3 A   1)           0.160058        0.8399     0.83994
    3          H(HETATM    3 2H   CH3 A   1)           0.160381        0.8396     0.83962
    4          H(HETATM    4 3H   CH3 A   1)           0.160229        0.8398     0.83977
    5         Cl(HETATM    5 CL   CH3 A   1)          -0.791703        7.7917     1.99576     5.79283     0.00311
    6         Cl(HETATM    6 CL   CH3 C   1)          -0.791911        7.7919     1.99576     5.79304     0.00311

          NET CHARGE ON RESIDUES

      Residue         Charge  Anion or
                              Cation?
      CH3 A   1       -0.208
      CH3 C   1       -0.792  ANION
 


 DIPOLE           X         Y         Z       TOTAL
 POINT-CHG.    -0.003    -0.006    -0.005     0.008
 HYBRID        -0.000     0.000    -0.000     0.000
 SUM           -0.003    -0.005    -0.005     0.008


          ATOMIC ORBITAL ELECTRON POPULATIONS

                   Atom                  s        px        py        pz      x^2-y^2     xz        z^2       yz        xy
   C(HETATM    1  C   CH3 A   1)   1.20441   0.42087   1.13579   1.13598
   H(HETATM    2 1H   CH3 A   1)   0.83994
   H(HETATM    3 2H   CH3 A   1)   0.83962
   H(HETATM    4 3H   CH3 A   1)   0.83977
  Cl(HETATM    5 CL   CH3 A   1)   1.99576   1.79288   1.99998   1.99998   0.00160   0.00048   0.00054   0.00001   0.00049
  Cl(HETATM    6 CL   CH3 C   1)   1.99576   1.79309   1.99998   1.99998   0.00160   0.00048   0.00054   0.00001   0.00048
 *******************************************************************************
 ** Site#: 29054        For non-commercial use only    Version 18.021W 64BITS **
 *******************************************************************************
 ** Cite this program as: MOPAC2016, Version: 18.021W, James J. P. Stewart,   **
 ** Stewart Computational Chemistry, web: HTTP://OpenMOPAC.net. Days left: 365**
 *******************************************************************************
 **                                                                           **
 **                                MOPAC2016                                  **
 **                                                                           **
 *******************************************************************************

                              PM7 CALCULATION RESULTS


 *******************************************************************************
 *  CALCULATION DONE:                                Sun Jan 21 13:00:25 2018  *
 *
 *
 *
 *                 CHARGE ON SYSTEM =    -1
 *
 *
 *
 *  EPS= 78.40 - USE ANDREAS KLAMT'S COSMO IMPLICIT SOLVATION MODEL
 *  OLDGEO     - PREVIOUS GEOMETRY TO BE USED
 *  FORCE      - FORCE CALCULATION SPECIFIED
 *  T=         - A TIME OF 172800.0 SECONDS REQUESTED
 *  DUMP=N     - RESTART FILE WRITTEN EVERY  7200.000 SECONDS
 *  ISOTOPE    - FORCE MATRIX WRITTEN TO DISK (CHAN. 9 )
 *******************************************************************************
oldgeo FORCE isotope eps=78.4  charge=-1
 Transition state for CH3Cl --- Cl(-) <=> Cl(-) --- CH3Cl

   ATOM                 CHEMICAL                   X               Y               Z
  NUMBER                 SYMBOL               (ANGSTROMS)     (ANGSTROMS)     (ANGSTROMS)
 
     1       C(HETATM    1  C   CH3 A   1)   -0.16245720  *  -0.00052651  *  -0.00001551  *
     2       H(HETATM    2 1H   CH3 A   1)   -0.16233162  *   1.08472269  *   0.00977229  *
     3       H(HETATM    3 2H   CH3 A   1)   -0.16278673  *  -0.53423634  *  -0.94512425  *
     4       H(HETATM    4 3H   CH3 A   1)   -0.16219802  *  -0.55233400  *   0.93449690  *
     5      Cl(HETATM    5 CL   CH3 A   1)   -2.34922667  *   0.00080542  *   0.00174171  *
     6      Cl(HETATM    6 CL   CH3 C   1)    2.02454065  *   0.00034048  *   0.00028586  *
 

 General Reference for PM7:
 "Optimization of Parameters for Semiempirical Methods VI: More Modifications to the 
 NDDO Approximations and Re-optimization of Parameters", J. J. P. Stewart, J. Mol. Mod., 1:32, 19 (2013)
 http://www.springerlink.com/openurl.asp?genre=article&id=doi:10.1007/s00894-012-1667-x

           Empirical Formula: C H3 Cl2  =     6 atoms



      MOLECULAR POINT GROUP   :   D3h 


      RHF CALCULATION, NO. OF DOUBLY OCCUPIED LEVELS = 11



          HEAT OF FORMATION =    -143.460844 KCALS/MOLE


          CARTESIAN COORDINATE DERIVATIVES

   NUMBER  ATOM         X            Y            Z

     1       C      0.004523    -0.033933    -0.025761
     2       H      0.001256     0.020418     0.004191
     3       H      0.001655    -0.011272     0.013502
     4       H     -0.020721     0.039262     0.007090
     5      Cl     -0.000477     0.045248    -0.023825
     6      Cl      0.013764    -0.059723     0.024809
 


          GRADIENT NORM =   0.10767

          MOLECULAR WEIGHT =   85.94



          ROTATIONAL CONSTANTS IN CM(-1)

          A =    4.73304274   B =    0.04945250   C =    0.04945230



           PRINCIPAL MOMENTS OF INERTIA IN UNITS OF 10**(-40)*GRAM-CM**2

          A =        5.9143   B =      566.0538   C =      566.0560


          ORIENTATION OF MOLECULE IN FORCE CALCULATION

    NO.       ATOM         X         Y         Z

     1          C      -0.0009    0.0008    0.0001
     2          H       1.0844    0.0008    0.0001
     3          H      -0.5431    0.9411    0.0001
     4          H      -0.5443   -0.9386    0.0000
     5         Cl       0.0002   -0.0003    2.1869
     6         Cl       0.0002   -0.0001   -2.1869


    FIRST DERIVATIVES WILL BE USED IN THE CALCULATION OF SECOND DERIVATIVES

    FOR POINT-GROUP D3h  THERE ARE  12 UNIQUE SYMMETRY FUNCTIONS.

 STEP:   1 TIME =     0.01 SECS, INTEGRAL =      0.01 TIME LEFT: 172799.99
 STEP:   2 TIME =     0.02 SECS, INTEGRAL =      0.03 TIME LEFT: 172799.97
 STEP:   3 TIME =     0.02 SECS, INTEGRAL =      0.05 TIME LEFT: 172799.95
 STEP:   4 TIME =     0.01 SECS, INTEGRAL =      0.06 TIME LEFT: 172799.94
 STEP:   5 TIME =     0.02 SECS, INTEGRAL =      0.07 TIME LEFT: 172799.93
 STEP:   6 TIME =     0.03 SECS, INTEGRAL =      0.11 TIME LEFT: 172799.89
 STEP:   7                       INTEGRAL =      0.11 TIME LEFT: 172799.89
 STEP:   8                       INTEGRAL =      0.11 TIME LEFT: 172799.89
 STEP:   9                       INTEGRAL =      0.11 TIME LEFT: 172799.89
 STEP:  10                       INTEGRAL =      0.11 TIME LEFT: 172799.89
 STEP:  11                       INTEGRAL =      0.11 TIME LEFT: 172799.89
 STEP:  12                       INTEGRAL =      0.11 TIME LEFT: 172799.89
 STEP:  13 TIME =     0.02 SECS, INTEGRAL =      0.12 TIME LEFT: 172799.88
 STEP:  14 TIME =     0.01 SECS, INTEGRAL =      0.14 TIME LEFT: 172799.86
 STEP:  15 TIME =     0.02 SECS, INTEGRAL =      0.15 TIME LEFT: 172799.85
 STEP:  16                       INTEGRAL =      0.15 TIME LEFT: 172799.85
 STEP:  17                       INTEGRAL =      0.15 TIME LEFT: 172799.85
 STEP:  18                       INTEGRAL =      0.15 TIME LEFT: 172799.85

(To convert to Hartree/Bohr^2, multiply by (10^(-21) x N x a0^2)/(4.184 x 627.51) =  0.0642)


           FORCE MATRIX IN MILLIDYNES/ANGSTROM


                  C  1       H  2       H  3       H  4      Cl  5      Cl  6
 ------------------------------------------------------------------------------
     C    1   9.265151
     H    2   3.507731   4.042123
     H    3   3.514561   0.406550   4.042123
     H    4   3.510990   0.401414   0.406550   4.042123
    Cl    5   1.135139   0.427546   0.426602   0.428184   0.736855
    Cl    6   1.145230   0.425680   0.425680   0.425680   0.654315   0.736855


          HEAT OF FORMATION =    -143.460844 KCALS/MOLE

          ZERO POINT ENERGY      20.750 KCAL/MOL

         NOTE: SYSTEM IS NOT A GROUND STATE, THEREFORE ZERO POINT
         ENERGY IS NOT MEANINGFULL. ZERO POINT ENERGY PRINTED
         DOES NOT INCLUDE THE  1 IMAGINARY FREQUENCIES


           NORMAL COORDINATE ANALYSIS (Total motion = 1 Angstrom)


   Root No.       1         2         3         4         5         6         7         8

                 1 A2"     1 E'      1 E'      1 A1'     1 E"      1 E"      2 E'      2 E'  

                -558.0     197.1     197.1     254.5    1045.8    1045.8    1258.5    1258.5
  
           1   -0.0000    0.1509    0.1584    0.0000   -0.0000   -0.0000   -0.0304   -0.0528
           2   -0.0000    0.1584   -0.1509    0.0000   -0.0000    0.0000   -0.0581    0.0277
           3    0.7332    0.0000   -0.0000   -0.0000   -0.0000   -0.0000   -0.0000    0.0000
           4   -0.0000    0.1502    0.1578    0.0124    0.0000    0.0000   -0.0174   -0.0281
           5   -0.0000    0.1755   -0.1658   -0.0000    0.0000    0.0000    0.4556   -0.2179
           6    0.0060    0.0000   -0.0000    0.0000   -0.3242   -0.4017    0.0000   -0.0000
           7   -0.0000    0.1675    0.1632   -0.0062    0.0000   -0.0000    0.3861    0.2025
           8   -0.0000    0.1677   -0.1471    0.0108    0.0000   -0.0000    0.2021    0.1490
           9    0.0059    0.0000   -0.0000    0.0000   -0.1705    0.4944    0.0000    0.0000
          10   -0.0000    0.1562    0.1766   -0.0062   -0.0000    0.0000   -0.0353    0.4049
          11   -0.0000    0.1543   -0.1611   -0.0108   -0.0000    0.0000   -0.0206   -0.2341
          12    0.0060    0.0000   -0.0000   -0.0000    0.4947   -0.0928   -0.0000   -0.0000
          13   -0.0001   -0.0323   -0.0339    0.0000   -0.0034   -0.0042    0.0004    0.0007
          14    0.0001   -0.0339    0.0323    0.0000   -0.0041    0.0036    0.0008   -0.0004
          15   -0.1244   -0.0000    0.0000   -0.4814   -0.0000    0.0000    0.0000   -0.0000
          16    0.0001   -0.0323   -0.0339   -0.0000    0.0034    0.0042    0.0004    0.0007
          17   -0.0001   -0.0339    0.0323   -0.0000    0.0041   -0.0036    0.0008   -0.0004
          18   -0.1244   -0.0000    0.0000    0.4814    0.0000   -0.0000    0.0000   -0.0000


   Root No.       9        10        11        12

                 2 A2"     3 E'      3 E'      2 A1' 

                1268.4    2649.2    2649.2    2690.7
  
           1    0.0000   -0.0555    0.0190   -0.0000
           2    0.0000   -0.0198   -0.0534    0.0000
           3   -0.0123   -0.0000   -0.0000   -0.0000
           4   -0.0000    0.4686   -0.1598    0.3331
           5   -0.0000   -0.0074   -0.0233   -0.0001
           6    0.3215    0.0000   -0.0000    0.0000
           7   -0.0000    0.0237   -0.2399   -0.1664
           8   -0.0000   -0.0909    0.4047    0.2885
           9    0.3215   -0.0000    0.0000    0.0000
          10   -0.0000    0.1742    0.1709   -0.1667
          11   -0.0000    0.3360    0.2601   -0.2884
          12    0.3215    0.0000    0.0000   -0.0000
          13   -0.0000   -0.0001    0.0000   -0.0000
          14    0.0000   -0.0000   -0.0001   -0.0000
          15   -0.0116   -0.0000   -0.0000    0.0004
          16    0.0000   -0.0001    0.0000   -0.0000
          17   -0.0000   -0.0000   -0.0001   -0.0000
          18   -0.0116    0.0000   -0.0000   -0.0004


           MASS-WEIGHTED COORDINATE ANALYSIS (NORMAL COORDINATES)


   Root No.       1         2         3         4         5         6         7         8

                 1 A2"     1 E'      1 E'      1 A1'     1 E"      1 E"      2 E'      2 E'  

                -558.0     197.1     197.1     254.5    1045.8    1045.8    1258.5    1258.5
  
           1   -0.0000    0.5545    0.5821    0.0000   -0.0000   -0.0000   -0.1565   -0.2988
           2   -0.0000    0.5821   -0.5545    0.0000   -0.0000    0.0000   -0.2988    0.1565
           3    0.9245    0.0000   -0.0000   -0.0000   -0.0000   -0.0000   -0.0000    0.0000
           4   -0.0000    0.1599    0.1680    0.0031    0.0000    0.0000   -0.0260   -0.0460
           5   -0.0000    0.1869   -0.1765   -0.0000    0.0000    0.0000    0.6784   -0.3573
           6    0.0022    0.0000   -0.0000    0.0000   -0.5252   -0.6224    0.0000   -0.0000
           7   -0.0000    0.1783    0.1737   -0.0015    0.0000   -0.0000    0.5752    0.3314
           8   -0.0000    0.1786   -0.1566    0.0027    0.0000   -0.0000    0.3011    0.2439
           9    0.0022    0.0000   -0.0000    0.0000   -0.2764    0.7660    0.0000    0.0000
          10   -0.0000    0.1663    0.1880   -0.0015   -0.0000    0.0000   -0.0522    0.6633
          11   -0.0000    0.1643   -0.1715   -0.0027   -0.0000    0.0000   -0.0309   -0.3835
          12    0.0022    0.0000   -0.0000   -0.0000    0.8016   -0.1437   -0.0000   -0.0000
          13   -0.0001   -0.2039   -0.2141    0.0000   -0.0330   -0.0390    0.0037    0.0070
          14    0.0001   -0.2141    0.2039    0.0000   -0.0390    0.0330    0.0070   -0.0037
          15   -0.2696   -0.0000    0.0000   -0.7071   -0.0000    0.0000    0.0000   -0.0000
          16    0.0001   -0.2039   -0.2141   -0.0000    0.0330    0.0390    0.0037    0.0070
          17   -0.0001   -0.2141    0.2039   -0.0000    0.0390   -0.0330    0.0070   -0.0037
          18   -0.2696   -0.0000    0.0000    0.7071    0.0000   -0.0000    0.0000   -0.0000


   Root No.       9        10        11        12

                 2 A2"     3 E'      3 E'      2 A1' 

                1268.4    2649.2    2649.2    2690.7
  
           1    0.0000   -0.2980    0.1063   -0.0000
           2    0.0000   -0.1063   -0.2980    0.0000
           3   -0.0750   -0.0000   -0.0000   -0.0000
           4   -0.0000    0.7291   -0.2583    0.5774
           5   -0.0000   -0.0116   -0.0377   -0.0002
           6    0.5671    0.0000   -0.0000    0.0000
           7   -0.0000    0.0369   -0.3878   -0.2885
           8   -0.0000   -0.1414    0.6543    0.5001
           9    0.5671   -0.0000    0.0000    0.0000
          10   -0.0000    0.2711    0.2763   -0.2889
          11   -0.0000    0.5228    0.4205   -0.4999
          12    0.5671    0.0000    0.0000   -0.0000
          13   -0.0001   -0.0007    0.0002   -0.0000
          14    0.0001   -0.0002   -0.0007   -0.0000
          15   -0.1216   -0.0000   -0.0000    0.0038
          16    0.0001   -0.0007    0.0002   -0.0000
          17   -0.0001   -0.0002   -0.0007   -0.0000
          18   -0.1216    0.0000   -0.0000   -0.0038


          DESCRIPTION OF VIBRATIONS


 VIBRATION    1    1A2"     ATOM PAIR        ENERGY CONTRIBUTION    RADIAL
 FREQ.      -558.04        C  1 -- Cl  5          -22.2% (-91.9%)   100.0%
 T-DIPOLE   15.2565        C  1 -- Cl  6          -22.2% (-91.9%)   100.0%
 TRAVEL      0.0912        C  1 --  H  2          -18.5% (-84.1%)     0.0%
 RED. MASS   9.1472        C  1 --  H  4          -18.5% (-84.1%)     0.0%
 EFF. MASS  14.5264        C  1 --  H  3          -18.5% (-84.1%)     0.0%

 VIBRATION    3    1E'      ATOM PAIR        ENERGY CONTRIBUTION    RADIAL
 FREQ.       197.13        C  1 -- Cl  5          +24.3% (390.7%)     0.0%
 T-DIPOLE    1.0653        C  1 -- Cl  6          +24.3% (390.7%)     0.0%
 TRAVEL      0.0580        C  1 --  H  4          +20.8% (361.4%)     6.0%
 RED. MASS   5.5703        C  1 --  H  2          +16.9% (325.9%)    54.5%
 EFF. MASS 101.7561        C  1 --  H  3          +13.6% (292.1%)    92.6%

 VIBRATION    4    1A1'     ATOM PAIR        ENERGY CONTRIBUTION    RADIAL
 FREQ.       254.46        C  1 -- Cl  5          +49.7% ( 51.0%)   100.0%
 T-DIPOLE    0.0000        C  1 -- Cl  6          +49.7% ( 51.0%)   100.0%
 TRAVEL      0.0864        C  1 --  H  2           +0.2% (  3.1%)   100.0%
 RED. MASS  17.7255        C  1 --  H  3           +0.2% (  3.1%)   100.0%
 EFF. MASS  35.5291

 VIBRATION    6    1E"      ATOM PAIR        ENERGY CONTRIBUTION    RADIAL
 FREQ.      1045.79        C  1 --  H  3          +59.0% ( 81.7%)     0.0%
 T-DIPOLE    0.0000        C  1 --  H  2          +38.9% ( 66.3%)     0.0%
 TRAVEL      0.2466        C  1 --  H  4           +2.1% ( 15.3%)     0.0%
 RED. MASS   0.4992
 EFF. MASS   1.0603

 VIBRATION    8    2E'      ATOM PAIR        ENERGY CONTRIBUTION    RADIAL
 FREQ.      1258.50        C  1 --  H  4          +53.5% ( 71.8%)     0.0%
 T-DIPOLE    0.3785        C  1 --  H  3          +18.1% ( 41.8%)    14.1%
 TRAVEL      0.1650        C  1 --  H  2          +14.8% ( 37.7%)    19.5%
 RED. MASS   0.5487        C  1 -- Cl  5           +6.8% ( 25.5%)     0.0%
 EFF. MASS   1.9678

 VIBRATION    9    2A2"     ATOM PAIR        ENERGY CONTRIBUTION    RADIAL
 FREQ.      1268.36        C  1 --  H  2          +33.3% ( 50.1%)     0.0%
 T-DIPOLE    0.9687        C  1 --  H  4          +33.3% ( 50.1%)     0.0%
 TRAVEL      0.1984        C  1 --  H  3          +33.3% ( 50.1%)     0.0%
 RED. MASS   0.3286
 EFF. MASS   1.3508

 VIBRATION   11    3E'      ATOM PAIR        ENERGY CONTRIBUTION    RADIAL
 FREQ.      2649.16        C  1 --  H  3          +61.9% ( 82.0%)    99.8%
 T-DIPOLE    0.8730        C  1 --  H  4          +27.6% ( 54.8%)    91.7%
 TRAVEL      0.1269        C  1 --  H  2           +8.1% ( 29.7%)    66.2%
 RED. MASS   0.5271        C  1 -- Cl  5           +1.2% ( 11.4%)     0.0%
 EFF. MASS   1.5813

 VIBRATION   12    2A1'     ATOM PAIR        ENERGY CONTRIBUTION    RADIAL
 FREQ.      2690.68        C  1 --  H  2          +33.3% ( 55.2%)   100.0%
 T-DIPOLE    0.0000        C  1 --  H  3          +33.3% ( 55.2%)   100.0%
 TRAVEL      0.1577        C  1 --  H  4          +33.3% ( 55.2%)   100.0%
 RED. MASS   0.3359
 EFF. MASS   1.0082

           FORCE CONSTANT IN CARTESIAN COORDINATES (Millidynes/A)

    ATOM   CHEMICAL       X               Y               Z
   NUMBER   SYMBOL  FORCE CONSTANT  FORCE CONSTANT  FORCE CONSTANT

      1       C        6.425451        6.425451       -1.819376
      2       H        3.930614        0.556792        0.737968
      3       H        1.406107        3.081299        0.737968
      4       H        1.394388        3.093017        0.737968
      5      Cl        0.135828        0.135828        0.702592
      6      Cl        0.135828        0.135828        0.702592
 *******************************************************************************
 ** Site#: 29054        For non-commercial use only    Version 18.021W 64BITS **
 *******************************************************************************
 ** Cite this program as: MOPAC2016, Version: 18.021W, James J. P. Stewart,   **
 ** Stewart Computational Chemistry, web: HTTP://OpenMOPAC.net. Days left: 365**
 *******************************************************************************
 **                                                                           **
 **                                MOPAC2016                                  **
 **                                                                           **
 *******************************************************************************

                              PM7 CALCULATION RESULTS


 *******************************************************************************
 *  CALCULATION DONE:                                Sun Jan 21 13:00:25 2018  *
 *
 *
 *
 *                 CHARGE ON SYSTEM =    -1
 *
 *
 *
 *  EPS= 78.40 - USE ANDREAS KLAMT'S COSMO IMPLICIT SOLVATION MODEL
 *  IRC=N      - INTRINSIC REACTION COORDINATE  1 DEFINED
 *  OLDGEO     - PREVIOUS GEOMETRY TO BE USED
 *  RESTART    - CALCULATION RESTARTED
 *  T=         - A TIME OF 172800.0 SECONDS REQUESTED
 *  DUMP=N     - RESTART FILE WRITTEN EVERY  7200.000 SECONDS
 *  HTML       - WRITE HTML SCRIPT TO GENERATE ANIMATION USING JSMOL
 *             - TO DISPLAY IN PDB FORMAT, ADD "PDBOUT"
 *  X-PRIOR    - GEOMETRY CHANGES TAKE PRIORITY IN DRC
 *******************************************************************************
oldgeo irc=1* restart eps=78.4 html charge=-1 x-priority=0.2
 Transition state for CH3Cl --- Cl(-) <=> Cl(-) --- CH3Cl

   ATOM                 CHEMICAL                   X               Y               Z
  NUMBER                 SYMBOL               (ANGSTROMS)     (ANGSTROMS)     (ANGSTROMS)
 
     1       C(HETATM    1  C   CH3 A   1)   -0.16245720  *  -0.00052651  *  -0.00001551  *
     2       H(HETATM    2 1H   CH3 A   1)   -0.16233162  *   1.08472269  *   0.00977229  *
     3       H(HETATM    3 2H   CH3 A   1)   -0.16278673  *  -0.53423634  *  -0.94512425  *
     4       H(HETATM    4 3H   CH3 A   1)   -0.16219802  *  -0.55233400  *   0.93449690  *
     5      Cl(HETATM    5 CL   CH3 A   1)   -2.34922667  *   0.00080542  *   0.00174171  *
     6      Cl(HETATM    6 CL   CH3 C   1)    2.02454065  *   0.00034048  *   0.00028586  *
 

 General Reference for PM7:
 "Optimization of Parameters for Semiempirical Methods VI: More Modifications to the 
 NDDO Approximations and Re-optimization of Parameters", J. J. P. Stewart, J. Mol. Mod., 1:32, 19 (2013)
 http://www.springerlink.com/openurl.asp?genre=article&id=doi:10.1007/s00894-012-1667-x

           Empirical Formula: C H3 Cl2  =     6 atoms



      MOLECULAR POINT GROUP   :   D3h 


      RHF CALCULATION, NO. OF DOUBLY OCCUPIED LEVELS = 11


          MOLECULAR WEIGHT =   85.94


          TIME USED UP TO RESTART =                  0.15

    FOR POINT-GROUP D3h  THERE ARE  12 UNIQUE SYMMETRY FUNCTIONS.

           INITIAL VELOCITY IN DRC (Angstroms/Femtosecond)
        -0.00000        -0.00004         0.73315
        -0.00000        -0.00000         0.00602
        -0.00000        -0.00000         0.00594
        -0.00000        -0.00000         0.00599
        -0.00006         0.00006        -0.12445
         0.00006        -0.00005        -0.12445

 GEOMETRY PRIORITY, STEP = 0.2000 ANGSTROMS



     POINT   POTENTIAL  +  ENERGY LOST   =   TOTAL      ERROR    REF%   MOVEMENT
       1    -143.46085      0.00000       -143.46085   0.00000     1   %  0.0000
      17    -143.78805      1.01332       -142.77473   0.70589     2   %  0.0622
      31    -145.23990      2.96194       -142.27796   1.20267     3   %  0.1463
      44    -148.40504      6.43438       -141.97066   1.50996     4   %  0.2867
      56    -152.02238     10.10240       -141.91999   1.56064     5   %  0.4554
      68    -153.79894     12.20048       -141.59846   1.88217     6   %  0.5855
      81    -154.57163     13.48536       -141.08627   2.39435     7   %  0.6580
      93    -155.07196     14.64365       -140.42831   3.05232     8   %  0.7058
     105    -155.50976     15.88189       -139.62787   3.85275     9   %  0.7481
     117    -155.90844     17.20321       -138.70523   4.77539    10   %  0.7883
     129    -156.21749     18.53338       -137.68411   5.79652    11   %  0.8366
     141    -156.50560     19.98856       -136.51705   6.96358    12   %  0.8940
     154    -156.82572     21.63725       -135.18847   8.29215    13   %  0.9582
     166    -157.01788     23.50396       -133.51392   9.96670    14   %  1.0128
     178    -157.20495     25.41075       -131.79420  11.68643    15   %  1.0651
     190    -157.31697     26.46092       -130.85605  12.62457    16   %  1.0976
     203    -157.48906     27.94654       -129.54253  13.93809    17   %  1.1425
     215    -157.58474     29.95848       -127.62627  15.85436    18   %  1.1837
     228    -157.69423     30.80918       -126.88505  16.59557    19   %  1.2166
     241    -157.72072     32.05024       -125.67048  17.81014    20   %  1.2403
     254    -157.84009     33.71625       -124.12384  19.35678    21   %  1.2770
     267    -157.91807     34.74596       -123.17211  20.30851    22   %  1.3067
     280    -157.91961     35.85910       -122.06051  21.42011    23   %  1.3238
     293    -158.00437     37.40442       -120.59995  22.88068    24   %  1.3549
     306    -158.06715     39.06844       -118.99871  24.48192    25   %  1.3838
     319    -158.06412     40.14000       -117.92412  25.55650    26   %  1.3986
     332    -158.14124     41.54268       -116.59857  26.88206    27   %  1.4245
     345    -158.19983     43.08450       -115.11533  28.36529    28   %  1.4506
     358    -158.17404     44.13410       -114.03994  29.44068    29   %  1.4605
     371    -158.24226     45.52708       -112.71518  30.76545    30   %  1.4838
     384    -158.18646     47.74883       -110.43764  33.04299    31   %  1.5002
     398    -158.29955     48.61881       -109.68074  33.79988    32   %  1.5247
     411    -158.26604     49.72172       -108.54432  34.93631    33   %  1.5331
     424    -158.27329     51.22425       -107.04903  36.43159    34   %  1.5496
     437    -158.34003     52.90906       -105.43097  38.04966    35   %  1.5699
     451    -158.36865     53.78880       -104.57985  38.90077    36   %  1.5859
     464    -158.34202     54.81449       -103.52753  39.95310    37   %  1.5917
     478    -158.31550     56.24199       -102.07350  41.40712    38   %  1.6047
     491    -158.36456     58.05900       -100.30556  43.17507    39   %  1.6235
     504    -158.40356     59.04858        -99.35497  44.12565    40   %  1.6388
     518    -158.41183     60.05763        -98.35420  45.12643    41   %  1.6485
     531    -158.36403     61.24919        -97.11484  46.36578    42   %  1.6529
     545    -158.35580     62.87184        -95.48396  47.99666    43   %  1.6649
     558    -158.41895     64.86084        -93.55811  49.92251    44   %  1.6827
     572    -158.41961     65.90152        -92.51809  50.96253    45   %  1.6908
     585    -158.46176     66.81802        -91.64374  51.83689    46   %  1.7040
     599    -158.46572     67.99231        -90.47341  53.00722    47   %  1.7126
     612    -158.39499     69.57841        -88.81659  54.66404    48   %  1.7160
     625    -158.49215     71.63198        -86.86017  56.62045    49   %  1.7379
     639    -158.45517     72.48671        -85.96846  57.51216    50   %  1.7379
     653    -158.44959     73.65635        -84.79324  58.68739    51   %  1.7454
     666    -158.49394     74.94552        -83.54841  59.93221    52   %  1.7583
     680    -158.49432     76.74698        -81.74734  61.73328    53   %  1.7676
     693    -158.49534     78.56971        -79.92563  63.55499    54   %  1.7764
     707    -158.51062     79.43516        -79.07547  64.40516    55   %  1.7836
     720    -158.47571     80.47476        -78.00095  65.47967    56   %  1.7861
     734    -158.47007     81.88954        -76.58053  66.90010    57   %  1.7934
     747    -158.44831     83.85988        -74.58844  68.89219    58   %  1.8012
     761    -158.51728     84.74713        -73.77016  69.71047    59   %  1.8099
     774    -158.54973     85.71214        -72.83759  70.64303    60   %  1.8203
     788    -158.54752     87.03271        -71.51481  71.96581    61   %  1.8262
     802    -158.54536     88.64174        -69.90362  73.57700    62   %  1.8329


           POTENTIAL ENERGY HAS STOPPED DROPPING

           INITIAL VELOCITY IN DRC (Angstroms/Femtosecond)
         0.00000         0.00004        -0.73315
         0.00000         0.00000        -0.00602
         0.00000         0.00000        -0.00594
         0.00000         0.00000        -0.00599
         0.00006        -0.00006         0.12445
        -0.00006         0.00005         0.12445

 GEOMETRY PRIORITY, STEP = 0.2000 ANGSTROMS



     POINT   POTENTIAL  +  ENERGY LOST   =   TOTAL      ERROR    REF%   MOVEMENT
       1    -143.46085      0.00000       -143.46085   0.00000     1   %  0.0000
      17    -143.79554      1.01338       -142.78216   0.69140     2   %  0.0627
      30    -144.90785      2.70289       -142.20496   1.26860     3   %  0.1324
      43    -148.01544      6.06002       -141.95542   1.51814     4   %  0.2684
      55    -151.50284      9.66228       -141.84055   1.63301     5   %  0.4273
      67    -153.62373     12.02776       -141.59597   1.87759     6   %  0.5746
      80    -154.41184     13.28220       -141.12964   2.34393     7   %  0.6539
      93    -154.96250     14.48564       -140.47686   2.99671     8   %  0.7017
     106    -155.44970     15.68841       -139.76129   3.71227     9   %  0.7499
     118    -155.85681     16.92977       -138.92704   4.54653    10   %  0.7889
     130    -156.19002     18.29532       -137.89471   5.57885    11   %  0.8332
     141    -156.42897     19.78331       -136.64566   6.82790    12   %  0.8835
     153    -156.76213     21.57419       -135.18794   8.28562    13   %  0.9507
     165    -156.89990     23.50208       -133.39783  10.07574    14   %  1.0003
     178    -157.12450     24.65949       -132.46501  11.00855    15   %  1.0467
     191    -157.29057     25.86003       -131.43055  12.04301    16   %  1.0907
     203    -157.37303     27.52770       -129.84533  13.62823    17   %  1.1285
     216    -157.54255     28.63768       -128.90487  14.56869    18   %  1.1705
     228    -157.52250     29.59611       -127.92639  15.54717    19   %  1.2027
     241    -157.57730     30.29989       -127.27741  16.19615    20   %  1.2211
     254    -157.63319     30.98284       -126.65035  16.82322    21   %  1.2424
     267    -157.65137     31.81372       -125.83765  17.63591    22   %  1.2579
     280    -157.74041     32.76720       -124.97321  18.50035    23   %  1.2869
     293    -157.73286     34.13894       -123.59392  19.87964    24   %  1.3076
     306    -157.84085     35.77110       -122.06975  21.40381    25   %  1.3408
     319    -157.91070     36.67370       -121.23699  22.23657    26   %  1.3649
     332    -157.88700     37.92865       -119.95835  23.51521    27   %  1.3803
     345    -157.97566     39.68685       -118.28881  25.18476    28   %  1.4096
     358    -158.03774     40.91743       -117.12031  26.35325    29   %  1.4342
     372    -158.05848     42.10233       -115.95615  27.51741    30   %  1.4521
     385    -158.01383     43.66351       -114.35031  29.12325    31   %  1.4656
     398    -158.08209     45.35083       -112.73126  30.74230    32   %  1.4894
     411    -158.12340     46.33713       -111.78627  31.68729    33   %  1.5088
     424    -158.07880     47.82215       -110.25665  33.21691    34   %  1.5189
     437    -158.14321     49.43011       -108.71310  34.76046    35   %  1.5398
     451    -158.14411     50.45269       -107.69142  35.78214    36   %  1.5521
     464    -158.20011     51.62778       -106.57233  36.90123    37   %  1.5708
     477    -158.12625     53.46729       -104.65896  38.81461    38   %  1.5799
     491    -158.23931     54.54152       -103.69779  39.77578    39   %  1.6014
     504    -158.19888     55.59432       -102.60456  40.86900    40   %  1.6067
     517    -158.19475     57.11475       -101.08001  42.39355    41   %  1.6196
     530    -158.25365     58.92731        -99.32633  44.14723    42   %  1.6376
     544    -158.29417     59.79473        -98.49944  44.97412    43   %  1.6507
     557    -158.29697     61.00731        -97.28966  46.18390    44   %  1.6605
     571    -158.25821     62.62485        -95.63336  47.84021    45   %  1.6683
     584    -158.29127     63.99175        -94.29952  49.17404    46   %  1.6802
     598    -158.28857     64.96089        -93.32768  50.14588    47   %  1.6884
     611    -158.33291     66.05847        -92.27444  51.19912    48   %  1.7020
     625    -158.32533     67.80908        -90.51625  52.95731    49   %  1.7118
     638    -158.32240     68.83286        -89.48955  53.98402    50   %  1.7185
     652    -158.36171     69.75674        -88.60496  54.86860    51   %  1.7305
     665    -158.30814     70.92712        -87.38103  56.09254    52   %  1.7323
     679    -158.27921     72.69612        -85.58310  57.89047    53   %  1.7408
     692    -158.38556     73.98747        -84.39809  59.07547    54   %  1.7582
     706    -158.37049     74.99173        -83.37877  60.09480    55   %  1.7625
     719    -158.33623     76.16220        -82.17403  61.29953    56   %  1.7659
     733    -158.38749     77.57600        -80.81149  62.66207    57   %  1.7785
     746    -158.36196     79.74831        -78.61365  64.85991    58   %  1.7853
     760    -158.41341     80.49979        -77.91362  65.55994    59   %  1.7965
     774    -158.41264     81.58629        -76.82635  66.64721    60   %  1.8018
     787    -158.35190     82.91635        -75.43555  68.03801    61   %  1.8022
     800    -158.31332     84.97175        -73.34157  70.13199    62   %  1.8087
     814    -158.38446     85.84234        -72.54212  70.93144    63   %  1.8176
     828    -158.37027     87.06068        -71.30960  72.16396    64   %  1.8226
     841    -158.42108     88.50574        -69.91535  73.55822    65   %  1.8340


           POTENTIAL ENERGY HAS STOPPED DROPPING


 **********************
 *                    *
 * JOB ENDED NORMALLY *
 *                    *
 **********************



 TOTAL JOB TIME:            13.79 SECONDS

 == MOPAC DONE ==
