 *******************************************************************************
 ** Site#: 29054        For non-commercial use only    Version 18.021W 64BITS **
 *******************************************************************************
 ** Cite this program as: MOPAC2016, Version: 18.021W, James J. P. Stewart,   **
 ** Stewart Computational Chemistry, web: HTTP://OpenMOPAC.net. Days left: 365**
 *******************************************************************************
 **                                                                           **
 **                                MOPAC2016                                  **
 **                                                                           **
 *******************************************************************************

                              PM7 CALCULATION RESULTS


 *******************************************************************************
 *  CALCULATION DONE:                                Sun Jan 21 13:12:32 2018  *
 *  GEO_DAT    - DATA SET GEOMETRY IS IN FILE "FORCE AND IRC STARTING FROM LOCATE-TS.ARC"
 *
 *
 *
 *                 CHARGE ON SYSTEM =    -1
 *
 *
 *
 *  EPS= 78.40 - USE ANDREAS KLAMT'S COSMO IMPLICIT SOLVATION MODEL
 *  IRC=N      - INTRINSIC REACTION COORDINATE  1 DEFINED
 *  DRC        - DYNAMIC REACTION COORDINATE CALCULATION
 *  RESTART    - CALCULATION RESTARTED
 *  T=         - A TIME OF 172800.0 SECONDS REQUESTED
 *  DUMP=N     - RESTART FILE WRITTEN EVERY  7200.000 SECONDS
 *  CYCLES=    - DO A MAXIMUM OF   100 STEPS
 *  HTML       - WRITE HTML SCRIPT TO GENERATE ANIMATION USING JSMOL
 *             - TO DISPLAY IN PDB FORMAT, ADD "PDBOUT"
 *  X-PRIOR    - GEOMETRY CHANGES TAKE PRIORITY IN DRC
 *******************************************************************************
geo_dat="FORCE and IRC starting from LOCATE-TS.arc" +
irc=1* drc restart eps=78.4 html charge=-1 x-priority=0.05 cycles=100
 DRC for Cl(-) + CH3Cl <=> CH3Cl + Cl(-) (Aq)

   ATOM                 CHEMICAL                   X               Y               Z
  NUMBER                 SYMBOL               (ANGSTROMS)     (ANGSTROMS)     (ANGSTROMS)
 
     1       C(HETATM    1  C   CH3 A   1)   -0.16245720     -0.00052651     -0.00001551   
     2       H(HETATM    2 1H   CH3 A   1)   -0.16233162      1.08472269      0.00977229   
     3       H(HETATM    3 2H   CH3 A   1)   -0.16278673     -0.53423634     -0.94512425   
     4       H(HETATM    4 3H   CH3 A   1)   -0.16219802     -0.55233400      0.93449690   
     5      Cl(HETATM    5 CL   CH3 A   1)   -2.34922667      0.00080542      0.00174171   
     6      Cl(HETATM    6 CL   CH3 C   1)    2.02454065      0.00034048      0.00028586   
 

 General Reference for PM7:
 "Optimization of Parameters for Semiempirical Methods VI: More Modifications to the 
 NDDO Approximations and Re-optimization of Parameters", J. J. P. Stewart, J. Mol. Mod., 1:32, 19 (2013)
 http://www.springerlink.com/openurl.asp?genre=article&id=doi:10.1007/s00894-012-1667-x

           Empirical Formula: C H3 Cl2  =     6 atoms



      MOLECULAR POINT GROUP   :   D3h 

   Ion Atom No.           Label               Charge (Distances are between charged sites predicted by Lewis structure theory)
 
    1   C    1   (HETATM    1  C   CH3 A   1)   +1  (2.2 Angstroms from anion Cl    5, Label: HETATM    5 CL   CH3 A   1)
                                                    (2.2 Angstroms from anion Cl    6, Label: HETATM    6 CL   CH3 C   1)
 
    1  Cl    5   (HETATM    5 CL   CH3 A   1)   -1  (2.2 Angstroms from cation  C    1, Label: HETATM    1  C   CH3 A   1)
    2  Cl    6   (HETATM    6 CL   CH3 C   1)   -1  (2.2 Angstroms from cation  C    1, Label: HETATM    1  C   CH3 A   1)

          COMPUTED CHARGE ON SYSTEM: -1

          MOLECULAR WEIGHT =   85.94


          TIME USED UP TO RESTART =                  0.15

    FOR POINT-GROUP D3h  THERE ARE  12 UNIQUE SYMMETRY FUNCTIONS.

           INITIAL VELOCITY IN DRC (Angstroms/Femtosecond)
        -0.00000        -0.00004         0.73315
        -0.00000        -0.00000         0.00602
        -0.00000        -0.00000         0.00594
        -0.00000        -0.00000         0.00599
        -0.00006         0.00006        -0.12445
         0.00006        -0.00005        -0.12445
 THE VIBRATIONAL FREQUENCY (  -558.04CM(-1)) IS TOO SMALL
 FOR ONE QUANTUM TO BE USED
 INSTEAD 0.3KCAL/MOLE WILL BE USED TO START THE IRC

 GEOMETRY PRIORITY, STEP = 0.0500 ANGSTROMS



 FEMTOSECONDS  POINT  POTENTIAL + KINETIC  =   TOTAL     ERROR    REF%   MOVEMENT
     0.000       1  -143.45655    0.30000  -143.15655   0.00000     1   %  0.0000
     6.686      11  -143.60646    0.43786  -143.16860  -0.01205     2   %  0.0447
    11.470      16  -144.04026    0.83008  -143.21018  -0.05363     3   %  0.0926
    14.954      19  -144.78607    1.64135  -143.14473   0.01183     4   %  0.1392
    17.577      21  -145.58713    2.58332  -143.00381   0.15275     5   %  0.1830
    20.574      23  -147.16378    4.06949  -143.09429   0.06227     6   %  0.2459
    22.023      24  -148.26418    4.51684  -143.74734  -0.59077     7   %  0.2846
    23.656      25  -149.25092    6.15876  -143.09216   0.06442     8   %  0.3337
    25.370      26  -150.85770    6.84055  -144.01715  -0.86057     9   %  0.3967
    27.621      27  -152.54213    8.98377  -143.55836  -0.40176    10   %  0.4942
    27.963      28  -152.85441    9.11706  -143.73735  -0.58075    11   %  0.5112
    29.542      29  -153.63877   10.42868  -143.21009  -0.05348    12   %  0.5943
    30.425      31  -153.91018   10.69688  -143.21330  -0.05668    13   %  0.6438
    31.290      33  -153.90217   10.68670  -143.21547  -0.05885    14   %  0.6937
    32.146      34  -153.65669   10.42130  -143.23539  -0.07876    15   %  0.7435
    33.000      37  -153.14767    9.95264  -143.19503  -0.03840    16   %  0.7932
    33.862      39  -152.42594    9.22192  -143.20402  -0.04737    17   %  0.8426
    34.739      41  -151.49366    8.30017  -143.19350  -0.03685    18   %  0.8917
    35.645      43  -150.43279    7.22568  -143.20712  -0.05047    19   %  0.9403
    36.585      45  -149.33663    6.12817  -143.20846  -0.05181    20   %  0.9879
    37.546      47  -148.37127    5.16748  -143.20379  -0.04713    21   %  1.0327
    38.535      48  -147.68993    4.49320  -143.19673  -0.04007    22   %  1.0738
    39.286      50  -147.46222    4.27494  -143.18728  -0.03061    23   %  1.1012
    40.762      52  -147.83532    4.65763  -143.17769  -0.02102    24   %  1.1433
    42.058      53  -149.02742    5.86798  -143.15945  -0.00277    25   %  1.1658
    43.342      55  -150.76096    7.58520  -143.17576  -0.01908    26   %  1.1737
    44.637      58  -152.70555    9.52271  -143.18285  -0.02616    27   %  1.1675
    45.503      60  -153.97223   10.76808  -143.20415  -0.04745    28   %  1.1559
    46.782      63  -155.53067   12.35931  -143.17135  -0.01465    29   %  1.1464
    48.140      66  -156.69299   13.50184  -143.19115  -0.03444    30   %  1.1440
    49.165      68  -157.20229   14.05235  -143.14993   0.00680    31   %  1.1380
    50.097      69  -157.37625   14.16782  -143.20843  -0.05169    32   %  1.1305
    50.993      71  -157.29746   14.13871  -143.15875  -0.00200    33   %  1.1222
    51.887      73  -157.01288   13.81548  -143.19739  -0.04064    34   %  1.1140
    52.787      74  -156.54862   13.37224  -143.17638  -0.01962    35   %  1.1060
    53.707      75  -155.94527   12.73600  -143.20927  -0.05250    36   %  1.0991
    54.565      77  -155.31188   12.10154  -143.21034  -0.05357    37   %  1.0944
    55.325      78  -154.73684   11.49863  -143.23820  -0.08142    38   %  1.0921
    56.961      80  -153.45110   10.22161  -143.22949  -0.07269    39   %  1.0954
    58.647      81  -152.24174    9.02163  -143.22012  -0.06331    40   %  1.1140
    59.735      83  -151.59453    8.37631  -143.21822  -0.06141    41   %  1.1363
    60.754      84  -151.12604    7.90150  -143.22454  -0.06772    42   %  1.1652
    61.823      85  -150.77457    7.55961  -143.21496  -0.05814    43   %  1.2040
    62.946      86  -150.56074    7.36101  -143.19973  -0.04290    44   %  1.2539
    64.126      87  -150.57575    7.31984  -143.25591  -0.09907    45   %  1.3155
    65.471      88  -150.76120    7.54602  -143.21517  -0.05833    46   %  1.3956
    66.246      88  -150.98260    7.74501  -143.23759  -0.08074    47   %  1.4459
    66.950      89  -151.22543    7.99835  -143.22709  -0.07024    48   %  1.4935
    67.666      89  -151.51223    8.30898  -143.20325  -0.04639    49   %  1.5436
    68.331      90  -151.81442    8.62588  -143.18854  -0.03168    50   %  1.5916
    69.006      90  -152.15755    8.97434  -143.18321  -0.02635    51   %  1.6413
    69.660      91  -152.53237    9.33721  -143.19516  -0.03829    52   %  1.6902
    70.315      91  -152.94549    9.72601  -143.21948  -0.06261    53   %  1.7398
    70.970      91  -153.37617   10.13896  -143.23721  -0.08033    54   %  1.7897
    71.615      92  -153.82717   10.58794  -143.23923  -0.08235    55   %  1.8392
    72.264      92  -154.28439   11.03701  -143.24738  -0.09049    56   %  1.8891
    72.914      93  -154.71474   11.48702  -143.22771  -0.07082    57   %  1.9391
    73.562      93  -155.16607   11.93104  -143.23504  -0.07814    58   %  1.9889
    74.218      94  -155.68519   12.37037  -143.31482  -0.15791    59   %  2.0390
    74.868      94  -156.31609   12.73861  -143.57747  -0.42056    60   %  2.0886
    75.533      95  -156.84374   13.35096  -143.49277  -0.33586    61   %  2.1388
    76.194      95  -157.26290   14.11378  -143.14911   0.00781    62   %  2.1879
    76.884      96  -157.67550   14.58457  -143.09094   0.06599    63   %  2.2383
    77.561      96  -158.03209   14.85389  -143.17820  -0.02126    64   %  2.2865
    78.306      98  -158.33342   15.12091  -143.21251  -0.05557    65   %  2.3377
    79.046      99  -158.50998   15.31763  -143.19235  -0.03540    66   %  2.3871
    79.806     101  -158.56244   15.37182  -143.19062  -0.03365    67   %  2.4366
    80.576     102  -158.40274   15.23141  -143.17133  -0.01436    68   %  2.4859
    81.355     104  -158.07452   14.85498  -143.21954  -0.06256    69   %  2.5352
    82.130     106  -157.52951   14.32503  -143.20448  -0.04749    70   %  2.5844
    82.899     107  -156.83824   13.61778  -143.22046  -0.06347    71   %  2.6337
    83.657     109  -155.99186   12.80011  -143.19175  -0.03475    72   %  2.6828
    84.407     110  -155.12044   11.89502  -143.22542  -0.06841    73   %  2.7322
    85.151     111  -154.24733   11.00722  -143.24010  -0.08309    74   %  2.7817
    85.891     113  -153.36330   10.16211  -143.20119  -0.04417    75   %  2.8314
    86.634     114  -152.55293    9.36271  -143.19022  -0.03320    76   %  2.8812
    87.386     115  -151.89982    8.70311  -143.19670  -0.03968    77   %  2.9312
    88.156     116  -151.44605    8.25366  -143.19240  -0.03537    78   %  2.9810
    88.947     117  -151.25146    8.05788  -143.19358  -0.03655    79   %  3.0304
    89.765     118  -151.26534    8.16026  -143.10509   0.05195    80   %  3.0788
    90.617     119  -151.45104    8.47755  -142.97349   0.18356    81   %  3.1258
    91.521     120  -152.08104    8.93810  -143.14294   0.01411    82   %  3.1714
    92.421     121  -152.96967    9.76843  -143.20124  -0.04418    83   %  3.2118
    93.314     123  -153.92904   10.74128  -143.18776  -0.03070    84   %  3.2475
    94.221     124  -154.90908   11.72167  -143.18740  -0.03033    85   %  3.2794
    94.940     126  -155.64171   12.44231  -143.19941  -0.04233    86   %  3.3017
    96.015     128  -156.62536   13.43302  -143.19234  -0.03526    87   %  3.3299
    97.448     130  -157.49949   14.29979  -143.19970  -0.04260    88   %  3.3579
    98.216     132  -157.77157   14.56168  -143.20988  -0.05278    89   %  3.3684
    99.448     134  -157.85354   14.68835  -143.16519  -0.00807    90   %  3.3786
   100.839     136  -157.61798   14.40983  -143.20816  -0.05102    91   %  3.3808
   101.787     137  -157.29328   14.03713  -143.25616  -0.09902    92   %  3.3777
   102.698     138  -156.79645   13.58759  -143.20886  -0.05170    93   %  3.3721
   103.595     139  -156.21584   13.00490  -143.21094  -0.05378    94   %  3.3655
   103.957     140  -155.96267   12.74778  -143.21490  -0.05773    95   %  3.3629
   104.845     141  -155.29735   12.08292  -143.21443  -0.05726    96   %  3.3572
   105.778     142  -154.57105   11.34384  -143.22721  -0.07003    97   %  3.3541
   107.786     144  -152.92490    9.72980  -143.19510  -0.03791    98   %  3.3653
   108.866     145  -152.25422    9.04555  -143.20867  -0.05147    99   %  3.3851
   110.000     146  -151.71207    8.51550  -143.19657  -0.03937   100   %  3.4182


           INITIAL VELOCITY IN DRC (Angstroms/Femtosecond)
         0.00000         0.00004        -0.73315
         0.00000         0.00000        -0.00602
         0.00000         0.00000        -0.00594
         0.00000         0.00000        -0.00599
         0.00006        -0.00006         0.12445
        -0.00006         0.00005         0.12445
 THE VIBRATIONAL FREQUENCY (  -558.04CM(-1)) IS TOO SMALL
 FOR ONE QUANTUM TO BE USED
 INSTEAD 0.3KCAL/MOLE WILL BE USED TO START THE IRC

 GEOMETRY PRIORITY, STEP = 0.0500 ANGSTROMS



 FEMTOSECONDS  POINT  POTENTIAL + KINETIC  =   TOTAL     ERROR    REF%   MOVEMENT
     0.000       1  -143.45655    0.30000  -143.15655   0.00000     1   %  0.0000
     7.188      11  -143.65325    0.48743  -143.16582  -0.00928     2   %  0.0501
    11.470      16  -144.07090    0.88732  -143.18358  -0.02704     3   %  0.0934
    14.954      19  -144.77894    1.49224  -143.28670  -0.13015     4   %  0.1385
    17.577      21  -145.64867    2.32462  -143.32404  -0.16749     5   %  0.1810
    20.468      23  -147.04894    3.60349  -143.44544  -0.28888     6   %  0.2414
    22.023      24  -148.28612    4.67449  -143.61163  -0.45506     7   %  0.2817
    23.656      25  -149.39185    6.52268  -142.86916   0.28741     8   %  0.3326
    25.370      26  -150.90679    7.13875  -143.76805  -0.61146     9   %  0.3967
    27.651      27  -152.59501    9.26590  -143.32911  -0.17251    10   %  0.4946
    28.411      28  -153.12063    9.55313  -143.56750  -0.41090    11   %  0.5318
    30.516      30  -153.76851   10.57244  -143.19608  -0.03946    12   %  0.6436
    31.384      31  -153.68156   10.48993  -143.19163  -0.03501    13   %  0.6931
    32.233      32  -153.34179   10.15853  -143.18327  -0.02663    14   %  0.7425
    33.070      34  -152.80358    9.60673  -143.19685  -0.04022    15   %  0.7916
    33.904      36  -152.05415    8.86274  -143.19142  -0.03477    16   %  0.8404
    34.749      38  -151.15239    7.94977  -143.20262  -0.04597    17   %  0.8888
    35.617      40  -150.13535    6.93957  -143.19578  -0.03913    18   %  0.9368
    36.512      41  -149.06937    5.88796  -143.18141  -0.02475    19   %  0.9836
    37.440      43  -148.11873    4.93434  -143.18439  -0.02773    20   %  1.0281
    38.373      45  -147.45302    4.26664  -143.18638  -0.02972    21   %  1.0678
    39.033      46  -147.21085    4.03146  -143.17939  -0.02273    22   %  1.0925
    40.594      48  -147.51776    4.35433  -143.16343  -0.00677    23   %  1.1374
    41.871      49  -148.68217    5.51076  -143.17140  -0.01473    24   %  1.1591
    43.142      51  -150.39453    7.22680  -143.16774  -0.01106    25   %  1.1666
    44.435      54  -152.36781    9.19542  -143.17239  -0.01571    26   %  1.1603
    45.330      56  -153.68931   10.51687  -143.17244  -0.01575    27   %  1.1483
    46.748      59  -155.46229   12.28426  -143.17803  -0.02133    28   %  1.1276
    47.744      61  -156.36036   13.17981  -143.18055  -0.02384    29   %  1.1251
    49.001      63  -157.05044   13.86120  -143.18925  -0.03252    30   %  1.1163
    49.910      64  -157.22962   14.03809  -143.19152  -0.03479    31   %  1.1071
    50.775      66  -157.19288   14.02264  -143.17024  -0.01350    32   %  1.0969
    51.632      67  -156.94165   13.76035  -143.18130  -0.02455    33   %  1.0863
    52.492      68  -156.53290   13.34306  -143.18984  -0.03309    34   %  1.0758
    53.333      70  -156.01349   12.81593  -143.19756  -0.04080    35   %  1.0664
    54.075      71  -155.48268   12.27926  -143.20342  -0.04665    36   %  1.0595
    54.854      72  -154.87281   11.66909  -143.20372  -0.04694    37   %  1.0541
    55.673      73  -154.21914   10.99817  -143.22096  -0.06418    38   %  1.0513
    58.017      75  -152.38785    9.16047  -143.22738  -0.07058    39   %  1.0645
    59.376      77  -151.38003    8.27858  -143.10146   0.05535    40   %  1.0895
    60.420      78  -150.82653    7.63422  -143.19231  -0.03549    41   %  1.1179
    61.516      79  -150.40081    7.19674  -143.20407  -0.04725    42   %  1.1561
    62.668      80  -150.11902    6.91516  -143.20386  -0.04704    43   %  1.2048
    63.877      81  -150.07170    6.79867  -143.27303  -0.11620    44   %  1.2645
    65.159      82  -150.12625    6.93719  -143.18906  -0.03222    45   %  1.3363
    65.971      82  -150.24604    7.06945  -143.17659  -0.01975    46   %  1.3857
    66.725      83  -150.42367    7.24727  -143.17640  -0.01956    47   %  1.4336
    67.481      83  -150.66390    7.48056  -143.18334  -0.02649    48   %  1.4833
    68.203      84  -150.94741    7.76111  -143.18630  -0.02945    49   %  1.5320
    68.929      84  -151.28660    8.09669  -143.18991  -0.03305    50   %  1.5818
    69.643      85  -151.68654    8.47675  -143.20979  -0.05293    51   %  1.6313
    70.356      85  -152.13166    8.90279  -143.22886  -0.07200    52   %  1.6811
    71.075      86  -152.58668    9.38577  -143.20091  -0.04404    53   %  1.7312
    71.788      86  -153.04955    9.91180  -143.13775   0.01913    54   %  1.7808
    72.519      87  -153.57734   10.44453  -143.13282   0.02406    55   %  1.8312
    73.241      87  -154.18299   10.93713  -143.24586  -0.08898    56   %  1.8806
    73.963      87  -154.79085   11.46535  -143.32550  -0.16861    57   %  1.9290
    74.747      88  -155.48265   12.10684  -143.37581  -0.21891    58   %  1.9805
    75.505      88  -156.12427   12.73900  -143.38528  -0.22837    59   %  2.0293
    76.317      89  -156.78866   13.48489  -143.30377  -0.14686    60   %  2.0804
    77.118      89  -157.38391   14.19173  -143.19217  -0.03525    61   %  2.1299
    77.936      90  -157.85948   14.69868  -143.16081  -0.00388    62   %  2.1800
    78.751      91  -158.20160   14.98732  -143.21428  -0.05734    63   %  2.2297
    79.547      92  -158.38382   15.18421  -143.19961  -0.04266    64   %  2.2790
    80.315      93  -158.37762   15.18203  -143.19559  -0.03864    65   %  2.3280
    81.038      95  -158.19201   15.01626  -143.17575  -0.01879    66   %  2.3756
    81.749      96  -157.82885   14.67425  -143.15460   0.00237    67   %  2.4240
    82.436      98  -157.32009   14.14141  -143.17867  -0.02170    68   %  2.4724
    83.110     100  -156.71755   13.51978  -143.19777  -0.04078    69   %  2.5210
    83.776     101  -155.88524   12.75133  -143.13392   0.02307    70   %  2.5701
    84.440     102  -155.07726   11.88513  -143.19213  -0.03513    71   %  2.6195
    85.107     103  -154.21869   11.02288  -143.19581  -0.03881    72   %  2.6692
    85.783     105  -153.31307   10.13850  -143.17457  -0.01757    73   %  2.7193
    86.466     106  -152.44518    9.26971  -143.17547  -0.01846    74   %  2.7692
    87.159     107  -151.67055    8.49039  -143.18017  -0.02315    75   %  2.8186
    87.864     108  -151.04205    7.85929  -143.18276  -0.02575    76   %  2.8671
    88.581     109  -150.60849    7.42238  -143.18611  -0.02909    77   %  2.9146
    89.311     110  -150.39225    7.21748  -143.17477  -0.01775    78   %  2.9609
    90.062     111  -150.41955    7.25463  -143.16492  -0.00789    79   %  3.0060
    90.322     112  -150.48777    7.32367  -143.16410  -0.00707    80   %  3.0212
    91.695     113  -151.35499    8.14361  -143.21138  -0.05434    81   %  3.0956
    92.546     114  -152.18432    8.99991  -143.18440  -0.02736    82   %  3.1368
    93.347     116  -153.09009    9.91257  -143.17752  -0.02047    83   %  3.1720
    93.867     117  -153.71025   10.53779  -143.17245  -0.01540    84   %  3.1927
    94.884     119  -154.91191   11.73485  -143.17705  -0.01999    85   %  3.2276
    96.354     122  -156.42143   13.23862  -143.18281  -0.02573    86   %  3.2639
    97.335     124  -157.16977   13.98836  -143.18142  -0.02434    87   %  3.2778
    98.408     126  -157.67172   14.50596  -143.16576  -0.00867    88   %  3.2836
    99.582     128  -158.02805   14.72600  -143.30205  -0.14495    89   %  3.2794
   100.653     129  -157.93337   14.75032  -143.18305  -0.02594    90   %  3.2674
   101.434     130  -157.72028   14.51243  -143.20785  -0.05073    91   %  3.2550
   102.188     131  -157.28296   14.17628  -143.10668   0.05045    92   %  3.2414
   102.933     132  -156.81309   13.63537  -143.17772  -0.02058    93   %  3.2272
   103.695     133  -156.24876   13.05573  -143.19303  -0.03589    94   %  3.2131
   103.876     134  -156.09961   12.90947  -143.19014  -0.03299    95   %  3.2100
   104.722     135  -155.32838   12.17935  -143.14902   0.00813    96   %  3.1968
   105.611     136  -154.52038   11.32380  -143.19658  -0.03942    97   %  3.1867
   106.544     137  -153.66913   10.46224  -143.20688  -0.04972    98   %  3.1818
   108.551     139  -152.00523    8.78105  -143.22418  -0.06700    99   %  3.1955
   109.631     140  -151.34272    8.07286  -143.26986  -0.11268   100   %  3.2178



 **********************
 *                    *
 * JOB ENDED NORMALLY *
 *                    *
 **********************



 TOTAL JOB TIME:             3.71 SECONDS

 == MOPAC DONE ==
