 *******************************************************************************
 ** Site#: 29054        For non-commercial use only    Version 18.021W 64BITS **
 *******************************************************************************
 ** Cite this program as: MOPAC2016, Version: 18.021W, James J. P. Stewart,   **
 ** Stewart Computational Chemistry, web: HTTP://OpenMOPAC.net. Days left: 365**
 *******************************************************************************
 **                                                                           **
 **                                MOPAC2016                                  **
 **                                                                           **
 *******************************************************************************

                              PM7 CALCULATION RESULTS


 *******************************************************************************
 *  CALCULATION DONE:                                Sun Jan 21 15:02:04 2018  *
 *  GEO_DAT    - DATA SET GEOMETRY IS IN FILE "CL-CH3CL(-).ARC.TXT"
 *  GEO_REF    - REFERENCE GEOMETRY IS IN FILE "CH3CL-CL(-).ARC.TXT"
 *
 *
 *
 *                 CHARGE ON SYSTEM =    -1
 *
 *
 *
 *  EPS= 78.40 - USE ANDREAS KLAMT'S COSMO IMPLICIT SOLVATION MODEL
 *  LOCATE-TS  - LOCATE A TRANSITION STATE USING REACTANTS AND PRODUCTS
 *  T=         - A TIME OF 172800.0 SECONDS REQUESTED
 *  DUMP=N     - RESTART FILE WRITTEN EVERY  7200.000 SECONDS
 *  GNORM=     - EXIT WHEN GRADIENT NORM DROPS BELOW  1.000    
 *  HTML       - WRITE HTML SCRIPT TO READ PDB FILE USING JSMOL
 *******************************************************************************
geo_ref="CH3Cl-Cl(-).arc.txt" +
geo_dat="Cl-CH3Cl(-).arc.txt" +
locate-ts(C:30,120;SET:1)  charge=-1 eps=78.4 gnorm=1  charge=-1 HTML
 Transition state for CH3Cl --- Cl(-) <=> Cl(-) --- CH3Cl

   ATOM                 CHEMICAL                   X               Y               Z
  NUMBER                 SYMBOL               (ANGSTROMS)     (ANGSTROMS)     (ANGSTROMS)
 
     1       C(HETATM    1  C   CH3 A   1)    0.55845159  *  -0.00013217  *   0.00180992  *
     2       H(HETATM    2 1H   CH3 A   1)    0.22249628  *   1.03968690  *   0.01091185  *
     3       H(HETATM    3 2H   CH3 A   1)    0.22292062  *  -0.51236658  *  -0.90315061  *
     4       H(HETATM    4 3H   CH3 A   1)    0.22342181  *  -0.52755682  *   0.89833230  *
     5      Cl(HETATM    5 CL   CH3 A   1)   -2.60089915  *   0.00009927  *   0.00054775  *
     6      Cl(HETATM    6 CL   CH3 C   1)    2.34721562  *   0.00004213  *   0.00101193  *
 

                        After docking

                     Atoms that move a lot

                     Atom Label             GEO_REF Coordinates       Movement    Integral

            (HETATM    1  C   CH3 A   1)  -0.557  -0.000   0.000        0.79         0.79
            (HETATM    5 CL   CH3 A   1)  -2.346  -0.000  -0.000        0.58         1.37
            (HETATM    6 CL   CH3 C   1)   2.596  -0.000  -0.000        0.57         1.95
            (HETATM    4 3H   CH3 A   1)  -0.226  -0.530   0.897        0.12         2.07
            (HETATM    3 2H   CH3 A   1)  -0.225  -0.513  -0.906        0.12         2.19
            (HETATM    2 1H   CH3 A   1)  -0.223   1.041   0.010        0.12         2.31

   Difference between GEO_DAT and GEO_REF:   2.311 = total,  0.3852 = Average,  0.4719 = RMS, in Angstroms

    The rotated-translated input geometry will be written to: 'M:\OpenMOPAC_NET\Manual\Individual JSmol paths\Cl-CH3-Cl\Cl-CH3Cl(-).new'

 General Reference for PM7:
 "Optimization of Parameters for Semiempirical Methods VI: More Modifications to the 
 NDDO Approximations and Re-optimization of Parameters", J. J. P. Stewart, J. Mol. Mod., 1:32, 19 (2013)
 http://www.springerlink.com/openurl.asp?genre=article&id=doi:10.1007/s00894-012-1667-x

           Empirical Formula: C H3 Cl2  =     6 atoms



      MOLECULAR POINT GROUP   :   C3v 

   Ion Atom No.           Label               Charge (Distances are between charged sites predicted by Lewis structure theory)
 
    1  Cl    5   (HETATM    5 CL   CH3 A   1)   -1

          COMPUTED CHARGE ON SYSTEM: -1

 Set 1: Atoms involved in covalent bond-breaking and bond-making                  Connectivity of atoms

                                                                             Data-set                  Reference
                                     (PDB labels from GEO-REF)
   1    Atom:   C     1  PDB Label: (HETATM    1  C   CH3 A   1)           2     3     4     6        2     3     4     5
   2    Atom:  Cl     5  PDB Label: (HETATM    5 CL   CH3 A   1)                                      1
   3    Atom:  Cl     6  PDB Label: (HETATM    6 CL   CH3 C   1)           1

 Set 2 : Atoms involved in covalent bond-breaking and bond-making, plus nearest neighbors

   1    Atom:   C     1  PDB Label: (HETATM    1  C   CH3 A   1 )
   2    Atom:  Cl     5  PDB Label: (HETATM    5 CL   CH3 A   1 )
   3    Atom:  Cl     6  PDB Label: (HETATM    6 CL   CH3 C   1 )
   4    Atom:   H     2  PDB Label: (HETATM    2 1H   CH3 A   1 )
   5    Atom:   H     3  PDB Label: (HETATM    3 2H   CH3 A   1 )
   6    Atom:   H     4  PDB Label: (HETATM    4 3H   CH3 A   1 )

          Set 1 selected by keywork 'SET' within keyword 'LOCATE-TS'

          Constraining constant: 30.00 Kcal/mol/Angstrom^2


          Current value of GEO_REF constraint:               30.00  Kcal/mol/Angstrom^2
          Distance between the geometries:                    2.31  Angstroms

          Heat of formation of the first geometry:         -158.402 Kcal/mol
          Heat of formation of the second geometry:        -158.630 Kcal/mol
          Contribution to heat of formation due to stress:   80.16  Kcal/mol
          Gradient arising from first geometry:             138.48  Kcal/mol/Angstrom
          Gradient arising from second geometry:            138.19  Kcal/mol/Angstrom
          Angle between gradient vectors:                   179.38  degrees

 CYCLE:     1 TIME:   0.016 TIME LEFT:  2.00D  GRAD.:    97.560 HEAT: -236.8690
 CYCLE:     2 TIME:   0.016 TIME LEFT:  2.00D  GRAD.:    96.533 HEAT: -237.0613
 CYCLE:     3 TIME:   0.016 TIME LEFT:  2.00D  GRAD.:    50.312 HEAT: -249.2586
 CYCLE:     4 TIME:   0.016 TIME LEFT:  2.00D  GRAD.:    56.485 HEAT: -259.6548
 CYCLE:     5 TIME:   0.016 TIME LEFT:  2.00D  GRAD.:    56.478 HEAT: -269.2369
 CYCLE:     6 TIME:   0.016 TIME LEFT:  2.00D  GRAD.:   175.996 HEAT: -267.9898
 CYCLE:     7 TIME:   0.016 TIME LEFT:  2.00D  GRAD.:    32.119 HEAT: -276.4475
 CYCLE:     8 TIME:   0.000 TIME LEFT:  2.00D  GRAD.:    13.683 HEAT: -276.8712
 CYCLE:     9 TIME:   0.016 TIME LEFT:  2.00D  GRAD.:     7.183 HEAT: -277.0381
 CYCLE:    10 TIME:   0.016 TIME LEFT:  2.00D  GRAD.:     3.168 HEAT: -276.8433
 CYCLE:    11 TIME:   0.016 TIME LEFT:  2.00D  GRAD.:     0.887 HEAT: -277.0253

     GRADIENT =  0.88671 IS LESS THAN CUTOFF =  1.00000



          First geometry (derived from data-set) after optimization subject to 
          GEO_REF constraint of 30.0 Kcal/mol/Angstrom^2 towards the reference geometry written to file:
          'M:\OpenMOPAC_NET\Manual\Individual JSmol paths\Cl-CH3-Cl\Locate_TS 30p0 first.mop'


          Second geometry (derived from reference geometry)after optimization subject to 
          GEO_REF constraint of 30.0 Kcal/mol/Angstrom^2 towards the data-set geometry written to file:
          'M:\OpenMOPAC_NET\Manual\Individual JSmol paths\Cl-CH3-Cl\Locate_TS 30p0 second.mop'


          Job name: 'M:\OpenMOPAC_NET\Manual\Individual JSmol paths\Cl-CH3-Cl\Locate_TS'
          Current value of GEO_REF constraint:               30.00  Kcal/mol/Angstrom^2
          Distance between the geometries:                    1.23  Angstroms

                     Atoms that move a lot

                     Atom Label             GEO_REF Coordinates       Movement    Integral

            (HETATM    1  C   CH3 A   1)  -0.470  -0.001  -0.000        0.61         0.61
            (HETATM    5 CL   CH3 A   1)  -2.290  -0.000   0.001        0.29         0.91
            (HETATM    6 CL   CH3 C   1)   2.252  -0.001  -0.000        0.29         1.19
            (HETATM    3 2H   CH3 A   1)  -0.157  -0.514  -0.910        0.0119       1.20
            (HETATM    2 1H   CH3 A   1)  -0.157   1.045   0.010        0.0119       1.22
            (HETATM    4 3H   CH3 A   1)  -0.158  -0.532   0.900        0.0106       1.23

          Heat of formation of the first geometry:         -154.802 Kcal/mol
          Heat of formation of the second geometry:        -154.906 Kcal/mol
          Contribution to heat of formation due to stress:   32.68  Kcal/mol
          Gradient arising from first geometry:              44.12  Kcal/mol/Angstrom
          Gradient arising from second geometry:             44.23  Kcal/mol/Angstrom
          Angle between gradient vectors:                   178.89  degrees

          Average of first and second geometries after optimization subject to 
          GEO_REF constraint of 30.0 Kcal/mol/Angstrom^2 towards the data-set geometry written to file:
          'M:\OpenMOPAC_NET\Manual\Individual JSmol paths\Cl-CH3-Cl\Locate_TS 30p0 average.mop'


          Constraining constant: 120.00 Kcal/mol/Angstrom^2

 CYCLE:     1 TIME:   0.031 TIME LEFT:  2.00D  GRAD.:   215.352 HEAT: -181.2391
 CYCLE:     2 TIME:   0.016 TIME LEFT:  2.00D  GRAD.:   211.950 HEAT: -181.9982
 CYCLE:     3 TIME:   0.016 TIME LEFT:  2.00D  GRAD.:    47.319 HEAT: -216.1450
 CYCLE:     4 TIME:   0.016 TIME LEFT:  2.00D  GRAD.:   196.007 HEAT: -197.9038
 CYCLE:     5 TIME:   0.016 TIME LEFT:  2.00D  GRAD.:   210.701 HEAT: -182.2960
 CYCLE:     6 TIME:   0.016 TIME LEFT:  2.00D  GRAD.:   177.201 HEAT: -182.4458
 CYCLE:     7 TIME:   0.016 TIME LEFT:  2.00D  GRAD.:   186.138 HEAT: -196.8103
 CYCLE:     8 TIME:   0.016 TIME LEFT:  2.00D  GRAD.:   125.130 HEAT: -220.5431
 CYCLE:     9 TIME:   0.016 TIME LEFT:  2.00D  GRAD.:   115.954 HEAT: -220.5112
 CYCLE:    10 TIME:   0.016 TIME LEFT:  2.00D  GRAD.:   111.408 HEAT: -221.2402
 CYCLE:    11 TIME:   0.016 TIME LEFT:  2.00D  GRAD.:   113.353 HEAT: -221.7930
 CYCLE:    12 TIME:   0.016 TIME LEFT:  2.00D  GRAD.:   112.126 HEAT: -222.3869
 CYCLE:    13 TIME:   0.016 TIME LEFT:  2.00D  GRAD.:   113.809 HEAT: -222.7194
 CYCLE:    14 TIME:   0.016 TIME LEFT:  2.00D  GRAD.:   113.228 HEAT: -222.5800
 CYCLE:    15 TIME:   0.000 TIME LEFT:  2.00D  GRAD.:   113.024 HEAT: -222.5566
 CYCLE:    16 TIME:   0.016 TIME LEFT:  2.00D  GRAD.:   113.182 HEAT: -222.5582
 CYCLE:    17 TIME:   0.016 TIME LEFT:  2.00D  GRAD.:    59.898 HEAT: -233.4559
 CYCLE:    18 TIME:   0.016 TIME LEFT:  2.00D  GRAD.:    26.471 HEAT: -240.1300
 CYCLE:    19 TIME:   0.016 TIME LEFT:  2.00D  GRAD.:    19.454 HEAT: -238.9748
 CYCLE:    20 TIME:   0.016 TIME LEFT:  2.00D  GRAD.:     8.349 HEAT: -237.3011
 CYCLE:    21 TIME:   0.016 TIME LEFT:  2.00D  GRAD.:     4.788 HEAT: -237.1287
 CYCLE:    22 TIME:   0.016 TIME LEFT:  2.00D  GRAD.:     3.182 HEAT: -237.4910
 CYCLE:    23 TIME:   0.016 TIME LEFT:  2.00D  GRAD.:     1.594 HEAT: -237.6110
 CYCLE:    24 TIME:   0.000 TIME LEFT:  2.00D  GRAD.:     0.800 HEAT: -237.5321

     GRADIENT =  0.80045 IS LESS THAN CUTOFF =  1.00000



          First geometry (derived from data-set) after optimization subject to 
          GEO_REF constraint of 120.0 Kcal/mol/Angstrom^2 towards the reference geometry written to file:
          'M:\OpenMOPAC_NET\Manual\Individual JSmol paths\Cl-CH3-Cl\Locate_TS 120p0 first.mop'


          Second geometry (derived from reference geometry)after optimization subject to 
          GEO_REF constraint of 120.0 Kcal/mol/Angstrom^2 towards the data-set geometry written to file:
          'M:\OpenMOPAC_NET\Manual\Individual JSmol paths\Cl-CH3-Cl\Locate_TS 120p0 second.mop'


          Job name: 'M:\OpenMOPAC_NET\Manual\Individual JSmol paths\Cl-CH3-Cl\Locate_TS'
          Current value of GEO_REF constraint:              120.00  Kcal/mol/Angstrom^2
          Distance between the geometries:                    0.86  Angstroms

                     Atoms that move a lot

                     Atom Label             GEO_REF Coordinates       Movement    Integral

            (HETATM    1  C   CH3 A   1)  -0.380  -0.001  -0.000        0.43         0.43
            (HETATM    6 CL   CH3 C   1)   2.093   0.001   0.001        0.15         0.58
            (HETATM    5 CL   CH3 A   1)  -2.263   0.001   0.002        0.15         0.74
            (HETATM    3 2H   CH3 A   1)  -0.143  -0.523  -0.923        0.0410       0.78
            (HETATM    2 1H   CH3 A   1)  -0.143   1.059   0.009        0.0409       0.82
            (HETATM    4 3H   CH3 A   1)  -0.144  -0.541   0.913        0.0406       0.86

          Heat of formation of the first geometry:         -147.273 Kcal/mol
          Heat of formation of the second geometry:        -147.156 Kcal/mol
          Contribution to heat of formation due to stress:   56.90  Kcal/mol
          Gradient arising from first geometry:             116.82  Kcal/mol/Angstrom
          Gradient arising from second geometry:            117.07  Kcal/mol/Angstrom
          Angle between gradient vectors:                   179.68  degrees

          Average of first and second geometries after optimization subject to 
          GEO_REF constraint of 120.0 Kcal/mol/Angstrom^2 towards the data-set geometry written to file:
          'M:\OpenMOPAC_NET\Manual\Individual JSmol paths\Cl-CH3-Cl\Locate_TS 120p0 average.mop'

  Loop:   1  Energy minimization, excluding active site, using L-BFGS
 CYCLE:     1 TIME:   0.062 TIME LEFT:  2.00D  GRAD.:    27.756 HEAT: -142.8108
 CYCLE:     2 TIME:   0.016 TIME LEFT:  2.00D  GRAD.:    27.697 HEAT: -142.8240
 CYCLE:     3 TIME:   0.016 TIME LEFT:  2.00D  GRAD.:   109.837 HEAT: -131.5028
 CYCLE:     4 TIME:   0.016 TIME LEFT:  2.00D  GRAD.:    27.943 HEAT: -142.8216
 CYCLE:     5 TIME:   0.000 TIME LEFT:  2.00D  GRAD.:   110.905 HEAT: -131.2369
 CYCLE:     6 TIME:   0.016 TIME LEFT:  2.00D  GRAD.:     4.362 HEAT: -143.4206
 CYCLE:     7 TIME:   0.016 TIME LEFT:  2.00D  GRAD.:     0.593 HEAT: -143.4406

     GRADIENT =  0.59273 IS LESS THAN CUTOFF =  1.00000


  Loop:   1  Gradient minimization of atoms in the active site using TS

          Transition state on cycle 1 written to file:
          'M:\OpenMOPAC_NET\Manual\Individual JSmol paths\Cl-CH3-Cl\Locate_TS Loop1.mop'


     GRADIENT =  2.96180  IS LESS THAN CUTOFF =  3.00000


  Loop:   2  Energy minimization, excluding active site, using L-BFGS
 CYCLE:     1 TIME:   0.016 TIME LEFT:  2.00D  GRAD.:     0.555 HEAT: -143.4409

     GRADIENT =  0.55469 IS LESS THAN CUTOFF =  1.00000


  Loop:   2  Gradient minimization of atoms in the active site using TS

          Transition state on cycle 2 written to file:
          'M:\OpenMOPAC_NET\Manual\Individual JSmol paths\Cl-CH3-Cl\Locate_TS Loop2.mop'


     GRADIENT =  2.89014  IS LESS THAN CUTOFF =  3.00000



 -------------------------------------------------------------------------------
 eo_ref="CH3Cl-Cl(-).arc.txt" charge=-1 eps=78.4 gnorm=1 charge=-1 HTML MOZYME
 Transition state for CH3Cl --- Cl(-) <=> Cl(-) --- CH3Cl



     GRADIENTS WERE INITIALLY ACCEPTABLY SMALL                
     SCF FIELD WAS ACHIEVED                                   


                              PM7 CALCULATION
                                                       MOPAC2016 (Version: 18.021W)
                                                       Sun Jan 21 15:02:05 2018
                                                       No. of days remaining = 365




          FINAL HEAT OF FORMATION =       -143.44091 KCAL/MOL =    -600.15679 KJ/MOL
          VAN DER WAALS AREA      =        108.70 SQUARE ANGSTROMS


          TOTAL ENERGY            =       -702.29278 EV
          ELECTRONIC ENERGY       =      -1608.74153 EV
          CORE-CORE REPULSION     =        857.99891 EV
          DIELECTRIC ENERGY       =         -2.72030 EV
          COSMO AREA              =        108.70 SQUARE ANGSTROMS
          COSMO VOLUME            =         91.77 CUBIC ANGSTROMS

          GRADIENT NORM           =          2.89014
          NO. OF FILLED LEVELS    =         11
          MOLECULAR WEIGHT        =         85.9407

          MOLECULAR DIMENSIONS (Angstroms)

            Atom       Atom       Distance
           Cl     6   Cl     5     4.35595
            H     2    H     4     1.87972
            H     3    H     2     1.62742


          SCF CALCULATIONS        =         16
 



       FINAL  POINT  AND  DERIVATIVES

                                         Cartesian Gradients         Cartesian Coordinates          |Gradient|
  Atom                                   X        Y        Z        X          Y          Z
 
    1  C(HETATM    1  C   CH3 A   1)    0.897   -0.029   -0.077   -0.16535   -0.00107   -0.00046       0.900
    5 Cl(HETATM    5 CL   CH3 A   1)    1.139    0.004   -0.004   -2.33980    0.00108    0.00196       1.139
    6 Cl(HETATM    6 CL   CH3 C   1)   -2.498    0.043    0.060    2.01615    0.00068    0.00048       2.499
 

              GRADIENTS FOR ALL GROUPS

                Group       Gradient
 
              CH3    1        1.452
              CH3    1        2.499




   ATOM                 CHEMICAL                   X               Y               Z
  NUMBER                 SYMBOL               (ANGSTROMS)     (ANGSTROMS)     (ANGSTROMS)
 
     1       C(HETATM    1  C   CH3 A   1)   -0.16534796  *  -0.00107146  *  -0.00045557  *
     2       H(HETATM    2 1H   CH3 A   1)   -0.16060833      1.08397543      0.00954581   
     3       H(HETATM    3 2H   CH3 A   1)   -0.16148884     -0.53480312     -0.94524749   
     4       H(HETATM    4 3H   CH3 A   1)   -0.16141918     -0.55275350      0.93392228   
     5      Cl(HETATM    5 CL   CH3 A   1)   -2.33979697  *   0.00108014  *   0.00196308  *
     6      Cl(HETATM    6 CL   CH3 C   1)    2.01615281  *   0.00067524  *   0.00047648  *

                             CARTESIAN COORDINATES

   1    C       -0.165347958    -0.001071463    -0.000455573
   2    H       -0.160608331     1.083975432     0.009545813
   3    H       -0.161488844    -0.534803122    -0.945247490
   4    H       -0.161419177    -0.552753502     0.933922277
   5   Cl       -2.339796972     0.001080143     0.001963084
   6   Cl        2.016152808     0.000675239     0.000476476


           Empirical Formula: C H3 Cl2  =     6 atoms



              NET ATOMIC CHARGES AND DIPOLE CONTRIBUTIONS

  ATOM NO.                 TYPE                        CHARGE      No. of ELECS.   s-Pop       p-Pop       d-Pop       
    1          C(HETATM    1  C   CH3 A   1)           0.098935        3.9011     1.20326     2.69781
    2          H(HETATM    2 1H   CH3 A   1)           0.159566        0.8404     0.84043
    3          H(HETATM    3 2H   CH3 A   1)           0.159971        0.8400     0.84003
    4          H(HETATM    4 3H   CH3 A   1)           0.159751        0.8402     0.84025
    5         Cl(HETATM    5 CL   CH3 A   1)          -0.784622        7.7846     1.99558     5.78589     0.00315
    6         Cl(HETATM    6 CL   CH3 C   1)          -0.793602        7.7936     1.99575     5.79473     0.00313

          NET CHARGE ON RESIDUES

      Residue         Charge  Anion or
                              Cation?
      CH3 A   1       -0.206
      CH3 C   1       -0.794  ANION
 


 DIPOLE           X         Y         Z       TOTAL
 POINT-CHG.    -0.096    -0.009    -0.007     0.097
 HYBRID        -0.003     0.000     0.000     0.003
 SUM           -0.100    -0.008    -0.007     0.100


          ATOMIC ORBITAL ELECTRON POPULATIONS

                   Atom                  s        px        py        pz      x^2-y^2     xz        z^2       yz        xy
    1  C(HETATM    1  C   CH3 A   1)   1.20326   0.42623   1.13567   1.13591
    2  H(HETATM    2 1H   CH3 A   1)   0.84043
    3  H(HETATM    3 2H   CH3 A   1)   0.84003
    4  H(HETATM    4 3H   CH3 A   1)   0.84025
    5 Cl(HETATM    5 CL   CH3 A   1)   1.99558   1.78594   1.99998   1.99998   0.00161   0.00049   0.00054   0.00001   0.00049
    6 Cl(HETATM    6 CL   CH3 C   1)   1.99575   1.79478   1.99998   1.99998   0.00160   0.00049   0.00054   0.00001   0.00049

 **********************
 *                    *
 * JOB ENDED NORMALLY *
 *                    *
 **********************



 TOTAL JOB TIME:             0.92 SECONDS

 == MOPAC DONE ==
