 *******************************************************************************
 ** Site#: 37037        For non-commercial use only           Version 21.178W **
 *******************************************************************************
 ** Cite this program as: MOPAC2016, Version: 21.178W, James J. P. Stewart,   **
 ** Stewart Computational Chemistry, web: HTTP://OpenMOPAC.net. Days left: 365**
 *******************************************************************************
 **                                                                           **
 **                                MOPAC2016                                  **
 **                                                                           **
 *******************************************************************************

                              PM7 CALCULATION RESULTS

 *******************************************************************************
 *  CALCULATION DONE:                                Sun Jun 27 15:44:37 2021  *
 *  TRIPLET    - SPIN STATE DEFINED AS A TRIPLET
 *  SYMMETRY   - SYMMETRY CONDITIONS TO BE IMPOSED
 *  OPEN(N,N)  - THERE ARE 2 ELECTRONS IN 2 LEVELS
 *  STEP       - STEP-SIZE IN PATH =   0.200
 *  POINT      - NUMBER OF POINTS IN PATH =100
 *  T=         - A TIME OF 172800.0 SECONDS REQUESTED
 *  DUMP=N     - RESTART FILE WRITTEN EVERY 7200.0 SECONDS REQUESTED
 *  HTML       - WRITE HTML SCRIPT TO GENERATE ANIMATION USING JSMOL
 *             - TO DISPLAY IN PDB FORMAT, ADD "PDBOUT"
 *******************************************************************************



                    PARAMETER DEPENDENCE DATA

        REFERENCE ATOM      FUNCTION NO.    DEPENDENT ATOM(S)
            3                  1               4    5    6
            3                  2               4    5    6

             DESCRIPTIONS OF THE FUNCTIONS USED
   1      BOND LENGTH    IS SET EQUAL TO THE REFERENCE BOND LENGTH   
   2      BOND ANGLE     IS SET EQUAL TO THE REFERENCE BOND ANGLE    
 
 SYMMETRY html step=0.2 points=100 open(2,2) TRIPLET
 Rotation of Ethylene, CH2 group rotated about the C-C axis. Simple C.I. mixing the pi-M.O.s, showing the TRIPLET surface near the top of the barrier.
 (Keywords: SYMMETRY html step=0.2 points=100 open(2,2) TRIPLET)
  ATOM               CHEMICAL                 BOND LENGTH      BOND ANGLE     TWIST ANGLE 
 NUMBER               SYMBOL                  (ANGSTROMS)      (DEGREES)       (DEGREES) 
   (I)                                           NA:I           NB:NA:I       NC:NB:NA:I       NA    NB    NC 
     1       C(HETATM    1  C1  HET A   1)    0.00000000       0.0000000       0.0000000   
     2       C(HETATM    2  C2  HET A   1)    1.32958102  *    0.0000000       0.0000000        1     0     0
     3       H(HETATM    3 1H2  HET A   1)    1.07987472  *  123.6578309  *    0.0000000        2     1     0
     4       H(HETATM    4 2H2  HET A   1)    1.07987472     123.6578309     180.0000000        2     1     3
     5       H(HETATM    5 1H1  HET A   1)    1.07987472     123.6578309      80.0000000  +     1     2     3
     6       H(HETATM    6 2H1  HET A   1)    1.07987472     123.6578309     180.0000000        1     2     5
 

 General Reference for PM7:
 "Optimization of Parameters for Semiempirical Methods VI: More Modifications to the 
 NDDO Approximations and Re-optimization of Parameters", J. J. P. Stewart, J. Mol. Mod., 1:32, 19 (2013)
 https://link.springer.com/article/10.1007/s00894-012-1667-x

           Empirical Formula: C2 H4  =     6 atoms



      MOLECULAR POINT GROUP   :   D2  


 TRIPLET STATE CALCULATION

      THERE ARE    5 DOUBLY FILLED LEVELS


      RHF CALCULATION, NO. OF DOUBLY OCCUPIED LEVELS = 5


                       NO. OF SINGLY OCCUPIED LEVELS =    2
  ABOUT TO ENTER EF FROM PATHK

          Geometry optimization using EF

          DIAGONAL MATRIX USED AS START HESSIAN

 CYCLE:     1 TIME:   0.000 TIME LEFT:  2.00D  GRAD.:   111.905 HEAT:  56.42865
 CYCLE:     2 TIME:   0.000 TIME LEFT:  2.00D  GRAD.:    47.881 HEAT:  52.67081
 CYCLE:     3 TIME:   0.016 TIME LEFT:  2.00D  GRAD.:    29.062 HEAT:  52.01649
 CYCLE:     4 TIME:   0.000 TIME LEFT:  2.00D  GRAD.:    17.707 HEAT:  51.88952
 CYCLE:     5 TIME:   0.000 TIME LEFT:  2.00D  GRAD.:     2.173 HEAT:  51.80639
 CYCLE:     6 TIME:   0.000 TIME LEFT:  2.00D  GRAD.:     0.385 HEAT:  51.80336

     GRADIENT =  0.38451 IS LESS THAN CUTOFF =  1.00000



          VARIABLE        FUNCTION
 :        80.00000       51.803351
 SYMMETRY html step=0.2 points=100 open(2,2) TRIPLET
 Rotation of Ethylene, CH2 group rotated about the C-C axis. Simple C.I. mixing the pi-M.O.s, showing the TRIPLET surface near the top of the barrier.
 (Keywords: SYMMETRY html step=0.2 points=100 open(2,2) TRIPLET)
  C(HETATM    1  C1  HET A   1)   0.00000000 +0    0.0000000 +0    0.0000000 +0
  C(HETATM    2  C2  HET A   1)   1.41630809 +1    0.0000000 +0    0.0000000 +0     1     0     0
  H(HETATM    3 1H2  HET A   1)   1.06811621 +1  121.1830408 +1    0.0000000 +0     2     1     0
  H(HETATM    4 2H2  HET A   1)   1.06811621 +0  121.1830408 +0  180.0000000 +0     2     1     3
  H(HETATM    5 1H1  HET A   1)   1.06811621 +0  121.1830408 +0   80.0000000 -1     1     2     3
  H(HETATM    6 2H1  HET A   1)   1.06811621 +0  121.1830408 +0  180.0000000 +0     1     2     5
 
   3  1    4    5    6
   3  2    4    5    6
 

          Geometry optimization using EF

     GRADIENT =  0.38359 IS LESS THAN CUTOFF =  1.00000



          VARIABLE        FUNCTION
 :        80.20000       51.787307
 SYMMETRY html step=0.2 points=100 open(2,2) TRIPLET
 Rotation of Ethylene, CH2 group rotated about the C-C axis. Simple C.I. mixing the pi-M.O.s, showing the TRIPLET surface near the top of the barrier.
 (Keywords: SYMMETRY html step=0.2 points=100 open(2,2) TRIPLET)
  C(HETATM    1  C1  HET A   1)   0.00000000 +0    0.0000000 +0    0.0000000 +0
  C(HETATM    2  C2  HET A   1)   1.41630809 +1    0.0000000 +0    0.0000000 +0     1     0     0
  H(HETATM    3 1H2  HET A   1)   1.06811621 +1  121.1830408 +1    0.0000000 +0     2     1     0
  H(HETATM    4 2H2  HET A   1)   1.06811621 +0  121.1830408 +0  180.0000000 +0     2     1     3
  H(HETATM    5 1H1  HET A   1)   1.06811621 +0  121.1830408 +0   80.2000000 -1     1     2     3
  H(HETATM    6 2H1  HET A   1)   1.06811621 +0  121.1830408 +0  180.0000000 +0     1     2     5
 
   3  1    4    5    6
   3  2    4    5    6
 

          Geometry optimization using EF

     GRADIENT =  0.38681 IS LESS THAN CUTOFF =  1.00000



          VARIABLE        FUNCTION
 :        80.40000       51.771634
 SYMMETRY html step=0.2 points=100 open(2,2) TRIPLET
 Rotation of Ethylene, CH2 group rotated about the C-C axis. Simple C.I. mixing the pi-M.O.s, showing the TRIPLET surface near the top of the barrier.
 (Keywords: SYMMETRY html step=0.2 points=100 open(2,2) TRIPLET)
  C(HETATM    1  C1  HET A   1)   0.00000000 +0    0.0000000 +0    0.0000000 +0
  C(HETATM    2  C2  HET A   1)   1.41630809 +1    0.0000000 +0    0.0000000 +0     1     0     0
  H(HETATM    3 1H2  HET A   1)   1.06811621 +1  121.1830408 +1    0.0000000 +0     2     1     0
  H(HETATM    4 2H2  HET A   1)   1.06811621 +0  121.1830408 +0  180.0000000 +0     2     1     3
  H(HETATM    5 1H1  HET A   1)   1.06811621 +0  121.1830408 +0   80.4000000 -1     1     2     3
  H(HETATM    6 2H1  HET A   1)   1.06811621 +0  121.1830408 +0  180.0000000 +0     1     2     5
 
   3  1    4    5    6
   3  2    4    5    6
 

          Geometry optimization using EF

     GRADIENT =  0.39635 IS LESS THAN CUTOFF =  1.00000



          VARIABLE        FUNCTION
 :        80.60000       51.756279
 SYMMETRY html step=0.2 points=100 open(2,2) TRIPLET
 Rotation of Ethylene, CH2 group rotated about the C-C axis. Simple C.I. mixing the pi-M.O.s, showing the TRIPLET surface near the top of the barrier.
 (Keywords: SYMMETRY html step=0.2 points=100 open(2,2) TRIPLET)
  C(HETATM    1  C1  HET A   1)   0.00000000 +0    0.0000000 +0    0.0000000 +0
  C(HETATM    2  C2  HET A   1)   1.41630809 +1    0.0000000 +0    0.0000000 +0     1     0     0
  H(HETATM    3 1H2  HET A   1)   1.06811621 +1  121.1830408 +1    0.0000000 +0     2     1     0
  H(HETATM    4 2H2  HET A   1)   1.06811621 +0  121.1830408 +0  180.0000000 +0     2     1     3
  H(HETATM    5 1H1  HET A   1)   1.06811621 +0  121.1830408 +0   80.6000000 -1     1     2     3
  H(HETATM    6 2H1  HET A   1)   1.06811621 +0  121.1830408 +0  180.0000000 +0     1     2     5
 
   3  1    4    5    6
   3  2    4    5    6
 

          Geometry optimization using EF

     GRADIENT =  0.41139 IS LESS THAN CUTOFF =  1.00000



          VARIABLE        FUNCTION
 :        80.80000       51.741241
 SYMMETRY html step=0.2 points=100 open(2,2) TRIPLET
 Rotation of Ethylene, CH2 group rotated about the C-C axis. Simple C.I. mixing the pi-M.O.s, showing the TRIPLET surface near the top of the barrier.
 (Keywords: SYMMETRY html step=0.2 points=100 open(2,2) TRIPLET)
  C(HETATM    1  C1  HET A   1)   0.00000000 +0    0.0000000 +0    0.0000000 +0
  C(HETATM    2  C2  HET A   1)   1.41630809 +1    0.0000000 +0    0.0000000 +0     1     0     0
  H(HETATM    3 1H2  HET A   1)   1.06811621 +1  121.1830408 +1    0.0000000 +0     2     1     0
  H(HETATM    4 2H2  HET A   1)   1.06811621 +0  121.1830408 +0  180.0000000 +0     2     1     3
  H(HETATM    5 1H1  HET A   1)   1.06811621 +0  121.1830408 +0   80.8000000 -1     1     2     3
  H(HETATM    6 2H1  HET A   1)   1.06811621 +0  121.1830408 +0  180.0000000 +0     1     2     5
 
   3  1    4    5    6
   3  2    4    5    6
 

          Geometry optimization using EF

     GRADIENT =  0.43100 IS LESS THAN CUTOFF =  1.00000



          VARIABLE        FUNCTION
 :        81.00000       51.726521
 SYMMETRY html step=0.2 points=100 open(2,2) TRIPLET
 Rotation of Ethylene, CH2 group rotated about the C-C axis. Simple C.I. mixing the pi-M.O.s, showing the TRIPLET surface near the top of the barrier.
 (Keywords: SYMMETRY html step=0.2 points=100 open(2,2) TRIPLET)
  C(HETATM    1  C1  HET A   1)   0.00000000 +0    0.0000000 +0    0.0000000 +0
  C(HETATM    2  C2  HET A   1)   1.41630809 +1    0.0000000 +0    0.0000000 +0     1     0     0
  H(HETATM    3 1H2  HET A   1)   1.06811621 +1  121.1830408 +1    0.0000000 +0     2     1     0
  H(HETATM    4 2H2  HET A   1)   1.06811621 +0  121.1830408 +0  180.0000000 +0     2     1     3
  H(HETATM    5 1H1  HET A   1)   1.06811621 +0  121.1830408 +0   81.0000000 -1     1     2     3
  H(HETATM    6 2H1  HET A   1)   1.06811621 +0  121.1830408 +0  180.0000000 +0     1     2     5
 
   3  1    4    5    6
   3  2    4    5    6
 

          Geometry optimization using EF

     GRADIENT =  0.45425 IS LESS THAN CUTOFF =  1.00000



          VARIABLE        FUNCTION
 :        81.20000       51.712119
 SYMMETRY html step=0.2 points=100 open(2,2) TRIPLET
 Rotation of Ethylene, CH2 group rotated about the C-C axis. Simple C.I. mixing the pi-M.O.s, showing the TRIPLET surface near the top of the barrier.
 (Keywords: SYMMETRY html step=0.2 points=100 open(2,2) TRIPLET)
  C(HETATM    1  C1  HET A   1)   0.00000000 +0    0.0000000 +0    0.0000000 +0
  C(HETATM    2  C2  HET A   1)   1.41630809 +1    0.0000000 +0    0.0000000 +0     1     0     0
  H(HETATM    3 1H2  HET A   1)   1.06811621 +1  121.1830408 +1    0.0000000 +0     2     1     0
  H(HETATM    4 2H2  HET A   1)   1.06811621 +0  121.1830408 +0  180.0000000 +0     2     1     3
  H(HETATM    5 1H1  HET A   1)   1.06811621 +0  121.1830408 +0   81.2000000 -1     1     2     3
  H(HETATM    6 2H1  HET A   1)   1.06811621 +0  121.1830408 +0  180.0000000 +0     1     2     5
 
   3  1    4    5    6
   3  2    4    5    6
 

          Geometry optimization using EF

     GRADIENT =  0.48030 IS LESS THAN CUTOFF =  1.00000



          VARIABLE        FUNCTION
 :        81.40000       51.698035
 SYMMETRY html step=0.2 points=100 open(2,2) TRIPLET
 Rotation of Ethylene, CH2 group rotated about the C-C axis. Simple C.I. mixing the pi-M.O.s, showing the TRIPLET surface near the top of the barrier.
 (Keywords: SYMMETRY html step=0.2 points=100 open(2,2) TRIPLET)
  C(HETATM    1  C1  HET A   1)   0.00000000 +0    0.0000000 +0    0.0000000 +0
  C(HETATM    2  C2  HET A   1)   1.41630809 +1    0.0000000 +0    0.0000000 +0     1     0     0
  H(HETATM    3 1H2  HET A   1)   1.06811621 +1  121.1830408 +1    0.0000000 +0     2     1     0
  H(HETATM    4 2H2  HET A   1)   1.06811621 +0  121.1830408 +0  180.0000000 +0     2     1     3
  H(HETATM    5 1H1  HET A   1)   1.06811621 +0  121.1830408 +0   81.4000000 -1     1     2     3
  H(HETATM    6 2H1  HET A   1)   1.06811621 +0  121.1830408 +0  180.0000000 +0     1     2     5
 
   3  1    4    5    6
   3  2    4    5    6
 

          Geometry optimization using EF

     GRADIENT =  0.50845 IS LESS THAN CUTOFF =  1.00000



          VARIABLE        FUNCTION
 :        81.60000       51.684270
 SYMMETRY html step=0.2 points=100 open(2,2) TRIPLET
 Rotation of Ethylene, CH2 group rotated about the C-C axis. Simple C.I. mixing the pi-M.O.s, showing the TRIPLET surface near the top of the barrier.
 (Keywords: SYMMETRY html step=0.2 points=100 open(2,2) TRIPLET)
  C(HETATM    1  C1  HET A   1)   0.00000000 +0    0.0000000 +0    0.0000000 +0
  C(HETATM    2  C2  HET A   1)   1.41630809 +1    0.0000000 +0    0.0000000 +0     1     0     0
  H(HETATM    3 1H2  HET A   1)   1.06811621 +1  121.1830408 +1    0.0000000 +0     2     1     0
  H(HETATM    4 2H2  HET A   1)   1.06811621 +0  121.1830408 +0  180.0000000 +0     2     1     3
  H(HETATM    5 1H1  HET A   1)   1.06811621 +0  121.1830408 +0   81.6000000 -1     1     2     3
  H(HETATM    6 2H1  HET A   1)   1.06811621 +0  121.1830408 +0  180.0000000 +0     1     2     5
 
   3  1    4    5    6
   3  2    4    5    6
 

          Geometry optimization using EF

     GRADIENT =  0.53810 IS LESS THAN CUTOFF =  1.00000



          VARIABLE        FUNCTION
 :        81.80000       51.670825
 SYMMETRY html step=0.2 points=100 open(2,2) TRIPLET
 Rotation of Ethylene, CH2 group rotated about the C-C axis. Simple C.I. mixing the pi-M.O.s, showing the TRIPLET surface near the top of the barrier.
 (Keywords: SYMMETRY html step=0.2 points=100 open(2,2) TRIPLET)
  C(HETATM    1  C1  HET A   1)   0.00000000 +0    0.0000000 +0    0.0000000 +0
  C(HETATM    2  C2  HET A   1)   1.41630809 +1    0.0000000 +0    0.0000000 +0     1     0     0
  H(HETATM    3 1H2  HET A   1)   1.06811621 +1  121.1830408 +1    0.0000000 +0     2     1     0
  H(HETATM    4 2H2  HET A   1)   1.06811621 +0  121.1830408 +0  180.0000000 +0     2     1     3
  H(HETATM    5 1H1  HET A   1)   1.06811621 +0  121.1830408 +0   81.8000000 -1     1     2     3
  H(HETATM    6 2H1  HET A   1)   1.06811621 +0  121.1830408 +0  180.0000000 +0     1     2     5
 
   3  1    4    5    6
   3  2    4    5    6
 

          Geometry optimization using EF

     GRADIENT =  0.56877 IS LESS THAN CUTOFF =  1.00000



          VARIABLE        FUNCTION
 :        82.00000       51.657699
 SYMMETRY html step=0.2 points=100 open(2,2) TRIPLET
 Rotation of Ethylene, CH2 group rotated about the C-C axis. Simple C.I. mixing the pi-M.O.s, showing the TRIPLET surface near the top of the barrier.
 (Keywords: SYMMETRY html step=0.2 points=100 open(2,2) TRIPLET)
  C(HETATM    1  C1  HET A   1)   0.00000000 +0    0.0000000 +0    0.0000000 +0
  C(HETATM    2  C2  HET A   1)   1.41630809 +1    0.0000000 +0    0.0000000 +0     1     0     0
  H(HETATM    3 1H2  HET A   1)   1.06811621 +1  121.1830408 +1    0.0000000 +0     2     1     0
  H(HETATM    4 2H2  HET A   1)   1.06811621 +0  121.1830408 +0  180.0000000 +0     2     1     3
  H(HETATM    5 1H1  HET A   1)   1.06811621 +0  121.1830408 +0   82.0000000 -1     1     2     3
  H(HETATM    6 2H1  HET A   1)   1.06811621 +0  121.1830408 +0  180.0000000 +0     1     2     5
 
   3  1    4    5    6
   3  2    4    5    6
 

          Geometry optimization using EF

     GRADIENT =  0.60009 IS LESS THAN CUTOFF =  1.00000



          VARIABLE        FUNCTION
 :        82.20000       51.644893
 SYMMETRY html step=0.2 points=100 open(2,2) TRIPLET
 Rotation of Ethylene, CH2 group rotated about the C-C axis. Simple C.I. mixing the pi-M.O.s, showing the TRIPLET surface near the top of the barrier.
 (Keywords: SYMMETRY html step=0.2 points=100 open(2,2) TRIPLET)
  C(HETATM    1  C1  HET A   1)   0.00000000 +0    0.0000000 +0    0.0000000 +0
  C(HETATM    2  C2  HET A   1)   1.41630809 +1    0.0000000 +0    0.0000000 +0     1     0     0
  H(HETATM    3 1H2  HET A   1)   1.06811621 +1  121.1830408 +1    0.0000000 +0     2     1     0
  H(HETATM    4 2H2  HET A   1)   1.06811621 +0  121.1830408 +0  180.0000000 +0     2     1     3
  H(HETATM    5 1H1  HET A   1)   1.06811621 +0  121.1830408 +0   82.2000000 -1     1     2     3
  H(HETATM    6 2H1  HET A   1)   1.06811621 +0  121.1830408 +0  180.0000000 +0     1     2     5
 
   3  1    4    5    6
   3  2    4    5    6
 

          Geometry optimization using EF

     GRADIENT =  0.63174 IS LESS THAN CUTOFF =  1.00000



          VARIABLE        FUNCTION
 :        82.40000       51.632407
 SYMMETRY html step=0.2 points=100 open(2,2) TRIPLET
 Rotation of Ethylene, CH2 group rotated about the C-C axis. Simple C.I. mixing the pi-M.O.s, showing the TRIPLET surface near the top of the barrier.
 (Keywords: SYMMETRY html step=0.2 points=100 open(2,2) TRIPLET)
  C(HETATM    1  C1  HET A   1)   0.00000000 +0    0.0000000 +0    0.0000000 +0
  C(HETATM    2  C2  HET A   1)   1.41630809 +1    0.0000000 +0    0.0000000 +0     1     0     0
  H(HETATM    3 1H2  HET A   1)   1.06811621 +1  121.1830408 +1    0.0000000 +0     2     1     0
  H(HETATM    4 2H2  HET A   1)   1.06811621 +0  121.1830408 +0  180.0000000 +0     2     1     3
  H(HETATM    5 1H1  HET A   1)   1.06811621 +0  121.1830408 +0   82.4000000 -1     1     2     3
  H(HETATM    6 2H1  HET A   1)   1.06811621 +0  121.1830408 +0  180.0000000 +0     1     2     5
 
   3  1    4    5    6
   3  2    4    5    6
 

          Geometry optimization using EF

     GRADIENT =  0.66349 IS LESS THAN CUTOFF =  1.00000



          VARIABLE        FUNCTION
 :        82.60000       51.620242
 SYMMETRY html step=0.2 points=100 open(2,2) TRIPLET
 Rotation of Ethylene, CH2 group rotated about the C-C axis. Simple C.I. mixing the pi-M.O.s, showing the TRIPLET surface near the top of the barrier.
 (Keywords: SYMMETRY html step=0.2 points=100 open(2,2) TRIPLET)
  C(HETATM    1  C1  HET A   1)   0.00000000 +0    0.0000000 +0    0.0000000 +0
  C(HETATM    2  C2  HET A   1)   1.41630809 +1    0.0000000 +0    0.0000000 +0     1     0     0
  H(HETATM    3 1H2  HET A   1)   1.06811621 +1  121.1830408 +1    0.0000000 +0     2     1     0
  H(HETATM    4 2H2  HET A   1)   1.06811621 +0  121.1830408 +0  180.0000000 +0     2     1     3
  H(HETATM    5 1H1  HET A   1)   1.06811621 +0  121.1830408 +0   82.6000000 -1     1     2     3
  H(HETATM    6 2H1  HET A   1)   1.06811621 +0  121.1830408 +0  180.0000000 +0     1     2     5
 
   3  1    4    5    6
   3  2    4    5    6
 

          Geometry optimization using EF

     GRADIENT =  0.69515 IS LESS THAN CUTOFF =  1.00000



          VARIABLE        FUNCTION
 :        82.80000       51.608397
 SYMMETRY html step=0.2 points=100 open(2,2) TRIPLET
 Rotation of Ethylene, CH2 group rotated about the C-C axis. Simple C.I. mixing the pi-M.O.s, showing the TRIPLET surface near the top of the barrier.
 (Keywords: SYMMETRY html step=0.2 points=100 open(2,2) TRIPLET)
  C(HETATM    1  C1  HET A   1)   0.00000000 +0    0.0000000 +0    0.0000000 +0
  C(HETATM    2  C2  HET A   1)   1.41630809 +1    0.0000000 +0    0.0000000 +0     1     0     0
  H(HETATM    3 1H2  HET A   1)   1.06811621 +1  121.1830408 +1    0.0000000 +0     2     1     0
  H(HETATM    4 2H2  HET A   1)   1.06811621 +0  121.1830408 +0  180.0000000 +0     2     1     3
  H(HETATM    5 1H1  HET A   1)   1.06811621 +0  121.1830408 +0   82.8000000 -1     1     2     3
  H(HETATM    6 2H1  HET A   1)   1.06811621 +0  121.1830408 +0  180.0000000 +0     1     2     5
 
   3  1    4    5    6
   3  2    4    5    6
 

          Geometry optimization using EF

     GRADIENT =  0.72657 IS LESS THAN CUTOFF =  1.00000



          VARIABLE        FUNCTION
 :        83.00000       51.596874
 SYMMETRY html step=0.2 points=100 open(2,2) TRIPLET
 Rotation of Ethylene, CH2 group rotated about the C-C axis. Simple C.I. mixing the pi-M.O.s, showing the TRIPLET surface near the top of the barrier.
 (Keywords: SYMMETRY html step=0.2 points=100 open(2,2) TRIPLET)
  C(HETATM    1  C1  HET A   1)   0.00000000 +0    0.0000000 +0    0.0000000 +0
  C(HETATM    2  C2  HET A   1)   1.41630809 +1    0.0000000 +0    0.0000000 +0     1     0     0
  H(HETATM    3 1H2  HET A   1)   1.06811621 +1  121.1830408 +1    0.0000000 +0     2     1     0
  H(HETATM    4 2H2  HET A   1)   1.06811621 +0  121.1830408 +0  180.0000000 +0     2     1     3
  H(HETATM    5 1H1  HET A   1)   1.06811621 +0  121.1830408 +0   83.0000000 -1     1     2     3
  H(HETATM    6 2H1  HET A   1)   1.06811621 +0  121.1830408 +0  180.0000000 +0     1     2     5
 
   3  1    4    5    6
   3  2    4    5    6
 

          Geometry optimization using EF

     GRADIENT =  0.75760 IS LESS THAN CUTOFF =  1.00000



          VARIABLE        FUNCTION
 :        83.20000       51.585672
 SYMMETRY html step=0.2 points=100 open(2,2) TRIPLET
 Rotation of Ethylene, CH2 group rotated about the C-C axis. Simple C.I. mixing the pi-M.O.s, showing the TRIPLET surface near the top of the barrier.
 (Keywords: SYMMETRY html step=0.2 points=100 open(2,2) TRIPLET)
  C(HETATM    1  C1  HET A   1)   0.00000000 +0    0.0000000 +0    0.0000000 +0
  C(HETATM    2  C2  HET A   1)   1.41630809 +1    0.0000000 +0    0.0000000 +0     1     0     0
  H(HETATM    3 1H2  HET A   1)   1.06811621 +1  121.1830408 +1    0.0000000 +0     2     1     0
  H(HETATM    4 2H2  HET A   1)   1.06811621 +0  121.1830408 +0  180.0000000 +0     2     1     3
  H(HETATM    5 1H1  HET A   1)   1.06811621 +0  121.1830408 +0   83.2000000 -1     1     2     3
  H(HETATM    6 2H1  HET A   1)   1.06811621 +0  121.1830408 +0  180.0000000 +0     1     2     5
 
   3  1    4    5    6
   3  2    4    5    6
 

          Geometry optimization using EF

     GRADIENT =  0.78817 IS LESS THAN CUTOFF =  1.00000



          VARIABLE        FUNCTION
 :        83.40000       51.574791
 SYMMETRY html step=0.2 points=100 open(2,2) TRIPLET
 Rotation of Ethylene, CH2 group rotated about the C-C axis. Simple C.I. mixing the pi-M.O.s, showing the TRIPLET surface near the top of the barrier.
 (Keywords: SYMMETRY html step=0.2 points=100 open(2,2) TRIPLET)
  C(HETATM    1  C1  HET A   1)   0.00000000 +0    0.0000000 +0    0.0000000 +0
  C(HETATM    2  C2  HET A   1)   1.41630809 +1    0.0000000 +0    0.0000000 +0     1     0     0
  H(HETATM    3 1H2  HET A   1)   1.06811621 +1  121.1830408 +1    0.0000000 +0     2     1     0
  H(HETATM    4 2H2  HET A   1)   1.06811621 +0  121.1830408 +0  180.0000000 +0     2     1     3
  H(HETATM    5 1H1  HET A   1)   1.06811621 +0  121.1830408 +0   83.4000000 -1     1     2     3
  H(HETATM    6 2H1  HET A   1)   1.06811621 +0  121.1830408 +0  180.0000000 +0     1     2     5
 
   3  1    4    5    6
   3  2    4    5    6
 

          Geometry optimization using EF

     GRADIENT =  0.81818 IS LESS THAN CUTOFF =  1.00000



          VARIABLE        FUNCTION
 :        83.60000       51.564233
 SYMMETRY html step=0.2 points=100 open(2,2) TRIPLET
 Rotation of Ethylene, CH2 group rotated about the C-C axis. Simple C.I. mixing the pi-M.O.s, showing the TRIPLET surface near the top of the barrier.
 (Keywords: SYMMETRY html step=0.2 points=100 open(2,2) TRIPLET)
  C(HETATM    1  C1  HET A   1)   0.00000000 +0    0.0000000 +0    0.0000000 +0
  C(HETATM    2  C2  HET A   1)   1.41630809 +1    0.0000000 +0    0.0000000 +0     1     0     0
  H(HETATM    3 1H2  HET A   1)   1.06811621 +1  121.1830408 +1    0.0000000 +0     2     1     0
  H(HETATM    4 2H2  HET A   1)   1.06811621 +0  121.1830408 +0  180.0000000 +0     2     1     3
  H(HETATM    5 1H1  HET A   1)   1.06811621 +0  121.1830408 +0   83.6000000 -1     1     2     3
  H(HETATM    6 2H1  HET A   1)   1.06811621 +0  121.1830408 +0  180.0000000 +0     1     2     5
 
   3  1    4    5    6
   3  2    4    5    6
 

          Geometry optimization using EF

     GRADIENT =  0.84756 IS LESS THAN CUTOFF =  1.00000



          VARIABLE        FUNCTION
 :        83.80000       51.553996
 SYMMETRY html step=0.2 points=100 open(2,2) TRIPLET
 Rotation of Ethylene, CH2 group rotated about the C-C axis. Simple C.I. mixing the pi-M.O.s, showing the TRIPLET surface near the top of the barrier.
 (Keywords: SYMMETRY html step=0.2 points=100 open(2,2) TRIPLET)
  C(HETATM    1  C1  HET A   1)   0.00000000 +0    0.0000000 +0    0.0000000 +0
  C(HETATM    2  C2  HET A   1)   1.41630809 +1    0.0000000 +0    0.0000000 +0     1     0     0
  H(HETATM    3 1H2  HET A   1)   1.06811621 +1  121.1830408 +1    0.0000000 +0     2     1     0
  H(HETATM    4 2H2  HET A   1)   1.06811621 +0  121.1830408 +0  180.0000000 +0     2     1     3
  H(HETATM    5 1H1  HET A   1)   1.06811621 +0  121.1830408 +0   83.8000000 -1     1     2     3
  H(HETATM    6 2H1  HET A   1)   1.06811621 +0  121.1830408 +0  180.0000000 +0     1     2     5
 
   3  1    4    5    6
   3  2    4    5    6
 

          Geometry optimization using EF

     GRADIENT =  0.87626 IS LESS THAN CUTOFF =  1.00000



          VARIABLE        FUNCTION
 :        84.00000       51.544082
 SYMMETRY html step=0.2 points=100 open(2,2) TRIPLET
 Rotation of Ethylene, CH2 group rotated about the C-C axis. Simple C.I. mixing the pi-M.O.s, showing the TRIPLET surface near the top of the barrier.
 (Keywords: SYMMETRY html step=0.2 points=100 open(2,2) TRIPLET)
  C(HETATM    1  C1  HET A   1)   0.00000000 +0    0.0000000 +0    0.0000000 +0
  C(HETATM    2  C2  HET A   1)   1.41630809 +1    0.0000000 +0    0.0000000 +0     1     0     0
  H(HETATM    3 1H2  HET A   1)   1.06811621 +1  121.1830408 +1    0.0000000 +0     2     1     0
  H(HETATM    4 2H2  HET A   1)   1.06811621 +0  121.1830408 +0  180.0000000 +0     2     1     3
  H(HETATM    5 1H1  HET A   1)   1.06811621 +0  121.1830408 +0   84.0000000 -1     1     2     3
  H(HETATM    6 2H1  HET A   1)   1.06811621 +0  121.1830408 +0  180.0000000 +0     1     2     5
 
   3  1    4    5    6
   3  2    4    5    6
 

          Geometry optimization using EF

     GRADIENT =  0.90424 IS LESS THAN CUTOFF =  1.00000



          VARIABLE        FUNCTION
 :        84.20000       51.534491
 SYMMETRY html step=0.2 points=100 open(2,2) TRIPLET
 Rotation of Ethylene, CH2 group rotated about the C-C axis. Simple C.I. mixing the pi-M.O.s, showing the TRIPLET surface near the top of the barrier.
 (Keywords: SYMMETRY html step=0.2 points=100 open(2,2) TRIPLET)
  C(HETATM    1  C1  HET A   1)   0.00000000 +0    0.0000000 +0    0.0000000 +0
  C(HETATM    2  C2  HET A   1)   1.41630809 +1    0.0000000 +0    0.0000000 +0     1     0     0
  H(HETATM    3 1H2  HET A   1)   1.06811621 +1  121.1830408 +1    0.0000000 +0     2     1     0
  H(HETATM    4 2H2  HET A   1)   1.06811621 +0  121.1830408 +0  180.0000000 +0     2     1     3
  H(HETATM    5 1H1  HET A   1)   1.06811621 +0  121.1830408 +0   84.2000000 -1     1     2     3
  H(HETATM    6 2H1  HET A   1)   1.06811621 +0  121.1830408 +0  180.0000000 +0     1     2     5
 
   3  1    4    5    6
   3  2    4    5    6
 

          Geometry optimization using EF

     GRADIENT =  0.93145 IS LESS THAN CUTOFF =  1.00000



          VARIABLE        FUNCTION
 :        84.40000       51.525223
 SYMMETRY html step=0.2 points=100 open(2,2) TRIPLET
 Rotation of Ethylene, CH2 group rotated about the C-C axis. Simple C.I. mixing the pi-M.O.s, showing the TRIPLET surface near the top of the barrier.
 (Keywords: SYMMETRY html step=0.2 points=100 open(2,2) TRIPLET)
  C(HETATM    1  C1  HET A   1)   0.00000000 +0    0.0000000 +0    0.0000000 +0
  C(HETATM    2  C2  HET A   1)   1.41630809 +1    0.0000000 +0    0.0000000 +0     1     0     0
  H(HETATM    3 1H2  HET A   1)   1.06811621 +1  121.1830408 +1    0.0000000 +0     2     1     0
  H(HETATM    4 2H2  HET A   1)   1.06811621 +0  121.1830408 +0  180.0000000 +0     2     1     3
  H(HETATM    5 1H1  HET A   1)   1.06811621 +0  121.1830408 +0   84.4000000 -1     1     2     3
  H(HETATM    6 2H1  HET A   1)   1.06811621 +0  121.1830408 +0  180.0000000 +0     1     2     5
 
   3  1    4    5    6
   3  2    4    5    6
 

          Geometry optimization using EF

     GRADIENT =  0.95786 IS LESS THAN CUTOFF =  1.00000



          VARIABLE        FUNCTION
 :        84.60000       51.516278
 SYMMETRY html step=0.2 points=100 open(2,2) TRIPLET
 Rotation of Ethylene, CH2 group rotated about the C-C axis. Simple C.I. mixing the pi-M.O.s, showing the TRIPLET surface near the top of the barrier.
 (Keywords: SYMMETRY html step=0.2 points=100 open(2,2) TRIPLET)
  C(HETATM    1  C1  HET A   1)   0.00000000 +0    0.0000000 +0    0.0000000 +0
  C(HETATM    2  C2  HET A   1)   1.41630809 +1    0.0000000 +0    0.0000000 +0     1     0     0
  H(HETATM    3 1H2  HET A   1)   1.06811621 +1  121.1830408 +1    0.0000000 +0     2     1     0
  H(HETATM    4 2H2  HET A   1)   1.06811621 +0  121.1830408 +0  180.0000000 +0     2     1     3
  H(HETATM    5 1H1  HET A   1)   1.06811621 +0  121.1830408 +0   84.6000000 -1     1     2     3
  H(HETATM    6 2H1  HET A   1)   1.06811621 +0  121.1830408 +0  180.0000000 +0     1     2     5
 
   3  1    4    5    6
   3  2    4    5    6
 

          Geometry optimization using EF

     GRADIENT =  0.98343 IS LESS THAN CUTOFF =  1.00000



          VARIABLE        FUNCTION
 :        84.80000       51.507656
 SYMMETRY html step=0.2 points=100 open(2,2) TRIPLET
 Rotation of Ethylene, CH2 group rotated about the C-C axis. Simple C.I. mixing the pi-M.O.s, showing the TRIPLET surface near the top of the barrier.
 (Keywords: SYMMETRY html step=0.2 points=100 open(2,2) TRIPLET)
  C(HETATM    1  C1  HET A   1)   0.00000000 +0    0.0000000 +0    0.0000000 +0
  C(HETATM    2  C2  HET A   1)   1.41630809 +1    0.0000000 +0    0.0000000 +0     1     0     0
  H(HETATM    3 1H2  HET A   1)   1.06811621 +1  121.1830408 +1    0.0000000 +0     2     1     0
  H(HETATM    4 2H2  HET A   1)   1.06811621 +0  121.1830408 +0  180.0000000 +0     2     1     3
  H(HETATM    5 1H1  HET A   1)   1.06811621 +0  121.1830408 +0   84.8000000 -1     1     2     3
  H(HETATM    6 2H1  HET A   1)   1.06811621 +0  121.1830408 +0  180.0000000 +0     1     2     5
 
   3  1    4    5    6
   3  2    4    5    6
 

          Geometry optimization using EF

          DIAGONAL MATRIX USED AS START HESSIAN

 CYCLE:     1 TIME:   0.016 TIME LEFT:  2.00D  GRAD.:     1.008 HEAT:  51.49936
 CYCLE:     2 TIME:   0.000 TIME LEFT:  2.00D  GRAD.:     0.350 HEAT:  51.49885

     GRADIENT =  0.34976 IS LESS THAN CUTOFF =  1.00000



          VARIABLE        FUNCTION
 :        85.00000       51.498904
 SYMMETRY html step=0.2 points=100 open(2,2) TRIPLET
 Rotation of Ethylene, CH2 group rotated about the C-C axis. Simple C.I. mixing the pi-M.O.s, showing the TRIPLET surface near the top of the barrier.
 (Keywords: SYMMETRY html step=0.2 points=100 open(2,2) TRIPLET)
  C(HETATM    1  C1  HET A   1)   0.00000000 +0    0.0000000 +0    0.0000000 +0
  C(HETATM    2  C2  HET A   1)   1.41536027 +1    0.0000000 +0    0.0000000 +0     1     0     0
  H(HETATM    3 1H2  HET A   1)   1.06845409 +1  121.1901574 +1    0.0000000 +0     2     1     0
  H(HETATM    4 2H2  HET A   1)   1.06845409 +0  121.1901574 +0  180.0000000 +0     2     1     3
  H(HETATM    5 1H1  HET A   1)   1.06845409 +0  121.1901574 +0   85.0000000 -1     1     2     3
  H(HETATM    6 2H1  HET A   1)   1.06845409 +0  121.1901574 +0  180.0000000 +0     1     2     5
 
   3  1    4    5    6
   3  2    4    5    6
 

          Geometry optimization using EF

     GRADIENT =  0.35135 IS LESS THAN CUTOFF =  1.00000



          VARIABLE        FUNCTION
 :        85.20000       51.490873
 SYMMETRY html step=0.2 points=100 open(2,2) TRIPLET
 Rotation of Ethylene, CH2 group rotated about the C-C axis. Simple C.I. mixing the pi-M.O.s, showing the TRIPLET surface near the top of the barrier.
 (Keywords: SYMMETRY html step=0.2 points=100 open(2,2) TRIPLET)
  C(HETATM    1  C1  HET A   1)   0.00000000 +0    0.0000000 +0    0.0000000 +0
  C(HETATM    2  C2  HET A   1)   1.41536027 +1    0.0000000 +0    0.0000000 +0     1     0     0
  H(HETATM    3 1H2  HET A   1)   1.06845409 +1  121.1901574 +1    0.0000000 +0     2     1     0
  H(HETATM    4 2H2  HET A   1)   1.06845409 +0  121.1901574 +0  180.0000000 +0     2     1     3
  H(HETATM    5 1H1  HET A   1)   1.06845409 +0  121.1901574 +0   85.2000000 -1     1     2     3
  H(HETATM    6 2H1  HET A   1)   1.06845409 +0  121.1901574 +0  180.0000000 +0     1     2     5
 
   3  1    4    5    6
   3  2    4    5    6
 

          Geometry optimization using EF

     GRADIENT =  0.35164 IS LESS THAN CUTOFF =  1.00000



          VARIABLE        FUNCTION
 :        85.40000       51.483200
 SYMMETRY html step=0.2 points=100 open(2,2) TRIPLET
 Rotation of Ethylene, CH2 group rotated about the C-C axis. Simple C.I. mixing the pi-M.O.s, showing the TRIPLET surface near the top of the barrier.
 (Keywords: SYMMETRY html step=0.2 points=100 open(2,2) TRIPLET)
  C(HETATM    1  C1  HET A   1)   0.00000000 +0    0.0000000 +0    0.0000000 +0
  C(HETATM    2  C2  HET A   1)   1.41536027 +1    0.0000000 +0    0.0000000 +0     1     0     0
  H(HETATM    3 1H2  HET A   1)   1.06845409 +1  121.1901574 +1    0.0000000 +0     2     1     0
  H(HETATM    4 2H2  HET A   1)   1.06845409 +0  121.1901574 +0  180.0000000 +0     2     1     3
  H(HETATM    5 1H1  HET A   1)   1.06845409 +0  121.1901574 +0   85.4000000 -1     1     2     3
  H(HETATM    6 2H1  HET A   1)   1.06845409 +0  121.1901574 +0  180.0000000 +0     1     2     5
 
   3  1    4    5    6
   3  2    4    5    6
 

          Geometry optimization using EF

     GRADIENT =  0.35353 IS LESS THAN CUTOFF =  1.00000



          VARIABLE        FUNCTION
 :        85.60000       51.475852
 SYMMETRY html step=0.2 points=100 open(2,2) TRIPLET
 Rotation of Ethylene, CH2 group rotated about the C-C axis. Simple C.I. mixing the pi-M.O.s, showing the TRIPLET surface near the top of the barrier.
 (Keywords: SYMMETRY html step=0.2 points=100 open(2,2) TRIPLET)
  C(HETATM    1  C1  HET A   1)   0.00000000 +0    0.0000000 +0    0.0000000 +0
  C(HETATM    2  C2  HET A   1)   1.41536027 +1    0.0000000 +0    0.0000000 +0     1     0     0
  H(HETATM    3 1H2  HET A   1)   1.06845409 +1  121.1901574 +1    0.0000000 +0     2     1     0
  H(HETATM    4 2H2  HET A   1)   1.06845409 +0  121.1901574 +0  180.0000000 +0     2     1     3
  H(HETATM    5 1H1  HET A   1)   1.06845409 +0  121.1901574 +0   85.6000000 -1     1     2     3
  H(HETATM    6 2H1  HET A   1)   1.06845409 +0  121.1901574 +0  180.0000000 +0     1     2     5
 
   3  1    4    5    6
   3  2    4    5    6
 

          Geometry optimization using EF

     GRADIENT =  0.35681 IS LESS THAN CUTOFF =  1.00000



          VARIABLE        FUNCTION
 :        85.80000       51.468829
 SYMMETRY html step=0.2 points=100 open(2,2) TRIPLET
 Rotation of Ethylene, CH2 group rotated about the C-C axis. Simple C.I. mixing the pi-M.O.s, showing the TRIPLET surface near the top of the barrier.
 (Keywords: SYMMETRY html step=0.2 points=100 open(2,2) TRIPLET)
  C(HETATM    1  C1  HET A   1)   0.00000000 +0    0.0000000 +0    0.0000000 +0
  C(HETATM    2  C2  HET A   1)   1.41536027 +1    0.0000000 +0    0.0000000 +0     1     0     0
  H(HETATM    3 1H2  HET A   1)   1.06845409 +1  121.1901574 +1    0.0000000 +0     2     1     0
  H(HETATM    4 2H2  HET A   1)   1.06845409 +0  121.1901574 +0  180.0000000 +0     2     1     3
  H(HETATM    5 1H1  HET A   1)   1.06845409 +0  121.1901574 +0   85.8000000 -1     1     2     3
  H(HETATM    6 2H1  HET A   1)   1.06845409 +0  121.1901574 +0  180.0000000 +0     1     2     5
 
   3  1    4    5    6
   3  2    4    5    6
 

          Geometry optimization using EF

     GRADIENT =  0.36122 IS LESS THAN CUTOFF =  1.00000



          VARIABLE        FUNCTION
 :        86.00000       51.462131
 SYMMETRY html step=0.2 points=100 open(2,2) TRIPLET
 Rotation of Ethylene, CH2 group rotated about the C-C axis. Simple C.I. mixing the pi-M.O.s, showing the TRIPLET surface near the top of the barrier.
 (Keywords: SYMMETRY html step=0.2 points=100 open(2,2) TRIPLET)
  C(HETATM    1  C1  HET A   1)   0.00000000 +0    0.0000000 +0    0.0000000 +0
  C(HETATM    2  C2  HET A   1)   1.41536027 +1    0.0000000 +0    0.0000000 +0     1     0     0
  H(HETATM    3 1H2  HET A   1)   1.06845409 +1  121.1901574 +1    0.0000000 +0     2     1     0
  H(HETATM    4 2H2  HET A   1)   1.06845409 +0  121.1901574 +0  180.0000000 +0     2     1     3
  H(HETATM    5 1H1  HET A   1)   1.06845409 +0  121.1901574 +0   86.0000000 -1     1     2     3
  H(HETATM    6 2H1  HET A   1)   1.06845409 +0  121.1901574 +0  180.0000000 +0     1     2     5
 
   3  1    4    5    6
   3  2    4    5    6
 

          Geometry optimization using EF

     GRADIENT =  0.36655 IS LESS THAN CUTOFF =  1.00000



          VARIABLE        FUNCTION
 :        86.20000       51.455760
 SYMMETRY html step=0.2 points=100 open(2,2) TRIPLET
 Rotation of Ethylene, CH2 group rotated about the C-C axis. Simple C.I. mixing the pi-M.O.s, showing the TRIPLET surface near the top of the barrier.
 (Keywords: SYMMETRY html step=0.2 points=100 open(2,2) TRIPLET)
  C(HETATM    1  C1  HET A   1)   0.00000000 +0    0.0000000 +0    0.0000000 +0
  C(HETATM    2  C2  HET A   1)   1.41536027 +1    0.0000000 +0    0.0000000 +0     1     0     0
  H(HETATM    3 1H2  HET A   1)   1.06845409 +1  121.1901574 +1    0.0000000 +0     2     1     0
  H(HETATM    4 2H2  HET A   1)   1.06845409 +0  121.1901574 +0  180.0000000 +0     2     1     3
  H(HETATM    5 1H1  HET A   1)   1.06845409 +0  121.1901574 +0   86.2000000 -1     1     2     3
  H(HETATM    6 2H1  HET A   1)   1.06845409 +0  121.1901574 +0  180.0000000 +0     1     2     5
 
   3  1    4    5    6
   3  2    4    5    6
 

          Geometry optimization using EF

     GRADIENT =  0.37258 IS LESS THAN CUTOFF =  1.00000



          VARIABLE        FUNCTION
 :        86.40000       51.449714
 SYMMETRY html step=0.2 points=100 open(2,2) TRIPLET
 Rotation of Ethylene, CH2 group rotated about the C-C axis. Simple C.I. mixing the pi-M.O.s, showing the TRIPLET surface near the top of the barrier.
 (Keywords: SYMMETRY html step=0.2 points=100 open(2,2) TRIPLET)
  C(HETATM    1  C1  HET A   1)   0.00000000 +0    0.0000000 +0    0.0000000 +0
  C(HETATM    2  C2  HET A   1)   1.41536027 +1    0.0000000 +0    0.0000000 +0     1     0     0
  H(HETATM    3 1H2  HET A   1)   1.06845409 +1  121.1901574 +1    0.0000000 +0     2     1     0
  H(HETATM    4 2H2  HET A   1)   1.06845409 +0  121.1901574 +0  180.0000000 +0     2     1     3
  H(HETATM    5 1H1  HET A   1)   1.06845409 +0  121.1901574 +0   86.4000000 -1     1     2     3
  H(HETATM    6 2H1  HET A   1)   1.06845409 +0  121.1901574 +0  180.0000000 +0     1     2     5
 
   3  1    4    5    6
   3  2    4    5    6
 

          Geometry optimization using EF

     GRADIENT =  0.37912 IS LESS THAN CUTOFF =  1.00000



          VARIABLE        FUNCTION
 :        86.60000       51.443994
 SYMMETRY html step=0.2 points=100 open(2,2) TRIPLET
 Rotation of Ethylene, CH2 group rotated about the C-C axis. Simple C.I. mixing the pi-M.O.s, showing the TRIPLET surface near the top of the barrier.
 (Keywords: SYMMETRY html step=0.2 points=100 open(2,2) TRIPLET)
  C(HETATM    1  C1  HET A   1)   0.00000000 +0    0.0000000 +0    0.0000000 +0
  C(HETATM    2  C2  HET A   1)   1.41536027 +1    0.0000000 +0    0.0000000 +0     1     0     0
  H(HETATM    3 1H2  HET A   1)   1.06845409 +1  121.1901574 +1    0.0000000 +0     2     1     0
  H(HETATM    4 2H2  HET A   1)   1.06845409 +0  121.1901574 +0  180.0000000 +0     2     1     3
  H(HETATM    5 1H1  HET A   1)   1.06845409 +0  121.1901574 +0   86.6000000 -1     1     2     3
  H(HETATM    6 2H1  HET A   1)   1.06845409 +0  121.1901574 +0  180.0000000 +0     1     2     5
 
   3  1    4    5    6
   3  2    4    5    6
 

          Geometry optimization using EF

     GRADIENT =  0.38599 IS LESS THAN CUTOFF =  1.00000



          VARIABLE        FUNCTION
 :        86.80000       51.438600
 SYMMETRY html step=0.2 points=100 open(2,2) TRIPLET
 Rotation of Ethylene, CH2 group rotated about the C-C axis. Simple C.I. mixing the pi-M.O.s, showing the TRIPLET surface near the top of the barrier.
 (Keywords: SYMMETRY html step=0.2 points=100 open(2,2) TRIPLET)
  C(HETATM    1  C1  HET A   1)   0.00000000 +0    0.0000000 +0    0.0000000 +0
  C(HETATM    2  C2  HET A   1)   1.41536027 +1    0.0000000 +0    0.0000000 +0     1     0     0
  H(HETATM    3 1H2  HET A   1)   1.06845409 +1  121.1901574 +1    0.0000000 +0     2     1     0
  H(HETATM    4 2H2  HET A   1)   1.06845409 +0  121.1901574 +0  180.0000000 +0     2     1     3
  H(HETATM    5 1H1  HET A   1)   1.06845409 +0  121.1901574 +0   86.8000000 -1     1     2     3
  H(HETATM    6 2H1  HET A   1)   1.06845409 +0  121.1901574 +0  180.0000000 +0     1     2     5
 
   3  1    4    5    6
   3  2    4    5    6
 

          Geometry optimization using EF

     GRADIENT =  0.39303 IS LESS THAN CUTOFF =  1.00000



          VARIABLE        FUNCTION
 :        87.00000       51.433533
 SYMMETRY html step=0.2 points=100 open(2,2) TRIPLET
 Rotation of Ethylene, CH2 group rotated about the C-C axis. Simple C.I. mixing the pi-M.O.s, showing the TRIPLET surface near the top of the barrier.
 (Keywords: SYMMETRY html step=0.2 points=100 open(2,2) TRIPLET)
  C(HETATM    1  C1  HET A   1)   0.00000000 +0    0.0000000 +0    0.0000000 +0
  C(HETATM    2  C2  HET A   1)   1.41536027 +1    0.0000000 +0    0.0000000 +0     1     0     0
  H(HETATM    3 1H2  HET A   1)   1.06845409 +1  121.1901574 +1    0.0000000 +0     2     1     0
  H(HETATM    4 2H2  HET A   1)   1.06845409 +0  121.1901574 +0  180.0000000 +0     2     1     3
  H(HETATM    5 1H1  HET A   1)   1.06845409 +0  121.1901574 +0   87.0000000 -1     1     2     3
  H(HETATM    6 2H1  HET A   1)   1.06845409 +0  121.1901574 +0  180.0000000 +0     1     2     5
 
   3  1    4    5    6
   3  2    4    5    6
 

          Geometry optimization using EF

     GRADIENT =  0.40010 IS LESS THAN CUTOFF =  1.00000



          VARIABLE        FUNCTION
 :        87.20000       51.428792
 SYMMETRY html step=0.2 points=100 open(2,2) TRIPLET
 Rotation of Ethylene, CH2 group rotated about the C-C axis. Simple C.I. mixing the pi-M.O.s, showing the TRIPLET surface near the top of the barrier.
 (Keywords: SYMMETRY html step=0.2 points=100 open(2,2) TRIPLET)
  C(HETATM    1  C1  HET A   1)   0.00000000 +0    0.0000000 +0    0.0000000 +0
  C(HETATM    2  C2  HET A   1)   1.41536027 +1    0.0000000 +0    0.0000000 +0     1     0     0
  H(HETATM    3 1H2  HET A   1)   1.06845409 +1  121.1901574 +1    0.0000000 +0     2     1     0
  H(HETATM    4 2H2  HET A   1)   1.06845409 +0  121.1901574 +0  180.0000000 +0     2     1     3
  H(HETATM    5 1H1  HET A   1)   1.06845409 +0  121.1901574 +0   87.2000000 -1     1     2     3
  H(HETATM    6 2H1  HET A   1)   1.06845409 +0  121.1901574 +0  180.0000000 +0     1     2     5
 
   3  1    4    5    6
   3  2    4    5    6
 

          Geometry optimization using EF

     GRADIENT =  0.40709 IS LESS THAN CUTOFF =  1.00000



          VARIABLE        FUNCTION
 :        87.40000       51.424377
 SYMMETRY html step=0.2 points=100 open(2,2) TRIPLET
 Rotation of Ethylene, CH2 group rotated about the C-C axis. Simple C.I. mixing the pi-M.O.s, showing the TRIPLET surface near the top of the barrier.
 (Keywords: SYMMETRY html step=0.2 points=100 open(2,2) TRIPLET)
  C(HETATM    1  C1  HET A   1)   0.00000000 +0    0.0000000 +0    0.0000000 +0
  C(HETATM    2  C2  HET A   1)   1.41536027 +1    0.0000000 +0    0.0000000 +0     1     0     0
  H(HETATM    3 1H2  HET A   1)   1.06845409 +1  121.1901574 +1    0.0000000 +0     2     1     0
  H(HETATM    4 2H2  HET A   1)   1.06845409 +0  121.1901574 +0  180.0000000 +0     2     1     3
  H(HETATM    5 1H1  HET A   1)   1.06845409 +0  121.1901574 +0   87.4000000 -1     1     2     3
  H(HETATM    6 2H1  HET A   1)   1.06845409 +0  121.1901574 +0  180.0000000 +0     1     2     5
 
   3  1    4    5    6
   3  2    4    5    6
 

          Geometry optimization using EF

     GRADIENT =  0.41389 IS LESS THAN CUTOFF =  1.00000



          VARIABLE        FUNCTION
 :        87.60000       51.420289
 SYMMETRY html step=0.2 points=100 open(2,2) TRIPLET
 Rotation of Ethylene, CH2 group rotated about the C-C axis. Simple C.I. mixing the pi-M.O.s, showing the TRIPLET surface near the top of the barrier.
 (Keywords: SYMMETRY html step=0.2 points=100 open(2,2) TRIPLET)
  C(HETATM    1  C1  HET A   1)   0.00000000 +0    0.0000000 +0    0.0000000 +0
  C(HETATM    2  C2  HET A   1)   1.41536027 +1    0.0000000 +0    0.0000000 +0     1     0     0
  H(HETATM    3 1H2  HET A   1)   1.06845409 +1  121.1901574 +1    0.0000000 +0     2     1     0
  H(HETATM    4 2H2  HET A   1)   1.06845409 +0  121.1901574 +0  180.0000000 +0     2     1     3
  H(HETATM    5 1H1  HET A   1)   1.06845409 +0  121.1901574 +0   87.6000000 -1     1     2     3
  H(HETATM    6 2H1  HET A   1)   1.06845409 +0  121.1901574 +0  180.0000000 +0     1     2     5
 
   3  1    4    5    6
   3  2    4    5    6
 

          Geometry optimization using EF

     GRADIENT =  0.42042 IS LESS THAN CUTOFF =  1.00000



          VARIABLE        FUNCTION
 :        87.80000       51.416527
 SYMMETRY html step=0.2 points=100 open(2,2) TRIPLET
 Rotation of Ethylene, CH2 group rotated about the C-C axis. Simple C.I. mixing the pi-M.O.s, showing the TRIPLET surface near the top of the barrier.
 (Keywords: SYMMETRY html step=0.2 points=100 open(2,2) TRIPLET)
  C(HETATM    1  C1  HET A   1)   0.00000000 +0    0.0000000 +0    0.0000000 +0
  C(HETATM    2  C2  HET A   1)   1.41536027 +1    0.0000000 +0    0.0000000 +0     1     0     0
  H(HETATM    3 1H2  HET A   1)   1.06845409 +1  121.1901574 +1    0.0000000 +0     2     1     0
  H(HETATM    4 2H2  HET A   1)   1.06845409 +0  121.1901574 +0  180.0000000 +0     2     1     3
  H(HETATM    5 1H1  HET A   1)   1.06845409 +0  121.1901574 +0   87.8000000 -1     1     2     3
  H(HETATM    6 2H1  HET A   1)   1.06845409 +0  121.1901574 +0  180.0000000 +0     1     2     5
 
   3  1    4    5    6
   3  2    4    5    6
 

          Geometry optimization using EF

     GRADIENT =  0.42659 IS LESS THAN CUTOFF =  1.00000



          VARIABLE        FUNCTION
 :        88.00000       51.413093
 SYMMETRY html step=0.2 points=100 open(2,2) TRIPLET
 Rotation of Ethylene, CH2 group rotated about the C-C axis. Simple C.I. mixing the pi-M.O.s, showing the TRIPLET surface near the top of the barrier.
 (Keywords: SYMMETRY html step=0.2 points=100 open(2,2) TRIPLET)
  C(HETATM    1  C1  HET A   1)   0.00000000 +0    0.0000000 +0    0.0000000 +0
  C(HETATM    2  C2  HET A   1)   1.41536027 +1    0.0000000 +0    0.0000000 +0     1     0     0
  H(HETATM    3 1H2  HET A   1)   1.06845409 +1  121.1901574 +1    0.0000000 +0     2     1     0
  H(HETATM    4 2H2  HET A   1)   1.06845409 +0  121.1901574 +0  180.0000000 +0     2     1     3
  H(HETATM    5 1H1  HET A   1)   1.06845409 +0  121.1901574 +0   88.0000000 -1     1     2     3
  H(HETATM    6 2H1  HET A   1)   1.06845409 +0  121.1901574 +0  180.0000000 +0     1     2     5
 
   3  1    4    5    6
   3  2    4    5    6
 

          Geometry optimization using EF

     GRADIENT =  0.43233 IS LESS THAN CUTOFF =  1.00000



          VARIABLE        FUNCTION
 :        88.20000       51.409985
 SYMMETRY html step=0.2 points=100 open(2,2) TRIPLET
 Rotation of Ethylene, CH2 group rotated about the C-C axis. Simple C.I. mixing the pi-M.O.s, showing the TRIPLET surface near the top of the barrier.
 (Keywords: SYMMETRY html step=0.2 points=100 open(2,2) TRIPLET)
  C(HETATM    1  C1  HET A   1)   0.00000000 +0    0.0000000 +0    0.0000000 +0
  C(HETATM    2  C2  HET A   1)   1.41536027 +1    0.0000000 +0    0.0000000 +0     1     0     0
  H(HETATM    3 1H2  HET A   1)   1.06845409 +1  121.1901574 +1    0.0000000 +0     2     1     0
  H(HETATM    4 2H2  HET A   1)   1.06845409 +0  121.1901574 +0  180.0000000 +0     2     1     3
  H(HETATM    5 1H1  HET A   1)   1.06845409 +0  121.1901574 +0   88.2000000 -1     1     2     3
  H(HETATM    6 2H1  HET A   1)   1.06845409 +0  121.1901574 +0  180.0000000 +0     1     2     5
 
   3  1    4    5    6
   3  2    4    5    6
 

          Geometry optimization using EF

     GRADIENT =  0.43761 IS LESS THAN CUTOFF =  1.00000



          VARIABLE        FUNCTION
 :        88.40000       51.407204
 SYMMETRY html step=0.2 points=100 open(2,2) TRIPLET
 Rotation of Ethylene, CH2 group rotated about the C-C axis. Simple C.I. mixing the pi-M.O.s, showing the TRIPLET surface near the top of the barrier.
 (Keywords: SYMMETRY html step=0.2 points=100 open(2,2) TRIPLET)
  C(HETATM    1  C1  HET A   1)   0.00000000 +0    0.0000000 +0    0.0000000 +0
  C(HETATM    2  C2  HET A   1)   1.41536027 +1    0.0000000 +0    0.0000000 +0     1     0     0
  H(HETATM    3 1H2  HET A   1)   1.06845409 +1  121.1901574 +1    0.0000000 +0     2     1     0
  H(HETATM    4 2H2  HET A   1)   1.06845409 +0  121.1901574 +0  180.0000000 +0     2     1     3
  H(HETATM    5 1H1  HET A   1)   1.06845409 +0  121.1901574 +0   88.4000000 -1     1     2     3
  H(HETATM    6 2H1  HET A   1)   1.06845409 +0  121.1901574 +0  180.0000000 +0     1     2     5
 
   3  1    4    5    6
   3  2    4    5    6
 

          Geometry optimization using EF

     GRADIENT =  0.44236 IS LESS THAN CUTOFF =  1.00000



          VARIABLE        FUNCTION
 :        88.60000       51.404750
 SYMMETRY html step=0.2 points=100 open(2,2) TRIPLET
 Rotation of Ethylene, CH2 group rotated about the C-C axis. Simple C.I. mixing the pi-M.O.s, showing the TRIPLET surface near the top of the barrier.
 (Keywords: SYMMETRY html step=0.2 points=100 open(2,2) TRIPLET)
  C(HETATM    1  C1  HET A   1)   0.00000000 +0    0.0000000 +0    0.0000000 +0
  C(HETATM    2  C2  HET A   1)   1.41536027 +1    0.0000000 +0    0.0000000 +0     1     0     0
  H(HETATM    3 1H2  HET A   1)   1.06845409 +1  121.1901574 +1    0.0000000 +0     2     1     0
  H(HETATM    4 2H2  HET A   1)   1.06845409 +0  121.1901574 +0  180.0000000 +0     2     1     3
  H(HETATM    5 1H1  HET A   1)   1.06845409 +0  121.1901574 +0   88.6000000 -1     1     2     3
  H(HETATM    6 2H1  HET A   1)   1.06845409 +0  121.1901574 +0  180.0000000 +0     1     2     5
 
   3  1    4    5    6
   3  2    4    5    6
 

          Geometry optimization using EF

     GRADIENT =  0.44655 IS LESS THAN CUTOFF =  1.00000



          VARIABLE        FUNCTION
 :        88.80000       51.402623
 SYMMETRY html step=0.2 points=100 open(2,2) TRIPLET
 Rotation of Ethylene, CH2 group rotated about the C-C axis. Simple C.I. mixing the pi-M.O.s, showing the TRIPLET surface near the top of the barrier.
 (Keywords: SYMMETRY html step=0.2 points=100 open(2,2) TRIPLET)
  C(HETATM    1  C1  HET A   1)   0.00000000 +0    0.0000000 +0    0.0000000 +0
  C(HETATM    2  C2  HET A   1)   1.41536027 +1    0.0000000 +0    0.0000000 +0     1     0     0
  H(HETATM    3 1H2  HET A   1)   1.06845409 +1  121.1901574 +1    0.0000000 +0     2     1     0
  H(HETATM    4 2H2  HET A   1)   1.06845409 +0  121.1901574 +0  180.0000000 +0     2     1     3
  H(HETATM    5 1H1  HET A   1)   1.06845409 +0  121.1901574 +0   88.8000000 -1     1     2     3
  H(HETATM    6 2H1  HET A   1)   1.06845409 +0  121.1901574 +0  180.0000000 +0     1     2     5
 
   3  1    4    5    6
   3  2    4    5    6
 

          Geometry optimization using EF

     GRADIENT =  0.45014 IS LESS THAN CUTOFF =  1.00000



          VARIABLE        FUNCTION
 :        89.00000       51.400824
 SYMMETRY html step=0.2 points=100 open(2,2) TRIPLET
 Rotation of Ethylene, CH2 group rotated about the C-C axis. Simple C.I. mixing the pi-M.O.s, showing the TRIPLET surface near the top of the barrier.
 (Keywords: SYMMETRY html step=0.2 points=100 open(2,2) TRIPLET)
  C(HETATM    1  C1  HET A   1)   0.00000000 +0    0.0000000 +0    0.0000000 +0
  C(HETATM    2  C2  HET A   1)   1.41536027 +1    0.0000000 +0    0.0000000 +0     1     0     0
  H(HETATM    3 1H2  HET A   1)   1.06845409 +1  121.1901574 +1    0.0000000 +0     2     1     0
  H(HETATM    4 2H2  HET A   1)   1.06845409 +0  121.1901574 +0  180.0000000 +0     2     1     3
  H(HETATM    5 1H1  HET A   1)   1.06845409 +0  121.1901574 +0   89.0000000 -1     1     2     3
  H(HETATM    6 2H1  HET A   1)   1.06845409 +0  121.1901574 +0  180.0000000 +0     1     2     5
 
   3  1    4    5    6
   3  2    4    5    6
 

          Geometry optimization using EF

     GRADIENT =  0.45312 IS LESS THAN CUTOFF =  1.00000



          VARIABLE        FUNCTION
 :        89.20000       51.399351
 SYMMETRY html step=0.2 points=100 open(2,2) TRIPLET
 Rotation of Ethylene, CH2 group rotated about the C-C axis. Simple C.I. mixing the pi-M.O.s, showing the TRIPLET surface near the top of the barrier.
 (Keywords: SYMMETRY html step=0.2 points=100 open(2,2) TRIPLET)
  C(HETATM    1  C1  HET A   1)   0.00000000 +0    0.0000000 +0    0.0000000 +0
  C(HETATM    2  C2  HET A   1)   1.41536027 +1    0.0000000 +0    0.0000000 +0     1     0     0
  H(HETATM    3 1H2  HET A   1)   1.06845409 +1  121.1901574 +1    0.0000000 +0     2     1     0
  H(HETATM    4 2H2  HET A   1)   1.06845409 +0  121.1901574 +0  180.0000000 +0     2     1     3
  H(HETATM    5 1H1  HET A   1)   1.06845409 +0  121.1901574 +0   89.2000000 -1     1     2     3
  H(HETATM    6 2H1  HET A   1)   1.06845409 +0  121.1901574 +0  180.0000000 +0     1     2     5
 
   3  1    4    5    6
   3  2    4    5    6
 

          Geometry optimization using EF

     GRADIENT =  0.45545 IS LESS THAN CUTOFF =  1.00000



          VARIABLE        FUNCTION
 :        89.40000       51.398206
 SYMMETRY html step=0.2 points=100 open(2,2) TRIPLET
 Rotation of Ethylene, CH2 group rotated about the C-C axis. Simple C.I. mixing the pi-M.O.s, showing the TRIPLET surface near the top of the barrier.
 (Keywords: SYMMETRY html step=0.2 points=100 open(2,2) TRIPLET)
  C(HETATM    1  C1  HET A   1)   0.00000000 +0    0.0000000 +0    0.0000000 +0
  C(HETATM    2  C2  HET A   1)   1.41536027 +1    0.0000000 +0    0.0000000 +0     1     0     0
  H(HETATM    3 1H2  HET A   1)   1.06845409 +1  121.1901574 +1    0.0000000 +0     2     1     0
  H(HETATM    4 2H2  HET A   1)   1.06845409 +0  121.1901574 +0  180.0000000 +0     2     1     3
  H(HETATM    5 1H1  HET A   1)   1.06845409 +0  121.1901574 +0   89.4000000 -1     1     2     3
  H(HETATM    6 2H1  HET A   1)   1.06845409 +0  121.1901574 +0  180.0000000 +0     1     2     5
 
   3  1    4    5    6
   3  2    4    5    6
 

          Geometry optimization using EF

     GRADIENT =  0.45713 IS LESS THAN CUTOFF =  1.00000



          VARIABLE        FUNCTION
 :        89.60000       51.397388
 SYMMETRY html step=0.2 points=100 open(2,2) TRIPLET
 Rotation of Ethylene, CH2 group rotated about the C-C axis. Simple C.I. mixing the pi-M.O.s, showing the TRIPLET surface near the top of the barrier.
 (Keywords: SYMMETRY html step=0.2 points=100 open(2,2) TRIPLET)
  C(HETATM    1  C1  HET A   1)   0.00000000 +0    0.0000000 +0    0.0000000 +0
  C(HETATM    2  C2  HET A   1)   1.41536027 +1    0.0000000 +0    0.0000000 +0     1     0     0
  H(HETATM    3 1H2  HET A   1)   1.06845409 +1  121.1901574 +1    0.0000000 +0     2     1     0
  H(HETATM    4 2H2  HET A   1)   1.06845409 +0  121.1901574 +0  180.0000000 +0     2     1     3
  H(HETATM    5 1H1  HET A   1)   1.06845409 +0  121.1901574 +0   89.6000000 -1     1     2     3
  H(HETATM    6 2H1  HET A   1)   1.06845409 +0  121.1901574 +0  180.0000000 +0     1     2     5
 
   3  1    4    5    6
   3  2    4    5    6
 

          Geometry optimization using EF

     GRADIENT =  0.45814 IS LESS THAN CUTOFF =  1.00000



          VARIABLE        FUNCTION
 :        89.80000       51.396897
 SYMMETRY html step=0.2 points=100 open(2,2) TRIPLET
 Rotation of Ethylene, CH2 group rotated about the C-C axis. Simple C.I. mixing the pi-M.O.s, showing the TRIPLET surface near the top of the barrier.
 (Keywords: SYMMETRY html step=0.2 points=100 open(2,2) TRIPLET)
  C(HETATM    1  C1  HET A   1)   0.00000000 +0    0.0000000 +0    0.0000000 +0
  C(HETATM    2  C2  HET A   1)   1.41536027 +1    0.0000000 +0    0.0000000 +0     1     0     0
  H(HETATM    3 1H2  HET A   1)   1.06845409 +1  121.1901574 +1    0.0000000 +0     2     1     0
  H(HETATM    4 2H2  HET A   1)   1.06845409 +0  121.1901574 +0  180.0000000 +0     2     1     3
  H(HETATM    5 1H1  HET A   1)   1.06845409 +0  121.1901574 +0   89.8000000 -1     1     2     3
  H(HETATM    6 2H1  HET A   1)   1.06845409 +0  121.1901574 +0  180.0000000 +0     1     2     5
 
   3  1    4    5    6
   3  2    4    5    6
 

          Geometry optimization using EF

     GRADIENT =  0.45848 IS LESS THAN CUTOFF =  1.00000



          VARIABLE        FUNCTION
 :        90.00000       51.396733
 SYMMETRY html step=0.2 points=100 open(2,2) TRIPLET
 Rotation of Ethylene, CH2 group rotated about the C-C axis. Simple C.I. mixing the pi-M.O.s, showing the TRIPLET surface near the top of the barrier.
 (Keywords: SYMMETRY html step=0.2 points=100 open(2,2) TRIPLET)
  C(HETATM    1  C1  HET A   1)   0.00000000 +0    0.0000000 +0    0.0000000 +0
  C(HETATM    2  C2  HET A   1)   1.41536027 +1    0.0000000 +0    0.0000000 +0     1     0     0
  H(HETATM    3 1H2  HET A   1)   1.06845409 +1  121.1901574 +1    0.0000000 +0     2     1     0
  H(HETATM    4 2H2  HET A   1)   1.06845409 +0  121.1901574 +0  180.0000000 +0     2     1     3
  H(HETATM    5 1H1  HET A   1)   1.06845409 +0  121.1901574 +0   90.0000000 -1     1     2     3
  H(HETATM    6 2H1  HET A   1)   1.06845409 +0  121.1901574 +0  180.0000000 +0     1     2     5
 
   3  1    4    5    6
   3  2    4    5    6
 

          Geometry optimization using EF

     GRADIENT =  0.45814 IS LESS THAN CUTOFF =  1.00000



          VARIABLE        FUNCTION
 :        90.20000       51.396897
 SYMMETRY html step=0.2 points=100 open(2,2) TRIPLET
 Rotation of Ethylene, CH2 group rotated about the C-C axis. Simple C.I. mixing the pi-M.O.s, showing the TRIPLET surface near the top of the barrier.
 (Keywords: SYMMETRY html step=0.2 points=100 open(2,2) TRIPLET)
  C(HETATM    1  C1  HET A   1)   0.00000000 +0    0.0000000 +0    0.0000000 +0
  C(HETATM    2  C2  HET A   1)   1.41536027 +1    0.0000000 +0    0.0000000 +0     1     0     0
  H(HETATM    3 1H2  HET A   1)   1.06845409 +1  121.1901574 +1    0.0000000 +0     2     1     0
  H(HETATM    4 2H2  HET A   1)   1.06845409 +0  121.1901574 +0  180.0000000 +0     2     1     3
  H(HETATM    5 1H1  HET A   1)   1.06845409 +0  121.1901574 +0   90.2000000 -1     1     2     3
  H(HETATM    6 2H1  HET A   1)   1.06845409 +0  121.1901574 +0  180.0000000 +0     1     2     5
 
   3  1    4    5    6
   3  2    4    5    6
 

          Geometry optimization using EF

     GRADIENT =  0.45713 IS LESS THAN CUTOFF =  1.00000



          VARIABLE        FUNCTION
 :        90.40000       51.397388
 SYMMETRY html step=0.2 points=100 open(2,2) TRIPLET
 Rotation of Ethylene, CH2 group rotated about the C-C axis. Simple C.I. mixing the pi-M.O.s, showing the TRIPLET surface near the top of the barrier.
 (Keywords: SYMMETRY html step=0.2 points=100 open(2,2) TRIPLET)
  C(HETATM    1  C1  HET A   1)   0.00000000 +0    0.0000000 +0    0.0000000 +0
  C(HETATM    2  C2  HET A   1)   1.41536027 +1    0.0000000 +0    0.0000000 +0     1     0     0
  H(HETATM    3 1H2  HET A   1)   1.06845409 +1  121.1901574 +1    0.0000000 +0     2     1     0
  H(HETATM    4 2H2  HET A   1)   1.06845409 +0  121.1901574 +0  180.0000000 +0     2     1     3
  H(HETATM    5 1H1  HET A   1)   1.06845409 +0  121.1901574 +0   90.4000000 -1     1     2     3
  H(HETATM    6 2H1  HET A   1)   1.06845409 +0  121.1901574 +0  180.0000000 +0     1     2     5
 
   3  1    4    5    6
   3  2    4    5    6
 

          Geometry optimization using EF

     GRADIENT =  0.45545 IS LESS THAN CUTOFF =  1.00000



          VARIABLE        FUNCTION
 :        90.60000       51.398206
 SYMMETRY html step=0.2 points=100 open(2,2) TRIPLET
 Rotation of Ethylene, CH2 group rotated about the C-C axis. Simple C.I. mixing the pi-M.O.s, showing the TRIPLET surface near the top of the barrier.
 (Keywords: SYMMETRY html step=0.2 points=100 open(2,2) TRIPLET)
  C(HETATM    1  C1  HET A   1)   0.00000000 +0    0.0000000 +0    0.0000000 +0
  C(HETATM    2  C2  HET A   1)   1.41536027 +1    0.0000000 +0    0.0000000 +0     1     0     0
  H(HETATM    3 1H2  HET A   1)   1.06845409 +1  121.1901574 +1    0.0000000 +0     2     1     0
  H(HETATM    4 2H2  HET A   1)   1.06845409 +0  121.1901574 +0  180.0000000 +0     2     1     3
  H(HETATM    5 1H1  HET A   1)   1.06845409 +0  121.1901574 +0   90.6000000 -1     1     2     3
  H(HETATM    6 2H1  HET A   1)   1.06845409 +0  121.1901574 +0  180.0000000 +0     1     2     5
 
   3  1    4    5    6
   3  2    4    5    6
 

          Geometry optimization using EF

     GRADIENT =  0.45312 IS LESS THAN CUTOFF =  1.00000



          VARIABLE        FUNCTION
 :        90.80000       51.399351
 SYMMETRY html step=0.2 points=100 open(2,2) TRIPLET
 Rotation of Ethylene, CH2 group rotated about the C-C axis. Simple C.I. mixing the pi-M.O.s, showing the TRIPLET surface near the top of the barrier.
 (Keywords: SYMMETRY html step=0.2 points=100 open(2,2) TRIPLET)
  C(HETATM    1  C1  HET A   1)   0.00000000 +0    0.0000000 +0    0.0000000 +0
  C(HETATM    2  C2  HET A   1)   1.41536027 +1    0.0000000 +0    0.0000000 +0     1     0     0
  H(HETATM    3 1H2  HET A   1)   1.06845409 +1  121.1901574 +1    0.0000000 +0     2     1     0
  H(HETATM    4 2H2  HET A   1)   1.06845409 +0  121.1901574 +0  180.0000000 +0     2     1     3
  H(HETATM    5 1H1  HET A   1)   1.06845409 +0  121.1901574 +0   90.8000000 -1     1     2     3
  H(HETATM    6 2H1  HET A   1)   1.06845409 +0  121.1901574 +0  180.0000000 +0     1     2     5
 
   3  1    4    5    6
   3  2    4    5    6
 

          Geometry optimization using EF

     GRADIENT =  0.45014 IS LESS THAN CUTOFF =  1.00000



          VARIABLE        FUNCTION
 :        91.00000       51.400824
 SYMMETRY html step=0.2 points=100 open(2,2) TRIPLET
 Rotation of Ethylene, CH2 group rotated about the C-C axis. Simple C.I. mixing the pi-M.O.s, showing the TRIPLET surface near the top of the barrier.
 (Keywords: SYMMETRY html step=0.2 points=100 open(2,2) TRIPLET)
  C(HETATM    1  C1  HET A   1)   0.00000000 +0    0.0000000 +0    0.0000000 +0
  C(HETATM    2  C2  HET A   1)   1.41536027 +1    0.0000000 +0    0.0000000 +0     1     0     0
  H(HETATM    3 1H2  HET A   1)   1.06845409 +1  121.1901574 +1    0.0000000 +0     2     1     0
  H(HETATM    4 2H2  HET A   1)   1.06845409 +0  121.1901574 +0  180.0000000 +0     2     1     3
  H(HETATM    5 1H1  HET A   1)   1.06845409 +0  121.1901574 +0   91.0000000 -1     1     2     3
  H(HETATM    6 2H1  HET A   1)   1.06845409 +0  121.1901574 +0  180.0000000 +0     1     2     5
 
   3  1    4    5    6
   3  2    4    5    6
 

          Geometry optimization using EF

     GRADIENT =  0.44655 IS LESS THAN CUTOFF =  1.00000



          VARIABLE        FUNCTION
 :        91.20000       51.402623
 SYMMETRY html step=0.2 points=100 open(2,2) TRIPLET
 Rotation of Ethylene, CH2 group rotated about the C-C axis. Simple C.I. mixing the pi-M.O.s, showing the TRIPLET surface near the top of the barrier.
 (Keywords: SYMMETRY html step=0.2 points=100 open(2,2) TRIPLET)
  C(HETATM    1  C1  HET A   1)   0.00000000 +0    0.0000000 +0    0.0000000 +0
  C(HETATM    2  C2  HET A   1)   1.41536027 +1    0.0000000 +0    0.0000000 +0     1     0     0
  H(HETATM    3 1H2  HET A   1)   1.06845409 +1  121.1901574 +1    0.0000000 +0     2     1     0
  H(HETATM    4 2H2  HET A   1)   1.06845409 +0  121.1901574 +0  180.0000000 +0     2     1     3
  H(HETATM    5 1H1  HET A   1)   1.06845409 +0  121.1901574 +0   91.2000000 -1     1     2     3
  H(HETATM    6 2H1  HET A   1)   1.06845409 +0  121.1901574 +0  180.0000000 +0     1     2     5
 
   3  1    4    5    6
   3  2    4    5    6
 

          Geometry optimization using EF

     GRADIENT =  0.44236 IS LESS THAN CUTOFF =  1.00000



          VARIABLE        FUNCTION
 :        91.40000       51.404750
 SYMMETRY html step=0.2 points=100 open(2,2) TRIPLET
 Rotation of Ethylene, CH2 group rotated about the C-C axis. Simple C.I. mixing the pi-M.O.s, showing the TRIPLET surface near the top of the barrier.
 (Keywords: SYMMETRY html step=0.2 points=100 open(2,2) TRIPLET)
  C(HETATM    1  C1  HET A   1)   0.00000000 +0    0.0000000 +0    0.0000000 +0
  C(HETATM    2  C2  HET A   1)   1.41536027 +1    0.0000000 +0    0.0000000 +0     1     0     0
  H(HETATM    3 1H2  HET A   1)   1.06845409 +1  121.1901574 +1    0.0000000 +0     2     1     0
  H(HETATM    4 2H2  HET A   1)   1.06845409 +0  121.1901574 +0  180.0000000 +0     2     1     3
  H(HETATM    5 1H1  HET A   1)   1.06845409 +0  121.1901574 +0   91.4000000 -1     1     2     3
  H(HETATM    6 2H1  HET A   1)   1.06845409 +0  121.1901574 +0  180.0000000 +0     1     2     5
 
   3  1    4    5    6
   3  2    4    5    6
 

          Geometry optimization using EF

     GRADIENT =  0.43761 IS LESS THAN CUTOFF =  1.00000



          VARIABLE        FUNCTION
 :        91.60000       51.407204
 SYMMETRY html step=0.2 points=100 open(2,2) TRIPLET
 Rotation of Ethylene, CH2 group rotated about the C-C axis. Simple C.I. mixing the pi-M.O.s, showing the TRIPLET surface near the top of the barrier.
 (Keywords: SYMMETRY html step=0.2 points=100 open(2,2) TRIPLET)
  C(HETATM    1  C1  HET A   1)   0.00000000 +0    0.0000000 +0    0.0000000 +0
  C(HETATM    2  C2  HET A   1)   1.41536027 +1    0.0000000 +0    0.0000000 +0     1     0     0
  H(HETATM    3 1H2  HET A   1)   1.06845409 +1  121.1901574 +1    0.0000000 +0     2     1     0
  H(HETATM    4 2H2  HET A   1)   1.06845409 +0  121.1901574 +0  180.0000000 +0     2     1     3
  H(HETATM    5 1H1  HET A   1)   1.06845409 +0  121.1901574 +0   91.6000000 -1     1     2     3
  H(HETATM    6 2H1  HET A   1)   1.06845409 +0  121.1901574 +0  180.0000000 +0     1     2     5
 
   3  1    4    5    6
   3  2    4    5    6
 

          Geometry optimization using EF

     GRADIENT =  0.43233 IS LESS THAN CUTOFF =  1.00000



          VARIABLE        FUNCTION
 :        91.80000       51.409985
 SYMMETRY html step=0.2 points=100 open(2,2) TRIPLET
 Rotation of Ethylene, CH2 group rotated about the C-C axis. Simple C.I. mixing the pi-M.O.s, showing the TRIPLET surface near the top of the barrier.
 (Keywords: SYMMETRY html step=0.2 points=100 open(2,2) TRIPLET)
  C(HETATM    1  C1  HET A   1)   0.00000000 +0    0.0000000 +0    0.0000000 +0
  C(HETATM    2  C2  HET A   1)   1.41536027 +1    0.0000000 +0    0.0000000 +0     1     0     0
  H(HETATM    3 1H2  HET A   1)   1.06845409 +1  121.1901574 +1    0.0000000 +0     2     1     0
  H(HETATM    4 2H2  HET A   1)   1.06845409 +0  121.1901574 +0  180.0000000 +0     2     1     3
  H(HETATM    5 1H1  HET A   1)   1.06845409 +0  121.1901574 +0   91.8000000 -1     1     2     3
  H(HETATM    6 2H1  HET A   1)   1.06845409 +0  121.1901574 +0  180.0000000 +0     1     2     5
 
   3  1    4    5    6
   3  2    4    5    6
 

          Geometry optimization using EF

     GRADIENT =  0.42659 IS LESS THAN CUTOFF =  1.00000



          VARIABLE        FUNCTION
 :        92.00000       51.413093
 SYMMETRY html step=0.2 points=100 open(2,2) TRIPLET
 Rotation of Ethylene, CH2 group rotated about the C-C axis. Simple C.I. mixing the pi-M.O.s, showing the TRIPLET surface near the top of the barrier.
 (Keywords: SYMMETRY html step=0.2 points=100 open(2,2) TRIPLET)
  C(HETATM    1  C1  HET A   1)   0.00000000 +0    0.0000000 +0    0.0000000 +0
  C(HETATM    2  C2  HET A   1)   1.41536027 +1    0.0000000 +0    0.0000000 +0     1     0     0
  H(HETATM    3 1H2  HET A   1)   1.06845409 +1  121.1901574 +1    0.0000000 +0     2     1     0
  H(HETATM    4 2H2  HET A   1)   1.06845409 +0  121.1901574 +0  180.0000000 +0     2     1     3
  H(HETATM    5 1H1  HET A   1)   1.06845409 +0  121.1901574 +0   92.0000000 -1     1     2     3
  H(HETATM    6 2H1  HET A   1)   1.06845409 +0  121.1901574 +0  180.0000000 +0     1     2     5
 
   3  1    4    5    6
   3  2    4    5    6
 

          Geometry optimization using EF

     GRADIENT =  0.42042 IS LESS THAN CUTOFF =  1.00000



          VARIABLE        FUNCTION
 :        92.20000       51.416527
 SYMMETRY html step=0.2 points=100 open(2,2) TRIPLET
 Rotation of Ethylene, CH2 group rotated about the C-C axis. Simple C.I. mixing the pi-M.O.s, showing the TRIPLET surface near the top of the barrier.
 (Keywords: SYMMETRY html step=0.2 points=100 open(2,2) TRIPLET)
  C(HETATM    1  C1  HET A   1)   0.00000000 +0    0.0000000 +0    0.0000000 +0
  C(HETATM    2  C2  HET A   1)   1.41536027 +1    0.0000000 +0    0.0000000 +0     1     0     0
  H(HETATM    3 1H2  HET A   1)   1.06845409 +1  121.1901574 +1    0.0000000 +0     2     1     0
  H(HETATM    4 2H2  HET A   1)   1.06845409 +0  121.1901574 +0  180.0000000 +0     2     1     3
  H(HETATM    5 1H1  HET A   1)   1.06845409 +0  121.1901574 +0   92.2000000 -1     1     2     3
  H(HETATM    6 2H1  HET A   1)   1.06845409 +0  121.1901574 +0  180.0000000 +0     1     2     5
 
   3  1    4    5    6
   3  2    4    5    6
 

          Geometry optimization using EF

     GRADIENT =  0.41389 IS LESS THAN CUTOFF =  1.00000



          VARIABLE        FUNCTION
 :        92.40000       51.420289
 SYMMETRY html step=0.2 points=100 open(2,2) TRIPLET
 Rotation of Ethylene, CH2 group rotated about the C-C axis. Simple C.I. mixing the pi-M.O.s, showing the TRIPLET surface near the top of the barrier.
 (Keywords: SYMMETRY html step=0.2 points=100 open(2,2) TRIPLET)
  C(HETATM    1  C1  HET A   1)   0.00000000 +0    0.0000000 +0    0.0000000 +0
  C(HETATM    2  C2  HET A   1)   1.41536027 +1    0.0000000 +0    0.0000000 +0     1     0     0
  H(HETATM    3 1H2  HET A   1)   1.06845409 +1  121.1901574 +1    0.0000000 +0     2     1     0
  H(HETATM    4 2H2  HET A   1)   1.06845409 +0  121.1901574 +0  180.0000000 +0     2     1     3
  H(HETATM    5 1H1  HET A   1)   1.06845409 +0  121.1901574 +0   92.4000000 -1     1     2     3
  H(HETATM    6 2H1  HET A   1)   1.06845409 +0  121.1901574 +0  180.0000000 +0     1     2     5
 
   3  1    4    5    6
   3  2    4    5    6
 

          Geometry optimization using EF

     GRADIENT =  0.40709 IS LESS THAN CUTOFF =  1.00000



          VARIABLE        FUNCTION
 :        92.60000       51.424377
 SYMMETRY html step=0.2 points=100 open(2,2) TRIPLET
 Rotation of Ethylene, CH2 group rotated about the C-C axis. Simple C.I. mixing the pi-M.O.s, showing the TRIPLET surface near the top of the barrier.
 (Keywords: SYMMETRY html step=0.2 points=100 open(2,2) TRIPLET)
  C(HETATM    1  C1  HET A   1)   0.00000000 +0    0.0000000 +0    0.0000000 +0
  C(HETATM    2  C2  HET A   1)   1.41536027 +1    0.0000000 +0    0.0000000 +0     1     0     0
  H(HETATM    3 1H2  HET A   1)   1.06845409 +1  121.1901574 +1    0.0000000 +0     2     1     0
  H(HETATM    4 2H2  HET A   1)   1.06845409 +0  121.1901574 +0  180.0000000 +0     2     1     3
  H(HETATM    5 1H1  HET A   1)   1.06845409 +0  121.1901574 +0   92.6000000 -1     1     2     3
  H(HETATM    6 2H1  HET A   1)   1.06845409 +0  121.1901574 +0  180.0000000 +0     1     2     5
 
   3  1    4    5    6
   3  2    4    5    6
 

          Geometry optimization using EF

     GRADIENT =  0.40010 IS LESS THAN CUTOFF =  1.00000



          VARIABLE        FUNCTION
 :        92.80000       51.428792
 SYMMETRY html step=0.2 points=100 open(2,2) TRIPLET
 Rotation of Ethylene, CH2 group rotated about the C-C axis. Simple C.I. mixing the pi-M.O.s, showing the TRIPLET surface near the top of the barrier.
 (Keywords: SYMMETRY html step=0.2 points=100 open(2,2) TRIPLET)
  C(HETATM    1  C1  HET A   1)   0.00000000 +0    0.0000000 +0    0.0000000 +0
  C(HETATM    2  C2  HET A   1)   1.41536027 +1    0.0000000 +0    0.0000000 +0     1     0     0
  H(HETATM    3 1H2  HET A   1)   1.06845409 +1  121.1901574 +1    0.0000000 +0     2     1     0
  H(HETATM    4 2H2  HET A   1)   1.06845409 +0  121.1901574 +0  180.0000000 +0     2     1     3
  H(HETATM    5 1H1  HET A   1)   1.06845409 +0  121.1901574 +0   92.8000000 -1     1     2     3
  H(HETATM    6 2H1  HET A   1)   1.06845409 +0  121.1901574 +0  180.0000000 +0     1     2     5
 
   3  1    4    5    6
   3  2    4    5    6
 

          Geometry optimization using EF

     GRADIENT =  0.39303 IS LESS THAN CUTOFF =  1.00000



          VARIABLE        FUNCTION
 :        93.00000       51.433533
 SYMMETRY html step=0.2 points=100 open(2,2) TRIPLET
 Rotation of Ethylene, CH2 group rotated about the C-C axis. Simple C.I. mixing the pi-M.O.s, showing the TRIPLET surface near the top of the barrier.
 (Keywords: SYMMETRY html step=0.2 points=100 open(2,2) TRIPLET)
  C(HETATM    1  C1  HET A   1)   0.00000000 +0    0.0000000 +0    0.0000000 +0
  C(HETATM    2  C2  HET A   1)   1.41536027 +1    0.0000000 +0    0.0000000 +0     1     0     0
  H(HETATM    3 1H2  HET A   1)   1.06845409 +1  121.1901574 +1    0.0000000 +0     2     1     0
  H(HETATM    4 2H2  HET A   1)   1.06845409 +0  121.1901574 +0  180.0000000 +0     2     1     3
  H(HETATM    5 1H1  HET A   1)   1.06845409 +0  121.1901574 +0   93.0000000 -1     1     2     3
  H(HETATM    6 2H1  HET A   1)   1.06845409 +0  121.1901574 +0  180.0000000 +0     1     2     5
 
   3  1    4    5    6
   3  2    4    5    6
 

          Geometry optimization using EF

     GRADIENT =  0.38599 IS LESS THAN CUTOFF =  1.00000



          VARIABLE        FUNCTION
 :        93.20000       51.438600
 SYMMETRY html step=0.2 points=100 open(2,2) TRIPLET
 Rotation of Ethylene, CH2 group rotated about the C-C axis. Simple C.I. mixing the pi-M.O.s, showing the TRIPLET surface near the top of the barrier.
 (Keywords: SYMMETRY html step=0.2 points=100 open(2,2) TRIPLET)
  C(HETATM    1  C1  HET A   1)   0.00000000 +0    0.0000000 +0    0.0000000 +0
  C(HETATM    2  C2  HET A   1)   1.41536027 +1    0.0000000 +0    0.0000000 +0     1     0     0
  H(HETATM    3 1H2  HET A   1)   1.06845409 +1  121.1901574 +1    0.0000000 +0     2     1     0
  H(HETATM    4 2H2  HET A   1)   1.06845409 +0  121.1901574 +0  180.0000000 +0     2     1     3
  H(HETATM    5 1H1  HET A   1)   1.06845409 +0  121.1901574 +0   93.2000000 -1     1     2     3
  H(HETATM    6 2H1  HET A   1)   1.06845409 +0  121.1901574 +0  180.0000000 +0     1     2     5
 
   3  1    4    5    6
   3  2    4    5    6
 

          Geometry optimization using EF

     GRADIENT =  0.37912 IS LESS THAN CUTOFF =  1.00000



          VARIABLE        FUNCTION
 :        93.40000       51.443994
 SYMMETRY html step=0.2 points=100 open(2,2) TRIPLET
 Rotation of Ethylene, CH2 group rotated about the C-C axis. Simple C.I. mixing the pi-M.O.s, showing the TRIPLET surface near the top of the barrier.
 (Keywords: SYMMETRY html step=0.2 points=100 open(2,2) TRIPLET)
  C(HETATM    1  C1  HET A   1)   0.00000000 +0    0.0000000 +0    0.0000000 +0
  C(HETATM    2  C2  HET A   1)   1.41536027 +1    0.0000000 +0    0.0000000 +0     1     0     0
  H(HETATM    3 1H2  HET A   1)   1.06845409 +1  121.1901574 +1    0.0000000 +0     2     1     0
  H(HETATM    4 2H2  HET A   1)   1.06845409 +0  121.1901574 +0  180.0000000 +0     2     1     3
  H(HETATM    5 1H1  HET A   1)   1.06845409 +0  121.1901574 +0   93.4000000 -1     1     2     3
  H(HETATM    6 2H1  HET A   1)   1.06845409 +0  121.1901574 +0  180.0000000 +0     1     2     5
 
   3  1    4    5    6
   3  2    4    5    6
 

          Geometry optimization using EF

     GRADIENT =  0.37258 IS LESS THAN CUTOFF =  1.00000



          VARIABLE        FUNCTION
 :        93.60000       51.449714
 SYMMETRY html step=0.2 points=100 open(2,2) TRIPLET
 Rotation of Ethylene, CH2 group rotated about the C-C axis. Simple C.I. mixing the pi-M.O.s, showing the TRIPLET surface near the top of the barrier.
 (Keywords: SYMMETRY html step=0.2 points=100 open(2,2) TRIPLET)
  C(HETATM    1  C1  HET A   1)   0.00000000 +0    0.0000000 +0    0.0000000 +0
  C(HETATM    2  C2  HET A   1)   1.41536027 +1    0.0000000 +0    0.0000000 +0     1     0     0
  H(HETATM    3 1H2  HET A   1)   1.06845409 +1  121.1901574 +1    0.0000000 +0     2     1     0
  H(HETATM    4 2H2  HET A   1)   1.06845409 +0  121.1901574 +0  180.0000000 +0     2     1     3
  H(HETATM    5 1H1  HET A   1)   1.06845409 +0  121.1901574 +0   93.6000000 -1     1     2     3
  H(HETATM    6 2H1  HET A   1)   1.06845409 +0  121.1901574 +0  180.0000000 +0     1     2     5
 
   3  1    4    5    6
   3  2    4    5    6
 

          Geometry optimization using EF

     GRADIENT =  0.36655 IS LESS THAN CUTOFF =  1.00000



          VARIABLE        FUNCTION
 :        93.80000       51.455760
 SYMMETRY html step=0.2 points=100 open(2,2) TRIPLET
 Rotation of Ethylene, CH2 group rotated about the C-C axis. Simple C.I. mixing the pi-M.O.s, showing the TRIPLET surface near the top of the barrier.
 (Keywords: SYMMETRY html step=0.2 points=100 open(2,2) TRIPLET)
  C(HETATM    1  C1  HET A   1)   0.00000000 +0    0.0000000 +0    0.0000000 +0
[...]
 Rotation of Ethylene, CH2 group rotated about the C-C axis. Simple C.I. mixing the pi-M.O.s, showing the TRIPLET surface near the top of the barrier.
 (Keywords: SYMMETRY html step=0.2 points=100 open(2,2) TRIPLET)
  C(HETATM    1  C1  HET A   1)   0.00000000 +0    0.0000000 +0    0.0000000 +0
  C(HETATM    2  C2  HET A   1)   1.41536027 +1    0.0000000 +0    0.0000000 +0     1     0     0
  H(HETATM    3 1H2  HET A   1)   1.06845409 +1  121.1901574 +1    0.0000000 +0     2     1     0
  H(HETATM    4 2H2  HET A   1)   1.06845409 +0  121.1901574 +0  180.0000000 +0     2     1     3
  H(HETATM    5 1H1  HET A   1)   1.06845409 +0  121.1901574 +0   97.0000000 -1     1     2     3
  H(HETATM    6 2H1  HET A   1)   1.06845409 +0  121.1901574 +0  180.0000000 +0     1     2     5
 
   3  1    4    5    6
   3  2    4    5    6
 

          Geometry optimization using EF

     GRADIENT =  0.52272 IS LESS THAN CUTOFF =  1.00000



          VARIABLE        FUNCTION
 :        97.20000       51.608237
 SYMMETRY html step=0.2 points=100 open(2,2) TRIPLET
 Rotation of Ethylene, CH2 group rotated about the C-C axis. Simple C.I. mixing the pi-M.O.s, showing the TRIPLET surface near the top of the barrier.
 (Keywords: SYMMETRY html step=0.2 points=100 open(2,2) TRIPLET)
  C(HETATM    1  C1  HET A   1)   0.00000000 +0    0.0000000 +0    0.0000000 +0
  C(HETATM    2  C2  HET A   1)   1.41536027 +1    0.0000000 +0    0.0000000 +0     1     0     0
  H(HETATM    3 1H2  HET A   1)   1.06845409 +1  121.1901574 +1    0.0000000 +0     2     1     0
  H(HETATM    4 2H2  HET A   1)   1.06845409 +0  121.1901574 +0  180.0000000 +0     2     1     3
  H(HETATM    5 1H1  HET A   1)   1.06845409 +0  121.1901574 +0   97.2000000 -1     1     2     3
  H(HETATM    6 2H1  HET A   1)   1.06845409 +0  121.1901574 +0  180.0000000 +0     1     2     5
 
   3  1    4    5    6
   3  2    4    5    6
 

          Geometry optimization using EF

     GRADIENT =  0.55178 IS LESS THAN CUTOFF =  1.00000



          VARIABLE        FUNCTION
 :        97.40000       51.620117
 SYMMETRY html step=0.2 points=100 open(2,2) TRIPLET
 Rotation of Ethylene, CH2 group rotated about the C-C axis. Simple C.I. mixing the pi-M.O.s, showing the TRIPLET surface near the top of the barrier.
 (Keywords: SYMMETRY html step=0.2 points=100 open(2,2) TRIPLET)
  C(HETATM    1  C1  HET A   1)   0.00000000 +0    0.0000000 +0    0.0000000 +0
  C(HETATM    2  C2  HET A   1)   1.41536027 +1    0.0000000 +0    0.0000000 +0     1     0     0
  H(HETATM    3 1H2  HET A   1)   1.06845409 +1  121.1901574 +1    0.0000000 +0     2     1     0
  H(HETATM    4 2H2  HET A   1)   1.06845409 +0  121.1901574 +0  180.0000000 +0     2     1     3
  H(HETATM    5 1H1  HET A   1)   1.06845409 +0  121.1901574 +0   97.4000000 -1     1     2     3
  H(HETATM    6 2H1  HET A   1)   1.06845409 +0  121.1901574 +0  180.0000000 +0     1     2     5
 
   3  1    4    5    6
   3  2    4    5    6
 

          Geometry optimization using EF

     GRADIENT =  0.58276 IS LESS THAN CUTOFF =  1.00000



          VARIABLE        FUNCTION
 :        97.60000       51.632319
 SYMMETRY html step=0.2 points=100 open(2,2) TRIPLET
 Rotation of Ethylene, CH2 group rotated about the C-C axis. Simple C.I. mixing the pi-M.O.s, showing the TRIPLET surface near the top of the barrier.
 (Keywords: SYMMETRY html step=0.2 points=100 open(2,2) TRIPLET)
  C(HETATM    1  C1  HET A   1)   0.00000000 +0    0.0000000 +0    0.0000000 +0
  C(HETATM    2  C2  HET A   1)   1.41536027 +1    0.0000000 +0    0.0000000 +0     1     0     0
  H(HETATM    3 1H2  HET A   1)   1.06845409 +1  121.1901574 +1    0.0000000 +0     2     1     0
  H(HETATM    4 2H2  HET A   1)   1.06845409 +0  121.1901574 +0  180.0000000 +0     2     1     3
  H(HETATM    5 1H1  HET A   1)   1.06845409 +0  121.1901574 +0   97.6000000 -1     1     2     3
  H(HETATM    6 2H1  HET A   1)   1.06845409 +0  121.1901574 +0  180.0000000 +0     1     2     5
 
   3  1    4    5    6
   3  2    4    5    6
 

          Geometry optimization using EF

     GRADIENT =  0.61558 IS LESS THAN CUTOFF =  1.00000



          VARIABLE        FUNCTION
 :        97.80000       51.644842
 SYMMETRY html step=0.2 points=100 open(2,2) TRIPLET
 Rotation of Ethylene, CH2 group rotated about the C-C axis. Simple C.I. mixing the pi-M.O.s, showing the TRIPLET surface near the top of the barrier.
 (Keywords: SYMMETRY html step=0.2 points=100 open(2,2) TRIPLET)
  C(HETATM    1  C1  HET A   1)   0.00000000 +0    0.0000000 +0    0.0000000 +0
  C(HETATM    2  C2  HET A   1)   1.41536027 +1    0.0000000 +0    0.0000000 +0     1     0     0
  H(HETATM    3 1H2  HET A   1)   1.06845409 +1  121.1901574 +1    0.0000000 +0     2     1     0
  H(HETATM    4 2H2  HET A   1)   1.06845409 +0  121.1901574 +0  180.0000000 +0     2     1     3
  H(HETATM    5 1H1  HET A   1)   1.06845409 +0  121.1901574 +0   97.8000000 -1     1     2     3
  H(HETATM    6 2H1  HET A   1)   1.06845409 +0  121.1901574 +0  180.0000000 +0     1     2     5
 
   3  1    4    5    6
   3  2    4    5    6
 

          Geometry optimization using EF

     GRADIENT =  0.65016 IS LESS THAN CUTOFF =  1.00000



          VARIABLE        FUNCTION
 :        98.00000       51.657687
 SYMMETRY html step=0.2 points=100 open(2,2) TRIPLET
 Rotation of Ethylene, CH2 group rotated about the C-C axis. Simple C.I. mixing the pi-M.O.s, showing the TRIPLET surface near the top of the barrier.
 (Keywords: SYMMETRY html step=0.2 points=100 open(2,2) TRIPLET)
  C(HETATM    1  C1  HET A   1)   0.00000000 +0    0.0000000 +0    0.0000000 +0
  C(HETATM    2  C2  HET A   1)   1.41536027 +1    0.0000000 +0    0.0000000 +0     1     0     0
  H(HETATM    3 1H2  HET A   1)   1.06845409 +1  121.1901574 +1    0.0000000 +0     2     1     0
  H(HETATM    4 2H2  HET A   1)   1.06845409 +0  121.1901574 +0  180.0000000 +0     2     1     3
  H(HETATM    5 1H1  HET A   1)   1.06845409 +0  121.1901574 +0   98.0000000 -1     1     2     3
  H(HETATM    6 2H1  HET A   1)   1.06845409 +0  121.1901574 +0  180.0000000 +0     1     2     5
 
   3  1    4    5    6
   3  2    4    5    6
 

          Geometry optimization using EF

     GRADIENT =  0.68643 IS LESS THAN CUTOFF =  1.00000



          VARIABLE        FUNCTION
 :        98.20000       51.670852
 SYMMETRY html step=0.2 points=100 open(2,2) TRIPLET
 Rotation of Ethylene, CH2 group rotated about the C-C axis. Simple C.I. mixing the pi-M.O.s, showing the TRIPLET surface near the top of the barrier.
 (Keywords: SYMMETRY html step=0.2 points=100 open(2,2) TRIPLET)
  C(HETATM    1  C1  HET A   1)   0.00000000 +0    0.0000000 +0    0.0000000 +0
  C(HETATM    2  C2  HET A   1)   1.41536027 +1    0.0000000 +0    0.0000000 +0     1     0     0
  H(HETATM    3 1H2  HET A   1)   1.06845409 +1  121.1901574 +1    0.0000000 +0     2     1     0
  H(HETATM    4 2H2  HET A   1)   1.06845409 +0  121.1901574 +0  180.0000000 +0     2     1     3
  H(HETATM    5 1H1  HET A   1)   1.06845409 +0  121.1901574 +0   98.2000000 -1     1     2     3
  H(HETATM    6 2H1  HET A   1)   1.06845409 +0  121.1901574 +0  180.0000000 +0     1     2     5
 
   3  1    4    5    6
   3  2    4    5    6
 

          Geometry optimization using EF

     GRADIENT =  0.72431 IS LESS THAN CUTOFF =  1.00000



          VARIABLE        FUNCTION
 :        98.40000       51.684338
 SYMMETRY html step=0.2 points=100 open(2,2) TRIPLET
 Rotation of Ethylene, CH2 group rotated about the C-C axis. Simple C.I. mixing the pi-M.O.s, showing the TRIPLET surface near the top of the barrier.
 (Keywords: SYMMETRY html step=0.2 points=100 open(2,2) TRIPLET)
  C(HETATM    1  C1  HET A   1)   0.00000000 +0    0.0000000 +0    0.0000000 +0
  C(HETATM    2  C2  HET A   1)   1.41536027 +1    0.0000000 +0    0.0000000 +0     1     0     0
  H(HETATM    3 1H2  HET A   1)   1.06845409 +1  121.1901574 +1    0.0000000 +0     2     1     0
  H(HETATM    4 2H2  HET A   1)   1.06845409 +0  121.1901574 +0  180.0000000 +0     2     1     3
  H(HETATM    5 1H1  HET A   1)   1.06845409 +0  121.1901574 +0   98.4000000 -1     1     2     3
  H(HETATM    6 2H1  HET A   1)   1.06845409 +0  121.1901574 +0  180.0000000 +0     1     2     5
 
   3  1    4    5    6
   3  2    4    5    6
 

          Geometry optimization using EF

     GRADIENT =  0.76375 IS LESS THAN CUTOFF =  1.00000



          VARIABLE        FUNCTION
 :        98.60000       51.698144
 SYMMETRY html step=0.2 points=100 open(2,2) TRIPLET
 Rotation of Ethylene, CH2 group rotated about the C-C axis. Simple C.I. mixing the pi-M.O.s, showing the TRIPLET surface near the top of the barrier.
 (Keywords: SYMMETRY html step=0.2 points=100 open(2,2) TRIPLET)
  C(HETATM    1  C1  HET A   1)   0.00000000 +0    0.0000000 +0    0.0000000 +0
  C(HETATM    2  C2  HET A   1)   1.41536027 +1    0.0000000 +0    0.0000000 +0     1     0     0
  H(HETATM    3 1H2  HET A   1)   1.06845409 +1  121.1901574 +1    0.0000000 +0     2     1     0
  H(HETATM    4 2H2  HET A   1)   1.06845409 +0  121.1901574 +0  180.0000000 +0     2     1     3
  H(HETATM    5 1H1  HET A   1)   1.06845409 +0  121.1901574 +0   98.6000000 -1     1     2     3
  H(HETATM    6 2H1  HET A   1)   1.06845409 +0  121.1901574 +0  180.0000000 +0     1     2     5
 
   3  1    4    5    6
   3  2    4    5    6
 

          Geometry optimization using EF

     GRADIENT =  0.80469 IS LESS THAN CUTOFF =  1.00000



          VARIABLE        FUNCTION
 :        98.80000       51.712270
 SYMMETRY html step=0.2 points=100 open(2,2) TRIPLET
 Rotation of Ethylene, CH2 group rotated about the C-C axis. Simple C.I. mixing the pi-M.O.s, showing the TRIPLET surface near the top of the barrier.
 (Keywords: SYMMETRY html step=0.2 points=100 open(2,2) TRIPLET)
  C(HETATM    1  C1  HET A   1)   0.00000000 +0    0.0000000 +0    0.0000000 +0
  C(HETATM    2  C2  HET A   1)   1.41536027 +1    0.0000000 +0    0.0000000 +0     1     0     0
  H(HETATM    3 1H2  HET A   1)   1.06845409 +1  121.1901574 +1    0.0000000 +0     2     1     0
  H(HETATM    4 2H2  HET A   1)   1.06845409 +0  121.1901574 +0  180.0000000 +0     2     1     3
  H(HETATM    5 1H1  HET A   1)   1.06845409 +0  121.1901574 +0   98.8000000 -1     1     2     3
  H(HETATM    6 2H1  HET A   1)   1.06845409 +0  121.1901574 +0  180.0000000 +0     1     2     5
 
   3  1    4    5    6
   3  2    4    5    6
 

          Geometry optimization using EF

     GRADIENT =  0.84710 IS LESS THAN CUTOFF =  1.00000



          VARIABLE        FUNCTION
 :        99.00000       51.726715
 SYMMETRY html step=0.2 points=100 open(2,2) TRIPLET
 Rotation of Ethylene, CH2 group rotated about the C-C axis. Simple C.I. mixing the pi-M.O.s, showing the TRIPLET surface near the top of the barrier.
 (Keywords: SYMMETRY html step=0.2 points=100 open(2,2) TRIPLET)
  C(HETATM    1  C1  HET A   1)   0.00000000 +0    0.0000000 +0    0.0000000 +0
  C(HETATM    2  C2  HET A   1)   1.41536027 +1    0.0000000 +0    0.0000000 +0     1     0     0
  H(HETATM    3 1H2  HET A   1)   1.06845409 +1  121.1901574 +1    0.0000000 +0     2     1     0
  H(HETATM    4 2H2  HET A   1)   1.06845409 +0  121.1901574 +0  180.0000000 +0     2     1     3
  H(HETATM    5 1H1  HET A   1)   1.06845409 +0  121.1901574 +0   99.0000000 -1     1     2     3
  H(HETATM    6 2H1  HET A   1)   1.06845409 +0  121.1901574 +0  180.0000000 +0     1     2     5
 
   3  1    4    5    6
   3  2    4    5    6
 

          Geometry optimization using EF

     GRADIENT =  0.89091 IS LESS THAN CUTOFF =  1.00000



          VARIABLE        FUNCTION
 :        99.20000       51.741480
 SYMMETRY html step=0.2 points=100 open(2,2) TRIPLET
 Rotation of Ethylene, CH2 group rotated about the C-C axis. Simple C.I. mixing the pi-M.O.s, showing the TRIPLET surface near the top of the barrier.
 (Keywords: SYMMETRY html step=0.2 points=100 open(2,2) TRIPLET)
  C(HETATM    1  C1  HET A   1)   0.00000000 +0    0.0000000 +0    0.0000000 +0
  C(HETATM    2  C2  HET A   1)   1.41536027 +1    0.0000000 +0    0.0000000 +0     1     0     0
  H(HETATM    3 1H2  HET A   1)   1.06845409 +1  121.1901574 +1    0.0000000 +0     2     1     0
  H(HETATM    4 2H2  HET A   1)   1.06845409 +0  121.1901574 +0  180.0000000 +0     2     1     3
  H(HETATM    5 1H1  HET A   1)   1.06845409 +0  121.1901574 +0   99.2000000 -1     1     2     3
  H(HETATM    6 2H1  HET A   1)   1.06845409 +0  121.1901574 +0  180.0000000 +0     1     2     5
 
   3  1    4    5    6
   3  2    4    5    6
 

          Geometry optimization using EF

     GRADIENT =  0.93611 IS LESS THAN CUTOFF =  1.00000



          VARIABLE        FUNCTION
 :        99.40000       51.756563
 SYMMETRY html step=0.2 points=100 open(2,2) TRIPLET
 Rotation of Ethylene, CH2 group rotated about the C-C axis. Simple C.I. mixing the pi-M.O.s, showing the TRIPLET surface near the top of the barrier.
 (Keywords: SYMMETRY html step=0.2 points=100 open(2,2) TRIPLET)
  C(HETATM    1  C1  HET A   1)   0.00000000 +0    0.0000000 +0    0.0000000 +0
  C(HETATM    2  C2  HET A   1)   1.41536027 +1    0.0000000 +0    0.0000000 +0     1     0     0
  H(HETATM    3 1H2  HET A   1)   1.06845409 +1  121.1901574 +1    0.0000000 +0     2     1     0
  H(HETATM    4 2H2  HET A   1)   1.06845409 +0  121.1901574 +0  180.0000000 +0     2     1     3
  H(HETATM    5 1H1  HET A   1)   1.06845409 +0  121.1901574 +0   99.4000000 -1     1     2     3
  H(HETATM    6 2H1  HET A   1)   1.06845409 +0  121.1901574 +0  180.0000000 +0     1     2     5
 
   3  1    4    5    6
   3  2    4    5    6
 

          Geometry optimization using EF

     GRADIENT =  0.98266 IS LESS THAN CUTOFF =  1.00000



          VARIABLE        FUNCTION
 :        99.60000       51.771965
 SYMMETRY html step=0.2 points=100 open(2,2) TRIPLET
 Rotation of Ethylene, CH2 group rotated about the C-C axis. Simple C.I. mixing the pi-M.O.s, showing the TRIPLET surface near the top of the barrier.
 (Keywords: SYMMETRY html step=0.2 points=100 open(2,2) TRIPLET)
  C(HETATM    1  C1  HET A   1)   0.00000000 +0    0.0000000 +0    0.0000000 +0
  C(HETATM    2  C2  HET A   1)   1.41536027 +1    0.0000000 +0    0.0000000 +0     1     0     0
  H(HETATM    3 1H2  HET A   1)   1.06845409 +1  121.1901574 +1    0.0000000 +0     2     1     0
  H(HETATM    4 2H2  HET A   1)   1.06845409 +0  121.1901574 +0  180.0000000 +0     2     1     3
  H(HETATM    5 1H1  HET A   1)   1.06845409 +0  121.1901574 +0   99.6000000 -1     1     2     3
  H(HETATM    6 2H1  HET A   1)   1.06845409 +0  121.1901574 +0  180.0000000 +0     1     2     5
 
   3  1    4    5    6
   3  2    4    5    6
 

          Geometry optimization using EF

          DIAGONAL MATRIX USED AS START HESSIAN

 CYCLE:     1 TIME:   0.000 TIME LEFT:  2.00D  GRAD.:     1.031 HEAT:  51.78768
 CYCLE:     2 TIME:   0.000 TIME LEFT:  2.00D  GRAD.:     0.436 HEAT:  51.78747

     GRADIENT =  0.43625 IS LESS THAN CUTOFF =  1.00000



          VARIABLE        FUNCTION
 :        99.80000       51.787412
 SYMMETRY html step=0.2 points=100 open(2,2) TRIPLET
 Rotation of Ethylene, CH2 group rotated about the C-C axis. Simple C.I. mixing the pi-M.O.s, showing the TRIPLET surface near the top of the barrier.
 (Keywords: SYMMETRY html step=0.2 points=100 open(2,2) TRIPLET)
  C(HETATM    1  C1  HET A   1)   0.00000000 +0    0.0000000 +0    0.0000000 +0
  C(HETATM    2  C2  HET A   1)   1.41630181 +1    0.0000000 +0    0.0000000 +0     1     0     0
  H(HETATM    3 1H2  HET A   1)   1.06817327 +1  121.2257766 +1    0.0000000 +0     2     1     0
  H(HETATM    4 2H2  HET A   1)   1.06817327 +0  121.2257766 +0  180.0000000 +0     2     1     3
  H(HETATM    5 1H1  HET A   1)   1.06817327 +0  121.2257766 +0   99.8000000 -1     1     2     3
  H(HETATM    6 2H1  HET A   1)   1.06817327 +0  121.2257766 +0  180.0000000 +0     1     2     5
 
   3  1    4    5    6
   3  2    4    5    6
 

                POINTS ON REACTION PATH 
                AND CORRESPONDING HEATS


      80.00000000      80.20000000      80.40000000      80.60000000      80.80000000      81.00000000      81.20000000      81.40000000
      51.80335122      51.78730680      51.77163438      51.75627897      51.74124098      51.72652077      51.71211871      51.69803517
      81.60000000      81.80000000      82.00000000      82.20000000      82.40000000      82.60000000      82.80000000      83.00000000
      51.68427049      51.67082501      51.65769908      51.64489302      51.63240715      51.62024177      51.60839720      51.59687372
      83.20000000      83.40000000      83.60000000      83.80000000      84.00000000      84.20000000      84.40000000      84.60000000
      51.58567162      51.57479117      51.56423265      51.55399632      51.54408243      51.53449123      51.52522294      51.51627781
      84.80000000      85.00000000      85.20000000      85.40000000      85.60000000      85.80000000      86.00000000      86.20000000
      51.50765605      51.49890366      51.49087293      51.48319966      51.47585153      51.46882873      51.46213143      51.45575978
      86.40000000      86.60000000      86.80000000      87.00000000      87.20000000      87.40000000      87.60000000      87.80000000
      51.44971396      51.44399409      51.43860033      51.43353281      51.42879164      51.42437695      51.42028884      51.41652742
      88.00000000      88.20000000      88.40000000      88.60000000      88.80000000      89.00000000      89.20000000      89.40000000
      51.41309276      51.40998497      51.40720411      51.40475025      51.40262345      51.40082376      51.39935123      51.39820589
      89.60000000      89.80000000      90.00000000      90.20000000      90.40000000      90.60000000      90.80000000      91.00000000
      51.39738777      51.39689689      51.39673326      51.39689689      51.39738777      51.39820589      51.39935123      51.40082376
      91.20000000      91.40000000      91.60000000      91.80000000      92.00000000      92.20000000      92.40000000      92.60000000
      51.40262345      51.40475025      51.40720411      51.40998497      51.41309276      51.41652742      51.42028884      51.42437695
      92.80000000      93.00000000      93.20000000      93.40000000      93.60000000      93.80000000      94.00000000      94.20000000
      51.42879164      51.43353281      51.43860033      51.44399409      51.44971396      51.45575978      51.46213143      51.46882873
      94.40000000      94.60000000      94.80000000      95.00000000      95.20000000      95.40000000      95.60000000      95.80000000
      51.47585153      51.48319966      51.49087293      51.49887116      51.50719415      51.51584170      51.52481359      51.53410960
      96.00000000      96.20000000      96.40000000      96.60000000      96.80000000      97.00000000      97.20000000      97.40000000
      51.54372952      51.55367309      51.56394008      51.57453022      51.58544327      51.59667896      51.60823699      51.62011710
      97.60000000      97.80000000      98.00000000      98.20000000      98.40000000      98.60000000      98.80000000      99.00000000
      51.63231898      51.64484234      51.65768686      51.67085222      51.68433811      51.69814418      51.71227008      51.72671548
      99.20000000      99.40000000      99.60000000      99.80000000
      51.74148001      51.75656330      51.77196497      51.78741221

 **********************
 *                    *
 * JOB ENDED NORMALLY *
 *                    *
 **********************



 TOTAL JOB TIME:             0.59 SECONDS

 == MOPAC DONE ==
