 *******************************************************************************
 ** Site#: 37037        For non-commercial use only           Version 21.153W **
 *******************************************************************************
 ** Cite this program as: MOPAC2016, Version: 21.153W, James J. P. Stewart,   **
 ** Stewart Computational Chemistry, web: HTTP://OpenMOPAC.net. Days left: 364**
 *******************************************************************************
 **                                                                           **
 **                                MOPAC2016                                  **
 **                                                                           **
 *******************************************************************************

                              PM7 CALCULATION RESULTS

 *******************************************************************************
 *  CALCULATION DONE:                                Thu Jun  3 15:03:52 2021  *
 *  SYMMETRY   - SYMMETRY CONDITIONS TO BE IMPOSED
 *  T=         - A TIME OF 172800.0 SECONDS REQUESTED
 *  DUMP=N     - RESTART FILE WRITTEN EVERY 7200.0 SECONDS REQUESTED
 *  HTML       - WRITE HTML SCRIPT TO READ PDB FILE USING JSMOL
 *******************************************************************************



                    PARAMETER DEPENDENCE DATA

        REFERENCE ATOM      FUNCTION NO.    DEPENDENT ATOM(S)
            2                  1               3

             DESCRIPTIONS OF THE FUNCTIONS USED
   1      BOND LENGTH    IS SET EQUAL TO THE REFERENCE BOND LENGTH   
 
 html symmetry


  ATOM               CHEMICAL                 BOND LENGTH      BOND ANGLE     TWIST ANGLE 
 NUMBER               SYMBOL                  (ANGSTROMS)      (DEGREES)       (DEGREES) 
   (I)                                           NA:I           NB:NA:I       NC:NB:NA:I       NA    NB    NC 
     1       C(HETATM    1  C   HET A   1)    0.00000000       0.0000000       0.0000000   
     2       H(HETATM   28  H   HET A   1)    1.50000000  *    0.0000000       0.0000000        1     0     0
     3       N(HETATM    2  N   HET A   1)    1.50000000     145.4656824  *    0.0000000        2     1     0
     4       C(HETATM    3  C   HET A   1)    1.40627761  *  116.9137128  *  -93.2771854  *     3     2     1
     5       C(HETATM    4  C   HET A   1)    2.41498236  *  148.4042208  *   11.6831729  *     4     3     2
     6       C(HETATM    5  C   HET A   1)    1.40481346  *  116.3915086  *   67.7980971  *     3     2     1
     7       C(HETATM    6  C   HET A   1)    1.38252039  *  122.2275176  * -141.2102196  *     6     3     2
     8       C(HETATM    7  C   HET A   1)    1.41091240  *  120.3192502  *  179.0935782  *     7     6     3
     9       C(HETATM    8  C   HET A   1)    1.37039542  *  120.7324327  *   -1.4305138  *     8     7     6
    10       C(HETATM    9  C   HET A   1)    1.42173634  *  120.1978378  *    0.8920225  *     9     8     7
    11       C(HETATM   10  C   HET A   1)    1.42314303  *  120.4836879  * -179.6119252  *    10     9     8
    12       C(HETATM   11  C   HET A   1)    1.37057202  *  120.6128102  * -178.7008780  *    11    10     9
    13       C(HETATM   12  C   HET A   1)    1.41556902  *  120.1053294  *    0.6417042  *    12    11    10
    14       C(HETATM   13  C   HET A   1)    1.37205560  *  120.2749763  *   -0.9531201  *    13    12    11
    15       C(HETATM   14  C   HET A   1)    1.41197530  *  120.2066570  *    0.7550204  *    10     9     8
    16       C(HETATM   15  C   HET A   1)    1.40417329  *  121.2762867  * -160.4244201  *     4     3     2
    17       C(HETATM   16  C   HET A   1)    1.38966577  *  119.4256816  *  176.5053252  *    16     4     3
    18       H(HETATM   17  H   HET A   1)    1.08941461  *  150.1203246  *    6.4719152  *     5     4     3
    19       C(HETATM   18  C   HET A   1)    1.39388401  *   90.0732867  * -173.9881203  *     5     4     3
    20       H(HETATM   19  H   HET A   1)    1.08830657  *  120.9870194  *    0.7028684  *     7     6     3
    21       H(HETATM   20  H   HET A   1)    1.09026885  *  118.5101988  *  179.3419184  *     8     7     6
    22       H(HETATM   21  H   HET A   1)    1.08664478  *  120.9977436  * -179.1300361  *     9     8     7
    23       H(HETATM   22  H   HET A   1)    1.08847732  *  118.5173805  *    1.2530454  *    11    10     9
    24       H(HETATM   23  H   HET A   1)    1.08855641  *  120.9084651  * -179.7889955  *    12    11    10
    25       H(HETATM   24  H   HET A   1)    1.08804553  *  118.9683301  *  178.6502866  *    13    12    11
    26       H(HETATM   25  H   HET A   1)    1.08930379  *  119.6223730  *  178.3433379  *    14    13    12
    27       H(HETATM   26  H   HET A   1)    1.08848751  *  120.1569738  *   -2.1451209  *    16     4     3
    28       H(HETATM   27  H   HET A   1)    1.05841994  *   90.7108247  *  -93.1720061  *     1     2     3
    29       H(HETATM   29  H   HET A   1)    2.15155862  *   56.3431742  *    6.2702350  *     5     4     3
    30       C(HETATM   30  C   HET A   1)    1.08603045  *   33.9512313  *   -0.2763726  *    29     5     4
    31       H(HETATM   31  H   HET A   1)    1.08607631  *  120.0994277  * -179.6598510  *    19     5     4
    32       H(HETATM   32  H   HET A   1)    1.08967399  *  119.5906018  *  179.9234145  *    17    16     4
    33       H(HETATM   33  H   HET A   1)    1.05798607  *   91.4889503  *   26.4340656  *     1     2     3
    34       H(HETATM   34  H   HET A   1)    1.05673857  *   90.5607478  *  146.7080687  *     1     2     3
 

 General Reference for PM7:
 "Optimization of Parameters for Semiempirical Methods VI: More Modifications to the 
 NDDO Approximations and Re-optimization of Parameters", J. J. P. Stewart, J. Mol. Mod., 1:32, 19 (2013)
 https://link.springer.com/article/10.1007/s00894-012-1667-x

           Empirical Formula: C17 H16 N  =    34 atoms



      MOLECULAR POINT GROUP   :   C1  


          UHF CALCULATION, NO. OF ALPHA ELECTRONS =   45
                           NO. OF BETA  ELECTRONS =   44

          Geometry optimization using EF

          DIAGONAL MATRIX USED AS START HESSIAN

 CYCLE:     1 TIME:   0.125 TIME LEFT:  2.00D  GRAD.:    93.034 HEAT:  126.7907
 CYCLE:     2 TIME:   0.125 TIME LEFT:  2.00D  GRAD.:   210.649 HEAT:  125.0668
 CYCLE:     3 TIME:   0.047 TIME LEFT:  2.00D  GRAD.:   124.874 HEAT:  121.5574
 CYCLE:     4 TIME:   0.109 TIME LEFT:  2.00D  GRAD.:   191.463 HEAT:  121.4130
 CYCLE:     5 TIME:   0.031 TIME LEFT:  2.00D  GRAD.:   112.373 HEAT:  120.1677
 CYCLE:     6 TIME:   0.047 TIME LEFT:  2.00D  GRAD.:   147.717 HEAT:  119.3266
 CYCLE:     7 TIME:   0.078 TIME LEFT:  2.00D  GRAD.:   161.288 HEAT:  118.9662
 CYCLE:     8 TIME:   0.047 TIME LEFT:  2.00D  GRAD.:   224.085 HEAT:  118.8863
 CYCLE:     9 TIME:   0.047 TIME LEFT:  2.00D  GRAD.:    56.701 HEAT:  117.3746
 CYCLE:    10 TIME:   0.031 TIME LEFT:  2.00D  GRAD.:    39.463 HEAT:  116.6252
 CYCLE:    11 TIME:   0.047 TIME LEFT:  2.00D  GRAD.:    33.981 HEAT:  115.4124
 CYCLE:    12 TIME:   0.031 TIME LEFT:  2.00D  GRAD.:    47.374 HEAT:  112.7160
 CYCLE:    13 TIME:   0.047 TIME LEFT:  2.00D  GRAD.:    85.166 HEAT:  111.5643
 CYCLE:    14 TIME:   0.031 TIME LEFT:  2.00D  GRAD.:    22.801 HEAT:  110.0632
 CYCLE:    15 TIME:   0.109 TIME LEFT:  2.00D  GRAD.:    18.745 HEAT:  109.9699
 CYCLE:    16 TIME:   0.016 TIME LEFT:  2.00D  GRAD.:    12.068 HEAT:  109.8576
 CYCLE:    17 TIME:   0.047 TIME LEFT:  2.00D  GRAD.:    17.370 HEAT:  109.7618
 CYCLE:    18 TIME:   0.031 TIME LEFT:  2.00D  GRAD.:    24.794 HEAT:  109.6454
 CYCLE:    19 TIME:   0.047 TIME LEFT:  2.00D  GRAD.:    17.661 HEAT:  109.4488
 CYCLE:    20 TIME:   0.125 TIME LEFT:  2.00D  GRAD.:    17.646 HEAT:  109.3784
 CYCLE:    21 TIME:   0.031 TIME LEFT:  2.00D  GRAD.:    14.243 HEAT:  109.2856
 CYCLE:    22 TIME:   0.031 TIME LEFT:  2.00D  GRAD.:    14.135 HEAT:  109.2102
 CYCLE:    23 TIME:   0.047 TIME LEFT:  2.00D  GRAD.:     6.968 HEAT:  109.1093
 CYCLE:    24 TIME:   0.047 TIME LEFT:  2.00D  GRAD.:     9.613 HEAT:  109.0679
 CYCLE:    25 TIME:   0.156 TIME LEFT:  2.00D  GRAD.:     9.632 HEAT:  109.0621
 CYCLE:    26 TIME:   0.031 TIME LEFT:  2.00D  GRAD.:     9.371 HEAT:  109.0409
 CYCLE:    27 TIME:   0.031 TIME LEFT:  2.00D  GRAD.:     5.667 HEAT:  109.0124
 CYCLE:    28 TIME:   0.031 TIME LEFT:  2.00D  GRAD.:    15.366 HEAT:  109.0036
 CYCLE:    29 TIME:   0.047 TIME LEFT:  2.00D  GRAD.:     8.654 HEAT:  108.9811
 CYCLE:    30 TIME:   0.062 TIME LEFT:  2.00D  GRAD.:     7.857 HEAT:  108.9698
 CYCLE:    31 TIME:   0.031 TIME LEFT:  2.00D  GRAD.:     4.086 HEAT:  108.9542
 CYCLE:    32 TIME:   0.047 TIME LEFT:  2.00D  GRAD.:     6.955 HEAT:  108.9445
 CYCLE:    33 TIME:   0.031 TIME LEFT:  2.00D  GRAD.:     2.826 HEAT:  108.9291
 CYCLE:    34 TIME:   0.047 TIME LEFT:  2.00D  GRAD.:     2.271 HEAT:  108.9244
 CYCLE:    35 TIME:   0.062 TIME LEFT:  2.00D  GRAD.:     3.854 HEAT:  108.9129
 CYCLE:    36 TIME:   0.078 TIME LEFT:  2.00D  GRAD.:     6.371 HEAT:  108.9046
 CYCLE:    37 TIME:   0.062 TIME LEFT:  2.00D  GRAD.:     6.698 HEAT:  108.9005
 CYCLE:    38 TIME:   0.094 TIME LEFT:  2.00D  GRAD.:     4.256 HEAT:  108.8933
 CYCLE:    39 TIME:   0.031 TIME LEFT:  2.00D  GRAD.:     5.836 HEAT:  108.8906
 CYCLE:    40 TIME:   0.031 TIME LEFT:  2.00D  GRAD.:     3.351 HEAT:  108.8815
 CYCLE:    41 TIME:   0.078 TIME LEFT:  2.00D  GRAD.:     2.010 HEAT:  108.8784
 CYCLE:    42 TIME:   0.047 TIME LEFT:  2.00D  GRAD.:     2.041 HEAT:  108.8783
 CYCLE:    43 TIME:   0.047 TIME LEFT:  2.00D  GRAD.:     1.382 HEAT:  108.8794
 CYCLE:    44 TIME:   0.031 TIME LEFT:  2.00D  GRAD.:     1.463 HEAT:  108.8765
 CYCLE:    45 TIME:   0.125 TIME LEFT:  2.00D  GRAD.:     2.525 HEAT:  108.8768
 CYCLE:    46 TIME:   0.219 TIME LEFT:  2.00D  GRAD.:     5.013 HEAT:  108.8799
 CYCLE:    47 TIME:   0.062 TIME LEFT:  2.00D  GRAD.:     2.224 HEAT:  108.8751
 CYCLE:    48 TIME:   0.031 TIME LEFT:  2.00D  GRAD.:     2.730 HEAT:  108.8803
 CYCLE:    49 TIME:   0.047 TIME LEFT:  2.00D  GRAD.:     5.204 HEAT:  108.8786
 CYCLE:    50 TIME:   0.031 TIME LEFT:  2.00D  GRAD.:     3.298 HEAT:  108.8738
 CYCLE:    51 TIME:   0.016 TIME LEFT:  2.00D  GRAD.:     1.454 HEAT:  108.8717
 CYCLE:    52 TIME:   0.031 TIME LEFT:  2.00D  GRAD.:     0.933 HEAT:  108.8715

     GRADIENT =  0.93298 IS LESS THAN CUTOFF =  1.00000



 -------------------------------------------------------------------------------
 html symmetry




     GEOMETRY OPTIMISED USING EIGENVECTOR FOLLOWING (EF).     
     SCF FIELD WAS ACHIEVED                                   


                              PM7 CALCULATION
                                                       MOPAC2016 (Version: 21.153W)
                                                       Thu Jun  3 15:03:55 2021
                                                       No. of days remaining = 364




          FINAL HEAT OF FORMATION =        108.87148 KCAL/MOL =     455.51828 KJ/MOL


          TOTAL ENERGY            =      -2487.50227 EV
          ELECTRONIC ENERGY       =     -17420.63194 EV  POINT GROUP:     C1  
          CORE-CORE REPULSION     =      14933.12967 EV
          COSMO AREA              =        275.11 SQUARE ANGSTROMS
          COSMO VOLUME            =        304.42 CUBIC ANGSTROMS

          GRADIENT NORM           =          0.93298 = 0.16000 PER ATOM
          IONIZATION POTENTIAL    =          8.559085 EV
          ALPHA SOMO LUMO (EV)    =         -8.724 -0.652
          BETA  SOMO LUMO (EV)    =         -8.559 -1.863
          NO. OF ALPHA ELECTRONS  =         45
          NO. OF BETA  ELECTRONS  =         44
          MOLECULAR WEIGHT        =        234.3201

          MOLECULAR DIMENSIONS (Angstroms)

            Atom       Atom       Distance
            H    31    H    24    11.31960
            H    34    H    21     7.32855
            H    32    H    33     4.39618


          SCF CALCULATIONS        =         76
 
          WALL-CLOCK TIME         =          3.078 SECONDS
          COMPUTATION TIME        =         11.156 SECONDS




  ATOM               CHEMICAL                 BOND LENGTH      BOND ANGLE     TWIST ANGLE 
 NUMBER               SYMBOL                  (ANGSTROMS)      (DEGREES)       (DEGREES) 
   (I)                                           NA:I           NB:NA:I       NC:NB:NA:I       NA    NB    NC 
     1       C(HETATM    1  C   HET A   1)    0.00000000       0.0000000       0.0000000   
     2       H(HETATM   28  H   HET A   1)    1.35850078  *    0.0000000       0.0000000        1     0     0
     3       N(HETATM    2  N   HET A   1)    1.35850078     167.0521186  *    0.0000000        2     1     0
     4       C(HETATM    3  C   HET A   1)    1.41211965  *  113.7293958  *  -83.6374250  *     3     2     1
     5       C(HETATM    4  C   HET A   1)    2.41503561  *  149.1979355  *    3.7120914  *     4     3     2
     6       C(HETATM    5  C   HET A   1)    1.35992956  *  114.1811686  *   59.6922738  *     3     2     1
     7       C(HETATM    6  C   HET A   1)    1.41982928  *  123.8008372  * -125.6464033  *     6     3     2
     8       C(HETATM    7  C   HET A   1)    1.39426511  *  120.9945792  *  177.4492686  *     7     6     3
     9       C(HETATM    8  C   HET A   1)    1.38649689  *  120.6177849  *   -0.5044079  *     8     7     6
    10       C(HETATM    9  C   HET A   1)    1.42205626  *  120.5644443  *    0.7315982  *     9     8     7
    11       C(HETATM   10  C   HET A   1)    1.41658700  *  120.5243565  *  179.6340881  *    10     9     8
    12       C(HETATM   11  C   HET A   1)    1.38024863  *  120.4891519  * -179.0203879  *    11    10     9
    13       C(HETATM   12  C   HET A   1)    1.40772775  *  120.1335600  *    0.4238557  *    12    11    10
    14       C(HETATM   13  C   HET A   1)    1.38297179  *  120.3139982  *   -0.5133516  *    13    12    11
    15       C(HETATM   14  C   HET A   1)    1.41774578  *  120.1599704  *   -0.0199072  *    10     9     8
    16       C(HETATM   15  C   HET A   1)    1.40592033  *  120.3498285  * -164.9825284  *     4     3     2
    17       C(HETATM   16  C   HET A   1)    1.39038027  *  119.6404434  *  174.0409005  *    16     4     3
    18       H(HETATM   17  H   HET A   1)    1.08943386  *  150.0348448  *    9.7306974  *     5     4     3
    19       C(HETATM   18  C   HET A   1)    1.39453655  *   90.0790942  * -170.3828632  *     5     4     3
    20       H(HETATM   19  H   HET A   1)    1.09003799  *  119.3412062  *   -0.9165655  *     7     6     3
    21       H(HETATM   20  H   HET A   1)    1.09054500  *  119.3829585  * -179.8732392  *     8     7     6
    22       H(HETATM   21  H   HET A   1)    1.08787266  *  120.4360228  * -179.2238612  *     9     8     7
    23       H(HETATM   22  H   HET A   1)    1.08810115  *  119.0267263  *    0.9356662  *    11    10     9
    24       H(HETATM   23  H   HET A   1)    1.08853275  *  120.4726000  * -179.7511744  *    12    11    10
    25       H(HETATM   24  H   HET A   1)    1.08871396  *  119.4614656  *  179.4648632  *    13    12    11
    26       H(HETATM   25  H   HET A   1)    1.09416538  *  120.0172405  *  179.4725858  *    14    13    12
    27       H(HETATM   26  H   HET A   1)    1.08863894  *  119.9818894  *   -4.5266036  *    16     4     3
    28       H(HETATM   27  H   HET A   1)    1.06963914  *  105.1246788  *  -94.0578597  *     1     2     3
    29       H(HETATM   29  H   HET A   1)    2.15889456  *   56.2066040  *    9.3238106  *     5     4     3
    30       C(HETATM   30  C   HET A   1)    1.09123380  *   33.7561075  *   -0.1034462  *    29     5     4
    31       H(HETATM   31  H   HET A   1)    1.08752830  *  120.0239139  * -179.8411963  *    19     5     4
    32       H(HETATM   32  H   HET A   1)    1.08905685  *  119.7473125  * -179.4721801  *    17    16     4
    33       H(HETATM   33  H   HET A   1)    1.06847248  *  106.6547037  *   25.6109147  *     1     2     3
    34       H(HETATM   34  H   HET A   1)    1.06885166  *  105.0731708  *  146.3921582  *     1     2     3

                             CARTESIAN COORDINATES

   1    C        0.000000000     0.000000000     0.000000000
   2    H        1.358500783     0.000000000     0.000000000
   3    N        2.682460714     0.304391981     0.000000000
   4    C        3.204174319     0.571337309    -1.284771194
   5    C        2.839376471     0.841523086    -3.656757533
   6    C        3.085077354     1.039353599     1.071046058
   7    C        3.776612152     2.274944824     0.966121712
   8    C        4.115955646     3.006643401     2.103416031
   9    C        3.775172219     2.547190007     3.366405682
  10    C        3.086664032     1.313141786     3.525545432
  11    C        2.745717062     0.840776420     4.816802520
  12    C        2.095310557    -0.366738205     4.971612322
  13    C        1.772491199    -1.145217300     3.844024019
  14    C        2.094539403    -0.701836725     2.574256487
  15    C        2.740833846     0.538762721     2.389437319
  16    C        4.593809060     0.590572409    -1.497273588
  17    C        5.090097911     0.731021378    -2.788446991
  18    H        2.158915211     0.939624848    -4.501869753
  19    C        4.217618281     0.863675739    -3.868159883
  20    H        4.021326566     2.667955517    -0.020711742
  21    H        4.645329544     3.953577228     1.992204487
  22    H        4.030340558     3.126658015     4.251037173
  23    H        3.004738057     1.443508664     5.684895884
  24    H        1.829854162    -0.727553221     5.963705554
  25    H        1.267216729    -2.100034509     3.979375047
  26    H        1.849080426    -1.314821498     1.701790186
  27    H        5.274497134     0.472362509    -0.655950279
  28    H       -0.279090605    -0.073069815     1.029998600
  29    H        1.247209897     0.669834913    -2.208878220
  30    C        2.325810871     0.691543437    -2.373011997
  31    H        4.611905165     0.980234908    -4.874971495
  32    H        6.166166327     0.737485010    -2.956017330
  33    H       -0.306227636     0.923076037    -0.442480164
  34    H       -0.277957429    -0.859560925    -0.571260503


           Empirical Formula: C17 H16 N  =    34 atoms



      MOLECULAR POINT GROUP   :   C1  


          ALPHA EIGENVALUES  
 -36.14803 -31.15409 -30.48115 -29.41378 -26.95160 -26.22699 -25.94106 -25.32968
 -24.67414 -23.30664 -22.02016 -21.61007 -21.46865 -20.94063 -20.04663 -18.27616
 -17.85027 -17.21137 -17.00294 -16.30316 -15.92011 -15.45901 -15.06302 -14.75398
 -14.66454 -14.57404 -14.48484 -14.04156 -13.77449 -13.61903 -13.31560 -13.02570
 -12.97196 -12.71301 -12.56413 -12.27270 -12.07382 -11.91974 -11.74315 -10.72378
 -10.12994 -10.06601  -9.61278  -9.21765  -8.72358  -0.65208  -0.24948   0.00933
   0.06702   0.68518   1.42243   2.29642   2.50705   2.57090   3.49033   3.73722
   4.08157   4.15450   4.23661   4.35737   4.45719   4.62197   4.69472   4.76408
   4.82088   4.87642   5.02378   5.07510   5.17697   5.37238   5.53215   5.58355
   5.66603   5.72149   5.75304   5.78079   5.82748   5.97121   5.97515   6.01417
   6.04779   6.07075   6.16254   6.21106   6.39325   7.03605   7.07899   8.32453


           BETA EIGENVALUES 
 -35.19564 -31.12374 -30.43536 -29.37163 -26.90342 -26.20266 -25.90335 -25.29120
 -24.55339 -23.22771 -21.96694 -21.58505 -21.42767 -20.89629 -19.98373 -18.23234
 -17.76109 -17.15963 -16.95346 -16.05613 -15.83883 -15.37661 -15.01836 -14.65475
 -14.62595 -14.51949 -14.43642 -13.94480 -13.69939 -13.36596 -13.24703 -12.97042
 -12.91620 -12.56738 -12.41458 -12.13112 -11.97652 -11.89205 -11.39616 -10.34164
 -10.06009  -9.89331  -9.32101  -8.55909  -1.86272  -0.43949  -0.05582   0.06513
   0.21152   0.96500   1.63662   2.34559   2.66187   2.78344   3.51039   3.78464
   4.13003   4.17933   4.25740   4.37021   4.50300   4.64418   4.71074   4.77483
   4.83965   4.88785   5.04826   5.08948   5.24043   5.44365   5.55702   5.61136
   5.68321   5.73973   5.78624   5.82375   5.87020   5.96060   6.00220   6.02931
   6.05518   6.08681   6.17993   6.20253   6.54667   7.06742   7.11181   8.36112


              NET ATOMIC CHARGES AND DIPOLE CONTRIBUTIONS

  ATOM NO.                 TYPE                        CHARGE      No. of ELECS.   s-Pop       p-Pop       
    1          C(HETATM    1  C   HET A   1)          -0.713346        4.7133     1.08249     3.63085
    2          H(HETATM   28  H   HET A   1)           0.281471        0.7185     0.71853
    3          N(HETATM    2  N   HET A   1)          -0.343186        5.3432     1.71379     3.62940
    4          C(HETATM    3  C   HET A   1)           0.126068        3.8739     1.06131     2.81262
    5          C(HETATM    4  C   HET A   1)          -0.125005        4.1250     1.08405     3.04096
    6          C(HETATM    5  C   HET A   1)           0.135191        3.8648     1.06523     2.79958
    7          C(HETATM    6  C   HET A   1)          -0.180027        4.1800     1.09540     3.08462
    8          C(HETATM    7  C   HET A   1)          -0.136683        4.1367     1.08166     3.05503
    9          C(HETATM    8  C   HET A   1)          -0.137125        4.1371     1.09170     3.04542
   10          C(HETATM    9  C   HET A   1)          -0.006401        4.0064     1.06239     2.94401
   11          C(HETATM   10  C   HET A   1)          -0.159181        4.1592     1.08550     3.07369
   12          C(HETATM   11  C   HET A   1)          -0.134627        4.1346     1.08485     3.04978
   13          C(HETATM   12  C   HET A   1)          -0.146816        4.1468     1.08531     3.06150
   14          C(HETATM   13  C   HET A   1)          -0.119450        4.1195     1.09039     3.02906
   15          C(HETATM   14  C   HET A   1)          -0.016651        4.0167     1.06646     2.95019
   16          C(HETATM   15  C   HET A   1)          -0.196390        4.1964     1.08481     3.11158
   17          C(HETATM   16  C   HET A   1)          -0.125226        4.1252     1.08303     3.04220
   18          H(HETATM   17  H   HET A   1)           0.153081        0.8469     0.84692
   19          C(HETATM   18  C   HET A   1)          -0.166411        4.1664     1.08270     3.08371
   20          H(HETATM   19  H   HET A   1)           0.169730        0.8303     0.83027
   21          H(HETATM   20  H   HET A   1)           0.159509        0.8405     0.84049
   22          H(HETATM   21  H   HET A   1)           0.155947        0.8441     0.84405
   23          H(HETATM   22  H   HET A   1)           0.153146        0.8469     0.84685
   24          H(HETATM   23  H   HET A   1)           0.151543        0.8485     0.84846
   25          H(HETATM   24  H   HET A   1)           0.156089        0.8439     0.84391
   26          H(HETATM   25  H   HET A   1)           0.181524        0.8185     0.81848
   27          H(HETATM   26  H   HET A   1)           0.164666        0.8353     0.83533
   28          H(HETATM   27  H   HET A   1)           0.138949        0.8611     0.86105
   29          H(HETATM   29  H   HET A   1)           0.178464        0.8215     0.82154
   30          C(HETATM   30  C   HET A   1)          -0.173994        4.1740     1.08671     3.08729
   31          H(HETATM   31  H   HET A   1)           0.150990        0.8490     0.84901
   32          H(HETATM   32  H   HET A   1)           0.150982        0.8490     0.84902
   33          H(HETATM   33  H   HET A   1)           0.134266        0.8657     0.86573
   34          H(HETATM   34  H   HET A   1)           0.138902        0.8611     0.86110

          NET CHARGE ON RESIDUES

      Residue         Charge  Anion or
                              Cation?
      HET A   1       +0.000
 


 DIPOLE           X         Y         Z       TOTAL
 POINT-CHG.     2.306     1.066     0.762     2.652
 HYBRID        -0.104     0.432    -0.014     0.444
 SUM            2.202     1.498     0.748     2.766


          ATOMIC ORBITAL ELECTRON POPULATIONS

                   Atom                  s        px        py        pz   
   C(HETATM    1  C   HET A   1)   1.08249   1.29680   1.16408   1.16997
   H(HETATM   28  H   HET A   1)   0.71853
   N(HETATM    2  N   HET A   1)   1.71379   1.18969   1.35676   1.08295
   C(HETATM    3  C   HET A   1)   1.06131   0.96039   0.97355   0.87869
   C(HETATM    4  C   HET A   1)   1.08405   1.02024   0.98105   1.03967
   C(HETATM    5  C   HET A   1)   1.06523   0.95150   0.93686   0.91122
   C(HETATM    6  C   HET A   1)   1.09540   1.00912   0.99596   1.07954
   C(HETATM    7  C   HET A   1)   1.08166   1.01468   1.06016   0.98019
   C(HETATM    8  C   HET A   1)   1.09170   0.98736   1.00737   1.05070
   C(HETATM    9  C   HET A   1)   1.06239   0.98745   0.97687   0.97969
   C(HETATM   10  C   HET A   1)   1.08550   1.01137   1.02399   1.03833
   C(HETATM   11  C   HET A   1)   1.08485   0.99041   0.99428   1.06510
   C(HETATM   12  C   HET A   1)   1.08531   1.01448   1.06114   0.98588
   C(HETATM   13  C   HET A   1)   1.09039   0.97035   1.00433   1.05439
   C(HETATM   14  C   HET A   1)   1.06646   1.00432   0.99107   0.95479
   C(HETATM   15  C   HET A   1)   1.08481   1.01173   1.04492   1.05494
   C(HETATM   16  C   HET A   1)   1.08303   1.07688   0.98260   0.98272
   H(HETATM   17  H   HET A   1)   0.84692
   C(HETATM   18  C   HET A   1)   1.08270   1.00053   1.01584   1.06734
   H(HETATM   19  H   HET A   1)   0.83027
   H(HETATM   20  H   HET A   1)   0.84049
   H(HETATM   21  H   HET A   1)   0.84405
   H(HETATM   22  H   HET A   1)   0.84685
   H(HETATM   23  H   HET A   1)   0.84846
   H(HETATM   24  H   HET A   1)   0.84391
   H(HETATM   25  H   HET A   1)   0.81848
   H(HETATM   26  H   HET A   1)   0.83533
   H(HETATM   27  H   HET A   1)   0.86105
   H(HETATM   29  H   HET A   1)   0.82154
   C(HETATM   30  C   HET A   1)   1.08671   1.08879   1.02261   0.97588
   H(HETATM   31  H   HET A   1)   0.84901
   H(HETATM   32  H   HET A   1)   0.84902
   H(HETATM   33  H   HET A   1)   0.86573
   H(HETATM   34  H   HET A   1)   0.86110


                    (SZ)    =    0.500000
                    (S**2)  =    1.184687


          ATOMIC ORBITAL SPIN POPULATIONS

    Atom   Total    s     px     py     pz   
         Atomic
    1  C  0.1650  0.014  0.141  0.005  0.005
    2  H -0.0476 -0.048
    3  N  0.5873  0.011  0.339  0.195  0.042
    4  C -0.1466 -0.010 -0.012 -0.099 -0.025
    5  C -0.0975 -0.004 -0.005 -0.082 -0.006
    6  C -0.3811 -0.019 -0.235 -0.099 -0.028
    7  C  0.4934  0.015  0.348  0.111  0.019
    8  C -0.3449 -0.013 -0.228 -0.080 -0.024
    9  C  0.4750  0.014  0.326  0.114  0.021
   10  C -0.2756 -0.012 -0.180 -0.067 -0.017
   11  C  0.2819  0.009  0.195  0.064  0.014
   12  C -0.2499 -0.008 -0.172 -0.058 -0.012
   13  C  0.2719  0.009  0.189  0.059  0.015
   14  C -0.2638 -0.009 -0.185 -0.057 -0.013
   15  C  0.2947  0.012  0.200  0.064  0.019
   16  C  0.1329  0.007  0.016  0.103  0.007
   17  C -0.0971 -0.003 -0.004 -0.082 -0.007
   18  H  0.0032  0.003
   19  C  0.1127  0.004  0.006  0.098  0.006
   20  H -0.0148 -0.015
   21  H  0.0104  0.010
   22  H -0.0142 -0.014
   23  H -0.0086 -0.009
   24  H  0.0076  0.008
   25  H -0.0082 -0.008
   26  H  0.0079  0.008
   27  H -0.0041 -0.004
   28  H -0.0041 -0.004
   29  H -0.0038 -0.004
   30  C  0.1264  0.005  0.008  0.100  0.014
   31  H -0.0034 -0.003
   32  H  0.0035  0.003
   33  H -0.0044 -0.004
   34  H -0.0039 -0.004
 *******************************************************************************
 ** Site#: 37037        For non-commercial use only           Version 21.153W **
 *******************************************************************************
 ** Cite this program as: MOPAC2016, Version: 21.153W, James J. P. Stewart,   **
 ** Stewart Computational Chemistry, web: HTTP://OpenMOPAC.net. Days left: 364**
 *******************************************************************************
 **                                                                           **
 **                                MOPAC2016                                  **
 **                                                                           **
 *******************************************************************************

                              PM7 CALCULATION RESULTS

 *******************************************************************************
 *  CALCULATION DONE:                                Thu Jun  3 15:03:55 2021  *
 *  OPT        - OPTIMIZE COORDINATES OF ALL ATOMS
 *  OLDGEO     - PREVIOUS GEOMETRY TO BE USED
 *  TS         - USE EF ROUTINE FOR TS SEARCH
 *  T=         - A TIME OF 172800.0 SECONDS REQUESTED
 *  DUMP=N     - RESTART FILE WRITTEN EVERY 7200.0 SECONDS REQUESTED
 *  HTML       - WRITE HTML SCRIPT TO READ PDB FILE USING JSMOL
 *******************************************************************************
html ts opt oldgeo
 Refine transition state geometry

  ATOM               CHEMICAL                 BOND LENGTH      BOND ANGLE     TWIST ANGLE 
 NUMBER               SYMBOL                  (ANGSTROMS)      (DEGREES)       (DEGREES) 
   (I)                                           NA:I           NB:NA:I       NC:NB:NA:I       NA    NB    NC 
     1       C(HETATM    1  C   HET A   1)    0.00000000       0.0000000       0.0000000   
     2       H(HETATM   28  H   HET A   1)    1.35850078  *    0.0000000       0.0000000        1     0     0
     3       N(HETATM    2  N   HET A   1)    1.35850078  *  167.0521186  *    0.0000000        2     1     0
     4       C(HETATM    3  C   HET A   1)    1.41211965  *  113.7293958  *  -83.6374250  *     3     2     1
     5       C(HETATM    4  C   HET A   1)    2.41503561  *  149.1979355  *    3.7120914  *     4     3     2
     6       C(HETATM    5  C   HET A   1)    1.35992956  *  114.1811686  *   59.6922738  *     3     2     1
     7       C(HETATM    6  C   HET A   1)    1.41982928  *  123.8008372  * -125.6464033  *     6     3     2
     8       C(HETATM    7  C   HET A   1)    1.39426511  *  120.9945792  *  177.4492686  *     7     6     3
     9       C(HETATM    8  C   HET A   1)    1.38649689  *  120.6177849  *   -0.5044079  *     8     7     6
    10       C(HETATM    9  C   HET A   1)    1.42205626  *  120.5644443  *    0.7315982  *     9     8     7
    11       C(HETATM   10  C   HET A   1)    1.41658700  *  120.5243565  *  179.6340881  *    10     9     8
    12       C(HETATM   11  C   HET A   1)    1.38024863  *  120.4891519  * -179.0203879  *    11    10     9
    13       C(HETATM   12  C   HET A   1)    1.40772775  *  120.1335600  *    0.4238557  *    12    11    10
    14       C(HETATM   13  C   HET A   1)    1.38297179  *  120.3139982  *   -0.5133516  *    13    12    11
    15       C(HETATM   14  C   HET A   1)    1.41774578  *  120.1599704  *   -0.0199072  *    10     9     8
    16       C(HETATM   15  C   HET A   1)    1.40592033  *  120.3498285  * -164.9825284  *     4     3     2
    17       C(HETATM   16  C   HET A   1)    1.39038027  *  119.6404434  *  174.0409005  *    16     4     3
    18       H(HETATM   17  H   HET A   1)    1.08943386  *  150.0348448  *    9.7306974  *     5     4     3
    19       C(HETATM   18  C   HET A   1)    1.39453655  *   90.0790942  * -170.3828632  *     5     4     3
    20       H(HETATM   19  H   HET A   1)    1.09003799  *  119.3412062  *   -0.9165655  *     7     6     3
    21       H(HETATM   20  H   HET A   1)    1.09054500  *  119.3829585  * -179.8732392  *     8     7     6
    22       H(HETATM   21  H   HET A   1)    1.08787266  *  120.4360228  * -179.2238612  *     9     8     7
    23       H(HETATM   22  H   HET A   1)    1.08810115  *  119.0267263  *    0.9356662  *    11    10     9
    24       H(HETATM   23  H   HET A   1)    1.08853275  *  120.4726000  * -179.7511744  *    12    11    10
    25       H(HETATM   24  H   HET A   1)    1.08871396  *  119.4614656  *  179.4648632  *    13    12    11
    26       H(HETATM   25  H   HET A   1)    1.09416538  *  120.0172405  *  179.4725858  *    14    13    12
    27       H(HETATM   26  H   HET A   1)    1.08863894  *  119.9818894  *   -4.5266036  *    16     4     3
    28       H(HETATM   27  H   HET A   1)    1.06963914  *  105.1246788  *  -94.0578597  *     1     2     3
    29       H(HETATM   29  H   HET A   1)    2.15889456  *   56.2066040  *    9.3238106  *     5     4     3
    30       C(HETATM   30  C   HET A   1)    1.09123380  *   33.7561075  *   -0.1034462  *    29     5     4
    31       H(HETATM   31  H   HET A   1)    1.08752830  *  120.0239139  * -179.8411963  *    19     5     4
    32       H(HETATM   32  H   HET A   1)    1.08905685  *  119.7473125  * -179.4721801  *    17    16     4
    33       H(HETATM   33  H   HET A   1)    1.06847248  *  106.6547037  *   25.6109147  *     1     2     3
    34       H(HETATM   34  H   HET A   1)    1.06885166  *  105.0731708  *  146.3921582  *     1     2     3
 

 General Reference for PM7:
 "Optimization of Parameters for Semiempirical Methods VI: More Modifications to the 
 NDDO Approximations and Re-optimization of Parameters", J. J. P. Stewart, J. Mol. Mod., 1:32, 19 (2013)
 https://link.springer.com/article/10.1007/s00894-012-1667-x

           Empirical Formula: C17 H16 N  =    34 atoms



      MOLECULAR POINT GROUP   :   C1  


          UHF CALCULATION, NO. OF ALPHA ELECTRONS =   45
                           NO. OF BETA  ELECTRONS =   44

          Transition state refinement using EF

          HESSIAN CALCULATED NUMERICALLY

 CYCLE:     1 TIME:   3.891 TIME LEFT:  2.00D  GRAD.:    65.412 HEAT:  108.8715
 CYCLE:     2 TIME:   0.172 TIME LEFT:  2.00D  GRAD.:    44.025 HEAT:  112.6760
 CYCLE:     3 TIME:   0.141 TIME LEFT:  2.00D  GRAD.:    31.028 HEAT:  113.0557
 CYCLE:     4 TIME:   0.141 TIME LEFT:  2.00D  GRAD.:    16.162 HEAT:  113.5804
 CYCLE:     5 TIME:   0.156 TIME LEFT:  2.00D  GRAD.:    16.458 HEAT:  113.3442
 CYCLE:     6 TIME:   0.125 TIME LEFT:  2.00D  GRAD.:     8.141 HEAT:  113.2410
 CYCLE:     7 TIME:   0.141 TIME LEFT:  2.00D  GRAD.:     5.610 HEAT:  113.1971
 CYCLE:     8 TIME:   0.125 TIME LEFT:  2.00D  GRAD.:     6.194 HEAT:  113.1947
 CYCLE:     9 TIME:   0.094 TIME LEFT:  2.00D  GRAD.:     0.938 HEAT:  113.1897

     GRADIENT =  0.93818 IS LESS THAN CUTOFF =  1.00000



 -------------------------------------------------------------------------------
 html ts opt
 Refine transition state geometry



     GEOMETRY OPTIMISED USING EIGENVECTOR FOLLOWING (TS).     
     SCF FIELD WAS ACHIEVED                                   


                              PM7 CALCULATION
                                                       MOPAC2016 (Version: 21.153W)
                                                       Thu Jun  3 15:04:00 2021
                                                       No. of days remaining = 364




          FINAL HEAT OF FORMATION =        113.18967 KCAL/MOL =     473.58559 KJ/MOL


          TOTAL ENERGY            =      -2487.31162 EV
          ELECTRONIC ENERGY       =     -17458.71138 EV  POINT GROUP:     C1  
          CORE-CORE REPULSION     =      14971.39976 EV
          COSMO AREA              =        275.39 SQUARE ANGSTROMS
          COSMO VOLUME            =        305.35 CUBIC ANGSTROMS

          GRADIENT NORM           =          0.93818 = 0.16090 PER ATOM
          IONIZATION POTENTIAL    =          8.293302 EV
          ALPHA SOMO LUMO (EV)    =         -8.459 -0.518
          BETA  SOMO LUMO (EV)    =         -8.293 -1.625
          NO. OF ALPHA ELECTRONS  =         45
          NO. OF BETA  ELECTRONS  =         44
          MOLECULAR WEIGHT        =        234.3201

          MOLECULAR DIMENSIONS (Angstroms)

            Atom       Atom       Distance
            H    31    H    24    11.25181
            H    34    H    21     6.95025
            H    32    H    33     4.46303


          SCF CALCULATIONS        =        106
 
          WALL-CLOCK TIME         =          8.125 SECONDS
          COMPUTATION TIME        =         30.625 SECONDS




  ATOM               CHEMICAL                 BOND LENGTH      BOND ANGLE     TWIST ANGLE 
 NUMBER               SYMBOL                  (ANGSTROMS)      (DEGREES)       (DEGREES) 
   (I)                                           NA:I           NB:NA:I       NC:NB:NA:I       NA    NB    NC 
     1       C(HETATM    1  C   HET A   1)    0.00000000       0.0000000       0.0000000   
     2       H(HETATM   28  H   HET A   1)    1.41588804  *    0.0000000       0.0000000        1     0     0
     3       N(HETATM    2  N   HET A   1)    1.24768581  *  162.2147951  *    0.0000000        2     1     0
     4       C(HETATM    3  C   HET A   1)    1.41279065  *  112.4320523  *  -94.9200990  *     3     2     1
     5       C(HETATM    4  C   HET A   1)    2.41629461  *  149.7994798  *  -12.2762061  *     4     3     2
     6       C(HETATM    5  C   HET A   1)    1.40379239  *  109.9304960  *   40.7820836  *     3     2     1
     7       C(HETATM    6  C   HET A   1)    1.39249857  *  123.5887542  * -112.7347209  *     6     3     2
     8       C(HETATM    7  C   HET A   1)    1.40671461  *  120.5188783  *  179.7171950  *     7     6     3
     9       C(HETATM    8  C   HET A   1)    1.37664129  *  120.5619669  *   -1.4528871  *     8     7     6
    10       C(HETATM    9  C   HET A   1)    1.42162871  *  120.4080711  *    0.8124050  *     9     8     7
    11       C(HETATM   10  C   HET A   1)    1.42031505  *  120.7782324  * -179.7174289  *    10     9     8
    12       C(HETATM   11  C   HET A   1)    1.37492180  *  120.5196296  * -179.2553356  *    11    10     9
    13       C(HETATM   12  C   HET A   1)    1.41315764  *  120.2075954  *    0.5392700  *    12    11    10
    14       C(HETATM   13  C   HET A   1)    1.37593444  *  120.3022057  *   -0.6338957  *    13    12    11
    15       C(HETATM   14  C   HET A   1)    1.41511493  *  119.9738075  *    0.4595592  *    10     9     8
    16       C(HETATM   15  C   HET A   1)    1.40652292  *  119.6920923  * -178.7428993  *     4     3     2
    17       C(HETATM   16  C   HET A   1)    1.38906066  *  119.6997723  *  173.2245246  *    16     4     3
    18       H(HETATM   17  H   HET A   1)    1.08915178  *  149.9066816  *   11.5641790  *     5     4     3
    19       C(HETATM   18  C   HET A   1)    1.39300744  *   90.2122846  * -168.4096108  *     5     4     3
    20       H(HETATM   19  H   HET A   1)    1.08942124  *  120.3894581  *    0.2786673  *     7     6     3
    21       H(HETATM   20  H   HET A   1)    1.08974210  *  118.8848407  *  179.1513900  *     8     7     6
    22       H(HETATM   21  H   HET A   1)    1.08761261  *  120.7379375  * -179.2113048  *     9     8     7
    23       H(HETATM   22  H   HET A   1)    1.08809073  *  118.7610560  *    0.6645334  *    11    10     9
    24       H(HETATM   23  H   HET A   1)    1.08827028  *  120.6800983  * -179.8265868  *    12    11    10
    25       H(HETATM   24  H   HET A   1)    1.08807892  *  119.1297884  *  179.0139473  *    13    12    11
    26       H(HETATM   25  H   HET A   1)    1.09191958  *  120.3887418  *  178.5546195  *    14    13    12
    27       H(HETATM   26  H   HET A   1)    1.08883704  *  119.8541315  *   -5.5290710  *    16     4     3
    28       H(HETATM   27  H   HET A   1)    1.07107203  *  100.1973342  *  -81.6468884  *     1     2     3
    29       H(HETATM   29  H   HET A   1)    2.15124309  *   56.2682269  *   11.7570509  *     5     4     3
    30       C(HETATM   30  C   HET A   1)    1.08700794  *   34.0938149  *    0.0315921  *    29     5     4
    31       H(HETATM   31  H   HET A   1)    1.08657319  *  120.1295751  * -179.9244389  *    19     5     4
    32       H(HETATM   32  H   HET A   1)    1.08939775  *  119.6859587  * -179.7023603  *    17    16     4
    33       H(HETATM   33  H   HET A   1)    1.06879743  *  103.9600947  *   38.1626092  *     1     2     3
    34       H(HETATM   34  H   HET A   1)    1.06921742  *  100.6158076  *  159.1097467  *     1     2     3

                             CARTESIAN COORDINATES

   1    C        0.000000000     0.000000000     0.000000000
   2    H        1.415888041     0.000000000     0.000000000
   3    N        2.603944824     0.381104923     0.000000000
   4    C        3.151494213     0.439125051    -1.301076766
   5    C        3.006044638    -0.092626332    -3.653642291
   6    C        2.754368326     1.478799575     0.862016409
   7    C        3.060112530     2.765159955     0.425152916
   8    C        3.190303287     3.820345822     1.346282199
   9    C        2.988390919     3.604686279     2.690850385
  10    C        2.661769424     2.306837200     3.170365095
  11    C        2.445948430     2.076686438     4.555192434
  12    C        2.145296210     0.816287811     5.014989669
  13    C        2.059012240    -0.267897663     4.112708420
  14    C        2.262160423    -0.068635578     2.766520828
  15    C        2.552078822     1.225290543     2.264398727
  16    C        4.492617809     0.825263362    -1.475980819
  17    C        5.072548529     0.747288739    -2.735778362
  18    H        2.428956778    -0.451797053    -4.504652040
  19    C        4.333243556     0.292821168    -3.828121457
  20    H        3.192807030     2.969601885    -0.636654182
  21    H        3.443921410     4.813580260     0.976551160
  22    H        3.075798660     4.421121173     3.404079053
  23    H        2.524374201     2.915514944     5.243783435
  24    H        1.976669662     0.637523185     6.075150266
  25    H        1.835930371    -1.260865276     4.497631199
  26    H        2.219078688    -0.909294022     2.071016899
  27    H        5.075176929     1.163695516    -0.620612686
  28    H       -0.189621465     0.153140424     1.042970279
  29    H        1.371450961    -0.321365502    -2.273921766
  30    C        2.408584429    -0.020838358    -2.398917248
  31    H        4.792634918     0.237118318    -4.811227796
  32    H        6.112746732     1.041818350    -2.870044736
  33    H       -0.257843153     0.815532301    -0.640899301
  34    H       -0.196973937    -0.981835396    -0.374735116


           Empirical Formula: C17 H16 N  =    34 atoms



      MOLECULAR POINT GROUP   :   C1  


          ALPHA EIGENVALUES  
 -35.94976 -30.98556 -30.27981 -29.24314 -26.75986 -26.10341 -25.69688 -25.12298
 -24.74355 -24.21555 -21.73341 -21.49106 -21.31306 -20.80813 -19.92372 -18.06532
 -17.71079 -17.03726 -16.84472 -16.33641 -15.71280 -15.19115 -14.90742 -14.68734
 -14.52711 -14.42370 -14.37121 -14.30528 -14.06540 -13.98722 -13.59263 -13.55426
 -13.03168 -12.51061 -12.32660 -12.06306 -11.95545 -11.74590 -11.43989 -10.68485
  -9.95676  -9.85862  -9.73470  -9.25250  -8.45875  -0.51835  -0.09681   0.17891
   0.24481   0.88381   1.66899   2.45681   2.58809   2.79159   3.74956   3.96185
   4.23682   4.34575   4.58156   4.59190   4.71750   4.81624   4.88421   4.92040
   5.01096   5.05663   5.19865   5.26407   5.38916   5.60619   5.62900   5.74246
   5.80434   5.87434   5.88933   5.94730   5.95366   5.97809   6.07849   6.08427
   6.09691   6.12605   6.19200   6.20536   6.26603   6.30524   6.31397   6.80320


           BETA EIGENVALUES 
 -35.29283 -30.97177 -30.24947 -29.22589 -26.73556 -26.07566 -25.67419 -25.09774
 -24.64552 -24.01546 -21.70389 -21.46456 -21.28406 -20.77145 -19.88047 -18.02336
 -17.62650 -16.97601 -16.80955 -16.07478 -15.65582 -15.15551 -14.87432 -14.57032
 -14.47250 -14.39260 -14.32690 -14.15685 -13.93761 -13.82328 -13.55206 -13.43706
 -12.97531 -12.44912 -12.22644 -12.00303 -11.85855 -11.71451 -11.26910 -10.40383
  -9.92217  -9.61023  -9.17932  -8.29330  -1.62506  -0.40439  -0.04654   0.19287
   0.30548   0.96166   1.75040   2.48711   2.82613   2.85100   3.75481   4.00101
   4.25441   4.37890   4.59078   4.60679   4.74109   4.83327   4.89555   4.92986
   5.02705   5.06472   5.22213   5.27344   5.44552   5.63706   5.74309   5.80578
   5.86108   5.88136   5.90203   5.99160   6.07172   6.07485   6.08517   6.09473
   6.13946   6.15281   6.19106   6.23174   6.27942   6.29870   6.32201   6.95262


              NET ATOMIC CHARGES AND DIPOLE CONTRIBUTIONS

  ATOM NO.                 TYPE                        CHARGE      No. of ELECS.   s-Pop       p-Pop       
    1          C(HETATM    1  C   HET A   1)          -0.527634        4.5276     1.11264     3.41500
    2          H(HETATM   28  H   HET A   1)           0.292240        0.7078     0.70776
    3          N(HETATM    2  N   HET A   1)          -0.443377        5.4434     1.68797     3.75541
    4          C(HETATM    3  C   HET A   1)           0.175438        3.8246     1.06188     2.76268
    5          C(HETATM    4  C   HET A   1)          -0.104053        4.1041     1.08351     3.02054
    6          C(HETATM    5  C   HET A   1)           0.140601        3.8594     1.06183     2.79757
    7          C(HETATM    6  C   HET A   1)          -0.216824        4.2168     1.08654     3.13028
    8          C(HETATM    7  C   HET A   1)          -0.119136        4.1191     1.08145     3.03768
    9          C(HETATM    8  C   HET A   1)          -0.171935        4.1719     1.08518     3.08676
   10          C(HETATM    9  C   HET A   1)           0.009147        3.9909     1.06331     2.92754
   11          C(HETATM   10  C   HET A   1)          -0.164934        4.1649     1.08478     3.08016
   12          C(HETATM   11  C   HET A   1)          -0.135562        4.1356     1.08417     3.05140
   13          C(HETATM   12  C   HET A   1)          -0.158544        4.1585     1.08315     3.07539
   14          C(HETATM   13  C   HET A   1)          -0.126845        4.1268     1.08745     3.03940
   15          C(HETATM   14  C   HET A   1)          -0.033818        4.0338     1.06417     2.96964
   16          C(HETATM   15  C   HET A   1)          -0.216645        4.2166     1.08184     3.13481
   17          C(HETATM   16  C   HET A   1)          -0.104398        4.1044     1.08384     3.02055
   18          H(HETATM   17  H   HET A   1)           0.147650        0.8523     0.85235
   19          C(HETATM   18  C   HET A   1)          -0.194749        4.1947     1.07940     3.11534
   20          H(HETATM   19  H   HET A   1)           0.168827        0.8312     0.83117
   21          H(HETATM   20  H   HET A   1)           0.155342        0.8447     0.84466
   22          H(HETATM   21  H   HET A   1)           0.155278        0.8447     0.84472
   23          H(HETATM   22  H   HET A   1)           0.152943        0.8471     0.84706
   24          H(HETATM   23  H   HET A   1)           0.149502        0.8505     0.85050
   25          H(HETATM   24  H   HET A   1)           0.152596        0.8474     0.84740
   26          H(HETATM   25  H   HET A   1)           0.171473        0.8285     0.82853
   27          H(HETATM   26  H   HET A   1)           0.169041        0.8310     0.83096
   28          H(HETATM   27  H   HET A   1)           0.152563        0.8474     0.84744
   29          H(HETATM   29  H   HET A   1)           0.160901        0.8391     0.83910
   30          C(HETATM   30  C   HET A   1)          -0.230938        4.2309     1.08003     3.15091
   31          H(HETATM   31  H   HET A   1)           0.150750        0.8492     0.84925
   32          H(HETATM   32  H   HET A   1)           0.149472        0.8505     0.85053
   33          H(HETATM   33  H   HET A   1)           0.147013        0.8530     0.85299
   34          H(HETATM   34  H   HET A   1)           0.148616        0.8514     0.85138

          NET CHARGE ON RESIDUES

      Residue         Charge  Anion or
                              Cation?
      HET A   1       +0.000
 


 DIPOLE           X         Y         Z       TOTAL
 POINT-CHG.    -0.347     0.554     0.118     0.664
 HYBRID        -0.343     0.260    -0.175     0.464
 SUM           -0.690     0.814    -0.057     1.069


          ATOMIC ORBITAL ELECTRON POPULATIONS

                   Atom                  s        px        py        pz   
   C(HETATM    1  C   HET A   1)   1.11264   1.08880   1.15884   1.16736
   H(HETATM   28  H   HET A   1)   0.70776
   N(HETATM    2  N   HET A   1)   1.68797   1.20586   1.38060   1.16895
   C(HETATM    3  C   HET A   1)   1.06188   0.95804   0.95257   0.85207
   C(HETATM    4  C   HET A   1)   1.08351   1.00848   0.97724   1.03481
   C(HETATM    5  C   HET A   1)   1.06183   0.98195   0.89085   0.92477
   C(HETATM    6  C   HET A   1)   1.08654   1.05515   0.98350   1.09164
   C(HETATM    7  C   HET A   1)   1.08145   0.98810   1.05967   0.98992
   C(HETATM    8  C   HET A   1)   1.08518   1.01895   1.03653   1.03128
   C(HETATM    9  C   HET A   1)   1.06331   0.97823   0.97294   0.97637
   C(HETATM   10  C   HET A   1)   1.08478   1.01489   1.04717   1.01810
   C(HETATM   11  C   HET A   1)   1.08417   0.98993   0.98841   1.07305
   C(HETATM   12  C   HET A   1)   1.08315   1.01319   1.06318   0.99902
   C(HETATM   13  C   HET A   1)   1.08745   0.97771   1.03729   1.02440
   C(HETATM   14  C   HET A   1)   1.06417   1.02117   0.98807   0.96041
   C(HETATM   15  C   HET A   1)   1.08184   1.00881   1.06871   1.05729
   C(HETATM   16  C   HET A   1)   1.08384   1.06551   0.97417   0.98088
   H(HETATM   17  H   HET A   1)   0.85235
   C(HETATM   18  C   HET A   1)   1.07940   1.00985   1.03887   1.06663
   H(HETATM   19  H   HET A   1)   0.83117
   H(HETATM   20  H   HET A   1)   0.84466
   H(HETATM   21  H   HET A   1)   0.84472
   H(HETATM   22  H   HET A   1)   0.84706
   H(HETATM   23  H   HET A   1)   0.85050
   H(HETATM   24  H   HET A   1)   0.84740
   H(HETATM   25  H   HET A   1)   0.82853
   H(HETATM   26  H   HET A   1)   0.83096
   H(HETATM   27  H   HET A   1)   0.84744
   H(HETATM   29  H   HET A   1)   0.83910
   C(HETATM   30  C   HET A   1)   1.08003   1.08418   1.07766   0.98907
   H(HETATM   31  H   HET A   1)   0.84925
   H(HETATM   32  H   HET A   1)   0.85053
   H(HETATM   33  H   HET A   1)   0.85299
   H(HETATM   34  H   HET A   1)   0.85138


                    (SZ)    =    0.500000
                    (S**2)  =    1.028344


          ATOMIC ORBITAL SPIN POPULATIONS

    Atom   Total    s     px     py     pz   
         Atomic
    1  C  0.6548  0.036  0.578  0.021  0.021
    2  H -0.1044 -0.104
    3  N  0.4058  0.009  0.329  0.029  0.038
    4  C -0.0626 -0.006 -0.011 -0.031 -0.015
    5  C -0.0357 -0.001 -0.004 -0.027 -0.003
    6  C -0.3079 -0.014 -0.243 -0.032 -0.019
    7  C  0.3269  0.010  0.275  0.028  0.014
    8  C -0.2481 -0.009 -0.202 -0.020 -0.017
    9  C  0.3051  0.009  0.256  0.023  0.017
   10  C -0.2015 -0.008 -0.159 -0.020 -0.014
   11  C  0.2072  0.007  0.172  0.015  0.013
   12  C -0.1906 -0.006 -0.158 -0.016 -0.010
   13  C  0.1985  0.007  0.166  0.013  0.013
   14  C -0.2040 -0.007 -0.171 -0.014 -0.012
   15  C  0.2136  0.009  0.172  0.018  0.015
   16  C  0.0554  0.004  0.008  0.038  0.005
   17  C -0.0345 -0.001 -0.004 -0.027 -0.003
   18  H  0.0011  0.001
   19  C  0.0398  0.001  0.006  0.030  0.003
   20  H -0.0098 -0.010
   21  H  0.0074  0.007
   22  H -0.0092 -0.009
   23  H -0.0063 -0.006
   24  H  0.0058  0.006
   25  H -0.0060 -0.006
   26  H  0.0061  0.006
   27  H -0.0018 -0.002
   28  H -0.0170 -0.017
   29  H -0.0013 -0.001
   30  C  0.0459  0.001  0.004  0.037  0.004
   31  H -0.0012 -0.001
   32  H  0.0016  0.002
   33  H -0.0171 -0.017
   34  H -0.0160 -0.016
 *******************************************************************************
 ** Site#: 37037        For non-commercial use only           Version 21.153W **
 *******************************************************************************
 ** Cite this program as: MOPAC2016, Version: 21.153W, James J. P. Stewart,   **
 ** Stewart Computational Chemistry, web: HTTP://OpenMOPAC.net. Days left: 364**
 *******************************************************************************
 **                                                                           **
 **                                MOPAC2016                                  **
 **                                                                           **
 *******************************************************************************

                              PM7 CALCULATION RESULTS

 *******************************************************************************
 *  CALCULATION DONE:                                Thu Jun  3 15:04:00 2021  *
 *  OLDGEO     - PREVIOUS GEOMETRY TO BE USED
 *  FORCE      - FORCE CALCULATION SPECIFIED
 *  T=         - A TIME OF 172800.0 SECONDS REQUESTED
 *  DUMP=N     - RESTART FILE WRITTEN EVERY 7200.0 SECONDS REQUESTED
 *  ISOTOPE    - SAVE THE FORCE MATRIX FOR USE LATER
 *******************************************************************************
isotope FORCE oldgeo
 Force constant calculation

  ATOM               CHEMICAL                 BOND LENGTH      BOND ANGLE     TWIST ANGLE 
 NUMBER               SYMBOL                  (ANGSTROMS)      (DEGREES)       (DEGREES) 
   (I)                                           NA:I           NB:NA:I       NC:NB:NA:I       NA    NB    NC 
     1       C(HETATM    1  C   HET A   1)    0.00000000       0.0000000       0.0000000   
     2       H(HETATM   28  H   HET A   1)    1.41588804  *    0.0000000       0.0000000        1     0     0
     3       N(HETATM    2  N   HET A   1)    1.24768581  *  162.2147951  *    0.0000000        2     1     0
     4       C(HETATM    3  C   HET A   1)    1.41279065  *  112.4320523  *  -94.9200990  *     3     2     1
     5       C(HETATM    4  C   HET A   1)    2.41629461  *  149.7994798  *  -12.2762061  *     4     3     2
     6       C(HETATM    5  C   HET A   1)    1.40379239  *  109.9304960  *   40.7820836  *     3     2     1
     7       C(HETATM    6  C   HET A   1)    1.39249857  *  123.5887542  * -112.7347209  *     6     3     2
     8       C(HETATM    7  C   HET A   1)    1.40671461  *  120.5188783  *  179.7171950  *     7     6     3
     9       C(HETATM    8  C   HET A   1)    1.37664129  *  120.5619669  *   -1.4528871  *     8     7     6
    10       C(HETATM    9  C   HET A   1)    1.42162871  *  120.4080711  *    0.8124050  *     9     8     7
    11       C(HETATM   10  C   HET A   1)    1.42031505  *  120.7782324  * -179.7174289  *    10     9     8
    12       C(HETATM   11  C   HET A   1)    1.37492180  *  120.5196296  * -179.2553356  *    11    10     9
    13       C(HETATM   12  C   HET A   1)    1.41315764  *  120.2075954  *    0.5392700  *    12    11    10
    14       C(HETATM   13  C   HET A   1)    1.37593444  *  120.3022057  *   -0.6338957  *    13    12    11
    15       C(HETATM   14  C   HET A   1)    1.41511493  *  119.9738075  *    0.4595592  *    10     9     8
    16       C(HETATM   15  C   HET A   1)    1.40652292  *  119.6920923  * -178.7428993  *     4     3     2
    17       C(HETATM   16  C   HET A   1)    1.38906066  *  119.6997723  *  173.2245246  *    16     4     3
    18       H(HETATM   17  H   HET A   1)    1.08915178  *  149.9066816  *   11.5641790  *     5     4     3
    19       C(HETATM   18  C   HET A   1)    1.39300744  *   90.2122846  * -168.4096108  *     5     4     3
    20       H(HETATM   19  H   HET A   1)    1.08942124  *  120.3894581  *    0.2786673  *     7     6     3
    21       H(HETATM   20  H   HET A   1)    1.08974210  *  118.8848407  *  179.1513900  *     8     7     6
    22       H(HETATM   21  H   HET A   1)    1.08761261  *  120.7379375  * -179.2113048  *     9     8     7
    23       H(HETATM   22  H   HET A   1)    1.08809073  *  118.7610560  *    0.6645334  *    11    10     9
    24       H(HETATM   23  H   HET A   1)    1.08827028  *  120.6800983  * -179.8265868  *    12    11    10
    25       H(HETATM   24  H   HET A   1)    1.08807892  *  119.1297884  *  179.0139473  *    13    12    11
    26       H(HETATM   25  H   HET A   1)    1.09191958  *  120.3887418  *  178.5546195  *    14    13    12
    27       H(HETATM   26  H   HET A   1)    1.08883704  *  119.8541315  *   -5.5290710  *    16     4     3
    28       H(HETATM   27  H   HET A   1)    1.07107203  *  100.1973342  *  -81.6468884  *     1     2     3
    29       H(HETATM   29  H   HET A   1)    2.15124309  *   56.2682269  *   11.7570509  *     5     4     3
    30       C(HETATM   30  C   HET A   1)    1.08700794  *   34.0938149  *    0.0315921  *    29     5     4
    31       H(HETATM   31  H   HET A   1)    1.08657319  *  120.1295751  * -179.9244389  *    19     5     4
    32       H(HETATM   32  H   HET A   1)    1.08939775  *  119.6859587  * -179.7023603  *    17    16     4
    33       H(HETATM   33  H   HET A   1)    1.06879743  *  103.9600947  *   38.1626092  *     1     2     3
    34       H(HETATM   34  H   HET A   1)    1.06921742  *  100.6158076  *  159.1097467  *     1     2     3
 

 General Reference for PM7:
 "Optimization of Parameters for Semiempirical Methods VI: More Modifications to the 
 NDDO Approximations and Re-optimization of Parameters", J. J. P. Stewart, J. Mol. Mod., 1:32, 19 (2013)
 https://link.springer.com/article/10.1007/s00894-012-1667-x

           Empirical Formula: C17 H16 N  =    34 atoms



      MOLECULAR POINT GROUP   :   C1  


          UHF CALCULATION, NO. OF ALPHA ELECTRONS =   45
                           NO. OF BETA  ELECTRONS =   44


          HEAT OF FORMATION =     113.189673 KCALS/MOLE


          CARTESIAN COORDINATE DERIVATIVES

   NUMBER  ATOM         X            Y            Z

     1       C     -0.417638     0.019142    -0.223671
     2       H      0.476409     0.187116     0.499578
     3       N     -0.283239    -0.190409    -0.330817
     4       C     -0.137589    -0.149031     0.161912
     5       C     -0.021739     0.019660    -0.040581
     6       C      0.100986     0.105033     0.068332
     7       C     -0.048530    -0.073464    -0.087481
     8       C     -0.018238     0.078913     0.087715
     9       C     -0.124195    -0.008155     0.000920
    10       C      0.072219    -0.063648    -0.023832
    11       C     -0.027156    -0.005285     0.016151
    12       C     -0.021997    -0.074981    -0.050684
    13       C     -0.011834     0.009920     0.031302
    14       C     -0.063770     0.020650    -0.072965
    15       C      0.005223     0.026531    -0.060222
    16       C      0.065757     0.080687     0.033410
    17       C     -0.012203    -0.045077    -0.038510
    18       H      0.014882    -0.023685     0.050322
    19       C      0.042932     0.074068    -0.012856
    20       H      0.013352    -0.021711     0.026261
    21       H      0.039780    -0.030275    -0.018917
    22       H      0.029364     0.007572    -0.007703
    23       H      0.022578     0.010307    -0.006452
    24       H      0.012234     0.012528    -0.018978
    25       H      0.020766     0.017221     0.003449
    26       H      0.001123     0.023051     0.041735
    27       H     -0.007201     0.021551     0.003599
    28       H      0.167451    -0.050175     0.031960
    29       H      0.025830     0.008292    -0.005621
    30       C     -0.030892    -0.020421    -0.032381
    31       H     -0.017319    -0.029411    -0.000349
    32       H     -0.009399     0.019162     0.010334
    33       H      0.065631     0.015973     0.016544
    34       H      0.076417     0.028351    -0.051504
 


          GRADIENT NORM =   1.10690


          TIME FOR SCF CALCULATION =    0.17

          TIME FOR DERIVATIVES     =    0.02

          MOLECULAR WEIGHT =  234.32



          ROTATIONAL CONSTANTS IN CM(-1)

          A =    0.02928266   B =    0.00832051   C =    0.00734777



           PRINCIPAL MOMENTS OF INERTIA IN UNITS OF 10**(-40)*GRAM-CM**2

          A =      955.9505   B =     3364.3098   C =     3809.6965


          ORIENTATION OF MOLECULE IN FORCE CALCULATION

    NO.       ATOM         X         Y         Z

     1          C      -2.8130   -1.1109   -0.6339
     2          H      -1.3971   -1.1109   -0.6339
     3          N      -0.2091   -0.7298   -0.6339
     4          C       0.3385   -0.6718   -1.9350
     5          C       0.1930   -1.2035   -4.2876
     6          C      -0.0586    0.3679    0.2281
     7          C       0.2471    1.6543   -0.2088
     8          C       0.3773    2.7095    0.7124
     9          C       0.1754    2.4938    2.0569
    10          C      -0.1512    1.1959    2.5364
    11          C      -0.3671    0.9658    3.9213
    12          C      -0.6677   -0.2946    4.3811
    13          C      -0.7540   -1.3788    3.4788
    14          C      -0.5508   -1.1795    2.1326
    15          C      -0.2609    0.1144    1.6305
    16          C       1.6796   -0.2856   -2.1099
    17          C       2.2595   -0.3636   -3.3697
    18          H      -0.3840   -1.5627   -5.1386
    19          C       1.5202   -0.8181   -4.4620
    20          H       0.3798    1.8587   -1.2706
    21          H       0.6309    3.7027    0.3426
    22          H       0.2628    3.3102    2.7702
    23          H      -0.2886    1.8046    4.6099
    24          H      -0.8363   -0.4734    5.4412
    25          H      -0.9771   -2.3718    3.8637
    26          H      -0.5939   -2.0202    1.4371
    27          H       2.2622    0.0528   -1.2545
    28          H      -3.0026   -0.9578    0.4091
    29          H      -1.4415   -1.4323   -2.9078
    30          C      -0.4044   -1.1317   -3.0328
    31          H       1.9796   -0.8738   -5.4451
    32          H       3.2997   -0.0691   -3.5040
    33          H      -3.0708   -0.2954   -1.2748
    34          H      -3.0100   -2.0927   -1.0087


    FIRST DERIVATIVES WILL BE USED IN THE CALCULATION OF SECOND DERIVATIVES

          ESTIMATED TIME TO COMPLETE CALCULATION =       38.25 SECONDS

    FOR POINT-GROUP C1   THERE ARE   1 UNIQUE SYMMETRY FUNCTIONS.

 STEP:   1 TIME =     0.31 SECS, INTEGRAL =      0.31 TIME LEFT: 172799.50
 STEP:   2 TIME =     0.16 SECS, INTEGRAL =      0.47 TIME LEFT: 172799.34
 STEP:   3 TIME =     0.09 SECS, INTEGRAL =      0.56 TIME LEFT: 172799.25
 STEP:   4 TIME =     0.23 SECS, INTEGRAL =      0.80 TIME LEFT: 172799.02
 STEP:   5 TIME =     0.22 SECS, INTEGRAL =      1.02 TIME LEFT: 172798.80
 STEP:   6 TIME =     0.11 SECS, INTEGRAL =      1.12 TIME LEFT: 172798.69
 STEP:   7 TIME =     0.20 SECS, INTEGRAL =      1.33 TIME LEFT: 172798.48
 STEP:   8 TIME =     0.22 SECS, INTEGRAL =      1.55 TIME LEFT: 172798.27
 STEP:   9 TIME =     0.20 SECS, INTEGRAL =      1.75 TIME LEFT: 172798.06
 STEP:  10 TIME =     0.16 SECS, INTEGRAL =      1.91 TIME LEFT: 172797.91
 STEP:  11 TIME =     0.11 SECS, INTEGRAL =      2.02 TIME LEFT: 172797.80
 STEP:  12 TIME =     0.20 SECS, INTEGRAL =      2.22 TIME LEFT: 172797.59
 STEP:  13 TIME =     0.16 SECS, INTEGRAL =      2.38 TIME LEFT: 172797.44
 STEP:  14 TIME =     0.11 SECS, INTEGRAL =      2.48 TIME LEFT: 172797.33
 STEP:  15 TIME =     0.09 SECS, INTEGRAL =      2.58 TIME LEFT: 172797.23
 STEP:  16 TIME =     0.17 SECS, INTEGRAL =      2.75 TIME LEFT: 172797.06
 STEP:  17 TIME =     0.22 SECS, INTEGRAL =      2.97 TIME LEFT: 172796.84
 STEP:  18 TIME =     0.20 SECS, INTEGRAL =      3.17 TIME LEFT: 172796.64
 STEP:  19 TIME =     0.16 SECS, INTEGRAL =      3.33 TIME LEFT: 172796.48
 STEP:  20 TIME =     0.22 SECS, INTEGRAL =      3.55 TIME LEFT: 172796.27
 STEP:  21 TIME =     0.19 SECS, INTEGRAL =      3.73 TIME LEFT: 172796.08
 STEP:  22 TIME =     0.14 SECS, INTEGRAL =      3.88 TIME LEFT: 172795.94
 STEP:  23 TIME =     0.09 SECS, INTEGRAL =      3.97 TIME LEFT: 172795.84
 STEP:  24 TIME =     0.20 SECS, INTEGRAL =      4.17 TIME LEFT: 172795.64
 STEP:  25 TIME =     0.19 SECS, INTEGRAL =      4.36 TIME LEFT: 172795.45
 STEP:  26 TIME =     0.17 SECS, INTEGRAL =      4.53 TIME LEFT: 172795.28
 STEP:  27 TIME =     0.22 SECS, INTEGRAL =      4.75 TIME LEFT: 172795.06
 STEP:  28 TIME =     0.14 SECS, INTEGRAL =      4.89 TIME LEFT: 172794.92
 STEP:  29 TIME =     0.20 SECS, INTEGRAL =      5.09 TIME LEFT: 172794.72
 STEP:  30 TIME =     0.19 SECS, INTEGRAL =      5.28 TIME LEFT: 172794.53
 STEP:  31 TIME =     0.17 SECS, INTEGRAL =      5.45 TIME LEFT: 172794.36
 STEP:  32 TIME =     0.20 SECS, INTEGRAL =      5.66 TIME LEFT: 172794.16
 STEP:  33 TIME =     0.20 SECS, INTEGRAL =      5.86 TIME LEFT: 172793.95
 STEP:  34 TIME =     0.17 SECS, INTEGRAL =      6.03 TIME LEFT: 172793.78
 STEP:  35 TIME =     0.20 SECS, INTEGRAL =      6.23 TIME LEFT: 172793.58
 STEP:  36 TIME =     0.19 SECS, INTEGRAL =      6.42 TIME LEFT: 172793.39
 STEP:  37 TIME =     0.14 SECS, INTEGRAL =      6.56 TIME LEFT: 172793.25
 STEP:  38 TIME =     0.09 SECS, INTEGRAL =      6.66 TIME LEFT: 172793.16
 STEP:  39 TIME =     0.19 SECS, INTEGRAL =      6.84 TIME LEFT: 172792.97
 STEP:  40 TIME =     0.19 SECS, INTEGRAL =      7.03 TIME LEFT: 172792.78
 STEP:  41 TIME =     0.17 SECS, INTEGRAL =      7.20 TIME LEFT: 172792.61
 STEP:  42 TIME =     0.20 SECS, INTEGRAL =      7.41 TIME LEFT: 172792.41
 STEP:  43 TIME =     0.19 SECS, INTEGRAL =      7.59 TIME LEFT: 172792.22
 STEP:  44 TIME =     0.22 SECS, INTEGRAL =      7.81 TIME LEFT: 172792.00
 STEP:  45 TIME =     0.19 SECS, INTEGRAL =      8.00 TIME LEFT: 172791.81
 STEP:  46 TIME =     0.12 SECS, INTEGRAL =      8.12 TIME LEFT: 172791.69
 STEP:  47 TIME =     0.14 SECS, INTEGRAL =      8.27 TIME LEFT: 172791.55
 STEP:  48 TIME =     0.09 SECS, INTEGRAL =      8.36 TIME LEFT: 172791.45
 STEP:  49 TIME =     0.12 SECS, INTEGRAL =      8.48 TIME LEFT: 172791.33
 STEP:  50 TIME =     0.09 SECS, INTEGRAL =      8.58 TIME LEFT: 172791.23
 STEP:  51 TIME =     0.09 SECS, INTEGRAL =      8.67 TIME LEFT: 172791.14
 STEP:  52 TIME =     0.09 SECS, INTEGRAL =      8.77 TIME LEFT: 172791.05
 STEP:  53 TIME =     0.08 SECS, INTEGRAL =      8.84 TIME LEFT: 172790.97
 STEP:  54 TIME =     0.06 SECS, INTEGRAL =      8.91 TIME LEFT: 172790.91
 STEP:  55 TIME =     0.12 SECS, INTEGRAL =      9.03 TIME LEFT: 172790.78
 STEP:  56 TIME =     0.11 SECS, INTEGRAL =      9.14 TIME LEFT: 172790.67
 STEP:  57 TIME =     0.11 SECS, INTEGRAL =      9.25 TIME LEFT: 172790.56
 STEP:  58 TIME =     0.09 SECS, INTEGRAL =      9.34 TIME LEFT: 172790.47
 STEP:  59 TIME =     0.06 SECS, INTEGRAL =      9.41 TIME LEFT: 172790.41
 STEP:  60 TIME =     0.08 SECS, INTEGRAL =      9.48 TIME LEFT: 172790.33
 STEP:  61 TIME =     0.08 SECS, INTEGRAL =      9.56 TIME LEFT: 172790.25
 STEP:  62 TIME =     0.08 SECS, INTEGRAL =      9.64 TIME LEFT: 172790.17
 STEP:  63 TIME =     0.08 SECS, INTEGRAL =      9.72 TIME LEFT: 172790.09
 STEP:  64 TIME =     0.06 SECS, INTEGRAL =      9.78 TIME LEFT: 172790.03
 STEP:  65 TIME =     0.08 SECS, INTEGRAL =      9.86 TIME LEFT: 172789.95
 STEP:  66 TIME =     0.08 SECS, INTEGRAL =      9.94 TIME LEFT: 172789.88
 STEP:  67 TIME =     0.08 SECS, INTEGRAL =     10.02 TIME LEFT: 172789.80
 STEP:  68 TIME =     0.09 SECS, INTEGRAL =     10.11 TIME LEFT: 172789.70
 STEP:  69 TIME =     0.08 SECS, INTEGRAL =     10.19 TIME LEFT: 172789.62
 STEP:  70 TIME =     0.08 SECS, INTEGRAL =     10.27 TIME LEFT: 172789.55
 STEP:  71 TIME =     0.08 SECS, INTEGRAL =     10.34 TIME LEFT: 172789.47
 STEP:  72 TIME =     0.09 SECS, INTEGRAL =     10.44 TIME LEFT: 172789.38
 STEP:  73 TIME =     0.08 SECS, INTEGRAL =     10.52 TIME LEFT: 172789.30
 STEP:  74 TIME =     0.08 SECS, INTEGRAL =     10.59 TIME LEFT: 172789.22
 STEP:  75 TIME =     0.08 SECS, INTEGRAL =     10.67 TIME LEFT: 172789.14
 STEP:  76 TIME =     0.08 SECS, INTEGRAL =     10.75 TIME LEFT: 172789.06
 STEP:  77 TIME =     0.08 SECS, INTEGRAL =     10.83 TIME LEFT: 172788.98
 STEP:  78 TIME =     0.08 SECS, INTEGRAL =     10.91 TIME LEFT: 172788.91
 STEP:  79 TIME =     0.08 SECS, INTEGRAL =     10.98 TIME LEFT: 172788.83
 STEP:  80 TIME =     0.08 SECS, INTEGRAL =     11.06 TIME LEFT: 172788.75
 STEP:  81 TIME =     0.09 SECS, INTEGRAL =     11.16 TIME LEFT: 172788.66
 STEP:  82 TIME =     0.12 SECS, INTEGRAL =     11.28 TIME LEFT: 172788.53
 STEP:  83 TIME =     0.09 SECS, INTEGRAL =     11.38 TIME LEFT: 172788.44
 STEP:  84 TIME =     0.11 SECS, INTEGRAL =     11.48 TIME LEFT: 172788.33
 STEP:  85 TIME =     0.11 SECS, INTEGRAL =     11.59 TIME LEFT: 172788.22
 STEP:  86 TIME =     0.08 SECS, INTEGRAL =     11.67 TIME LEFT: 172788.14
 STEP:  87 TIME =     0.08 SECS, INTEGRAL =     11.75 TIME LEFT: 172788.06
 STEP:  88 TIME =     0.11 SECS, INTEGRAL =     11.86 TIME LEFT: 172787.95
 STEP:  89 TIME =     0.11 SECS, INTEGRAL =     11.97 TIME LEFT: 172787.84
 STEP:  90 TIME =     0.11 SECS, INTEGRAL =     12.08 TIME LEFT: 172787.73
 STEP:  91 TIME =     0.11 SECS, INTEGRAL =     12.19 TIME LEFT: 172787.62
 STEP:  92 TIME =     0.08 SECS, INTEGRAL =     12.27 TIME LEFT: 172787.55
 STEP:  93 TIME =     0.09 SECS, INTEGRAL =     12.36 TIME LEFT: 172787.45
 STEP:  94 TIME =     0.08 SECS, INTEGRAL =     12.44 TIME LEFT: 172787.38
 STEP:  95 TIME =     0.08 SECS, INTEGRAL =     12.52 TIME LEFT: 172787.30
 STEP:  96 TIME =     0.08 SECS, INTEGRAL =     12.59 TIME LEFT: 172787.22
 STEP:  97 TIME =     0.11 SECS, INTEGRAL =     12.70 TIME LEFT: 172787.11
 STEP:  98 TIME =     0.12 SECS, INTEGRAL =     12.83 TIME LEFT: 172786.98
 STEP:  99 TIME =     0.11 SECS, INTEGRAL =     12.94 TIME LEFT: 172786.88
 STEP: 100 TIME =     0.12 SECS, INTEGRAL =     13.06 TIME LEFT: 172786.75
 STEP: 101 TIME =     0.11 SECS, INTEGRAL =     13.17 TIME LEFT: 172786.64
 STEP: 102 TIME =     0.11 SECS, INTEGRAL =     13.28 TIME LEFT: 172786.53

(To convert to Hartree/Bohr^2, multiply by (10^(-21) x N x a0^2)/(4.184 x 627.51) =  0.0642)


           FORCE MATRIX IN MILLIDYNES/ANGSTROM


                  C  1       H  2       N  3       C  4       C  5       C  6
 ------------------------------------------------------------------------------
     C    1   8.948345
     H    2   4.190617   5.103726
     N    3   3.065724   3.082822  11.320210
     C    4   0.153593   0.522348   4.889272  16.269996
     C    5   0.026237   0.041126   0.132799   2.349927  15.280530
     C    6   0.866785   1.925591   4.176881   1.093454   0.035227  15.009064
     C    7   0.527569   0.911724   1.939129   0.126054   0.010850   5.282673
     C    8   0.290468   0.492567   0.555438   0.044267   0.003864   2.185765
     C    9   0.158023   0.266917   0.294457   0.028621   0.002213   1.207198
     C   10   0.125040   0.204258   0.201326   0.021333   0.000851   1.246032
     C   11   0.142270   0.233783   0.224674   0.016750   0.000793   0.375092
     C   12   0.128185   0.212659   0.226836   0.019527   0.000530   0.396102
     C   13   0.152977   0.252125   0.271137   0.028287   0.000698   0.490550
     C   14   0.156048   0.270267   0.306440   0.026802   0.000765   1.202098
     C   15   0.174349   0.308311   1.216161   0.090012   0.005103   4.243433
     C   16   0.030182   0.055829   1.166803   5.359149   1.672765   0.103057
     C   17   0.052954   0.078578   0.147724   2.336080   2.423427   0.034283
     H   18   0.006124   0.010511   0.013693   0.100203   3.471054   0.006836
     C   19   0.047462   0.067246   0.073973   1.692103   6.063567   0.032227
     H   20   0.029788   0.045937   0.050372   0.059476   0.003698   0.755210
     H   21   0.006800   0.013044   0.016894   0.006942   0.000866   0.075678
     H   22   0.017861   0.030798   0.019319   0.007451   0.000466   0.008918
     H   23   0.003907   0.006925   0.005925   0.003506   0.000372   0.008237
     H   24   0.003712   0.006687   0.005342   0.003120   0.000388   0.012226
     H   25   0.011000   0.017775   0.011925   0.005492   0.000528   0.008290
     H   26   0.045636   0.069199   0.068360   0.013321   0.000937   0.046452
     H   27   0.014109   0.021005   0.059290   0.742459   0.015483   0.034548
     H   28   3.647773   0.567558   0.235126   0.021907   0.003298   0.085902
     H   29   0.069841   0.095126   0.078640   0.742412   0.768092   0.032747
     C   30   0.095941   0.089676   1.174454   5.523814   6.137213   0.094887
     H   31   0.011833   0.019692   0.027580   0.017047   0.756139   0.011947
     H   32   0.002291   0.004500   0.012830   0.101535   0.091497   0.005544
     H   33   3.670184   0.494987   0.184546   0.023437   0.004497   0.076615
     H   34   3.661457   0.585821   0.252707   0.021146   0.003781   0.105460


                  C  7       C  8       C  9       C 10       C 11       C 12
 ------------------------------------------------------------------------------
     C    7  14.343735
     C    8   5.316047  14.798823
     C    9   2.281692   6.455175  14.783409
     C   10   0.921894   1.879775   4.798508  16.047260
     C   11   0.243691   0.394357   1.402978   4.874582  15.064565
     C   12   0.188820   0.255020   0.443174   1.989069   6.791950  15.098736
     C   13   0.168527   0.208805   0.317140   1.172129   2.234718   5.229216
     C   14   0.244607   0.212663   0.268679   1.580143   1.397556   2.232434
     C   15   1.404803   0.840259   1.363494   5.348870   1.543406   1.182709
     C   16   0.081049   0.011712   0.009571   0.003911   0.002557   0.003108
     C   17   0.019158   0.008651   0.004868   0.002327   0.002331   0.002514
     H   18   0.003189   0.000847   0.001430   0.000472   0.000585   0.000819
     C   19   0.019224   0.008146   0.005882   0.001851   0.002566   0.002732
     H   20   3.443696   0.749304   0.072834   0.007303   0.009097   0.003384
     H   21   0.747718   3.463087   0.761951   0.104285   0.008253   0.005281
     H   22   0.100088   0.765224   3.473770   0.731853   0.034430   0.005092
     H   23   0.002667   0.005061   0.035404   0.735738   3.470141   0.768643
     H   24   0.002738   0.004971   0.008401   0.109530   0.766677   3.474301
     H   25   0.005718   0.002788   0.010271   0.006007   0.073192   0.738554
     H   26   0.009412   0.003358   0.009020   0.071968   0.011317   0.106982
     H   27   0.016433   0.001680   0.003018   0.001353   0.001151   0.000971
     H   28   0.052307   0.027873   0.012408   0.016519   0.016097   0.013285
     H   29   0.017566   0.008164   0.004249   0.003612   0.003229   0.002965
     C   30   0.029810   0.010008   0.006983   0.002718   0.004327   0.004001
     H   31   0.005301   0.001797   0.002073   0.000403   0.000917   0.001107
     H   32   0.003020   0.000836   0.001188   0.000477   0.000839   0.000537
     H   33   0.047616   0.024949   0.012609   0.011177   0.010751   0.008993
     H   34   0.061436   0.032802   0.016152   0.015037   0.014886   0.012122


                  C 13       C 14       C 15       C 16       C 17       H 18
 ------------------------------------------------------------------------------
     C   13  15.032499
     C   14   6.697069  15.002242
     C   15   2.019785   4.932258  15.809206
     C   16   0.005577   0.004397   0.011654  15.043615
     C   17   0.003949   0.003489   0.006750   6.249050  15.274492
     H   18   0.001170   0.000496   0.001918   0.013259   0.093775   4.380158
     C   19   0.003986   0.002947   0.006079   2.364062   5.967814   0.748648
     H   20   0.005771   0.007906   0.086376   0.027036   0.002602   0.001586
     H   21   0.001591   0.008987   0.005753   0.003508   0.000773   0.000545
     H   22   0.002964   0.008553   0.063789   0.002825   0.000957   0.000851
     H   23   0.107513   0.009134   0.070375   0.001866   0.000654   0.000637
     H   24   0.734369   0.073797   0.008142   0.002138   0.000677   0.000733
     H   25   3.474410   0.765398   0.107971   0.002550   0.000690   0.000753
     H   26   0.760630   3.436956   0.727064   0.004734   0.001188   0.000502
     H   27   0.001214   0.002354   0.003321   3.458336   0.756997   0.011674
     H   28   0.017968   0.021210   0.020236   0.005982   0.005869   0.000904
     H   29   0.003938   0.004200   0.006156   0.082756   0.019217   0.034226
     C   30   0.005912   0.004819   0.019435   2.153490   1.672556   0.755763
     H   31   0.001460   0.000741   0.002475   0.088994   0.755348   0.033075
     H   32   0.000826   0.000560   0.001729   0.755257   3.469506   0.009083
     H   33   0.010723   0.012138   0.016581   0.008018   0.007729   0.001861
     H   34   0.015052   0.016321   0.021141   0.008470   0.007344   0.002231


                  C 19       H 20       H 21       H 22       H 23       H 24
 ------------------------------------------------------------------------------
     C   19  15.148275
     H   20   0.004893   4.357588
     H   21   0.001375   0.028044   4.375022
     H   22   0.001479   0.008185   0.038278   4.383367
     H   23   0.001129   0.000977   0.002929   0.020569   4.383650
     H   24   0.001192   0.001421   0.000954   0.002821   0.040200   4.383164
     H   25   0.001196   0.000593   0.001654   0.000974   0.008418   0.025701
     H   26   0.001382   0.002563   0.001027   0.002749   0.012554   0.008781
     H   27   0.095187   0.018945   0.002113   0.001361   0.000597   0.000707
     H   28   0.005514   0.003801   0.000658   0.002951   0.001036   0.001381
     H   29   0.095228   0.003015   0.000709   0.000762   0.000292   0.000359
     C   30   2.360367   0.009769   0.002778   0.002955   0.001556   0.001611
     H   31   3.482885   0.001684   0.000874   0.001112   0.000790   0.000867
     H   32   0.744272   0.002470   0.001186   0.000909   0.000700   0.000664
     H   33   0.008229   0.006385   0.002006   0.002534   0.000998   0.000758
     H   34   0.007886   0.004687   0.000950   0.002650   0.000831   0.001050


                  H 25       H 26       H 27       H 28       H 29       C 30
 ------------------------------------------------------------------------------
     H   25   4.385363
     H   26   0.040409   4.343312
     H   27   0.000874   0.002579   4.372466
     H   28   0.002763   0.012993   0.002366   4.178647
     H   29   0.000634   0.001848   0.008050   0.008004   4.383177
     C   30   0.002293   0.004296   0.082000   0.008787   3.453190  15.075212
     H   31   0.000843   0.000913   0.007507   0.001757   0.007166   0.091229
     H   32   0.000610   0.000902   0.034877   0.000804   0.011554   0.012222
     H   33   0.001205   0.004789   0.001992   0.454540   0.022206   0.014768
     H   34   0.002609   0.008897   0.002361   0.451090   0.023731   0.013134


                  H 31       H 32       H 33       H 34
 ------------------------------------------------------
     H   31   4.399296
     H   32   0.032150   4.377364
     H   33   0.001833   0.000776   4.201405
     H   34   0.002076   0.000790   0.452417   4.193236


[...]
     190      92.02551     12.79917        104.82467  -0.84700    16   %  0.7263
     199      91.46591     13.36015        104.82606  -0.84561    17   %  0.7679
     207      90.97504     13.85196        104.82700  -0.84468    18   %  0.8054
     215      90.47255     14.35558        104.82813  -0.84355    19   %  0.8451
     223      89.93266     14.89689        104.82954  -0.84213    20   %  0.8900
     230      89.48468     15.34586        104.83054  -0.84114    21   %  0.9291
     238      88.91500     15.91750        104.83250  -0.83918    22   %  0.9807
     244      88.49538     16.33834        104.83372  -0.83795    23   %  1.0199
     250      88.08718     16.74698        104.83416  -0.83752    24   %  1.0588
     256      87.60696     17.23007        104.83703  -0.83465    25   %  1.1057
     262      87.21177     17.62606        104.83784  -0.83384    26   %  1.1452
     267      86.79098     18.04783        104.83881  -0.83287    27   %  1.1883
     272      86.41251     18.42707        104.83958  -0.83210    28   %  1.2280
     276      86.09169     18.74877        104.84046  -0.83122    29   %  1.2625
     280      85.74599     19.09549        104.84148  -0.83020    30   %  1.3006
     285      85.35922     19.48333        104.84255  -0.82913    31   %  1.3445
     289      85.02439     19.81754        104.84193  -0.82975    32   %  1.3837
     293      84.70499     20.13765        104.84264  -0.82904    33   %  1.4222
     297      84.46035     20.38364        104.84399  -0.82769    34   %  1.4525
     301      84.10572     20.73864        104.84437  -0.82731    35   %  1.4980
     305      83.85083     20.99311        104.84394  -0.82774    36   %  1.5320
     309      83.52794     21.31676        104.84470  -0.82698    37   %  1.5772
     314      83.26660     21.57810        104.84469  -0.82698    38   %  1.6161
     317      82.99849     21.84729        104.84578  -0.82590    39   %  1.6590
     321      82.74854     22.09644        104.84498  -0.82670    40   %  1.7021
     326      82.50022     22.34533        104.84555  -0.82613    41   %  1.7478
     330      82.28294     22.56324        104.84619  -0.82549    42   %  1.7898
     334      82.04464     22.80188        104.84653  -0.82515    43   %  1.8378
     337      81.86620     22.97980        104.84600  -0.82568    44   %  1.8752
     341      81.67057     23.17580        104.84637  -0.82531    45   %  1.9175
     346      81.40237     23.44385        104.84621  -0.82547    46   %  1.9778
     350      81.18609     23.65992        104.84601  -0.82567    47   %  2.0285
     354      80.99460     23.85108        104.84567  -0.82601    48   %  2.0750
     357      80.82160     24.02328        104.84488  -0.82680    49   %  2.1185
     361      80.64601     24.19875        104.84475  -0.82693    50   %  2.1641
     365      80.44628     24.39823        104.84451  -0.82717    51   %  2.2179
     371      80.27498     24.56849        104.84346  -0.82821    52   %  2.2658
     375      80.11050     24.73187        104.84238  -0.82930    53   %  2.3134
     379      79.95302     24.88862        104.84164  -0.83004    54   %  2.3606
     385      79.79835     25.04215        104.84050  -0.83118    55   %  2.4086
     388      79.67881     25.16144        104.84025  -0.83143    56   %  2.4469
     392      79.52919     25.31061        104.83980  -0.83188    57   %  2.4965
     396      79.37776     25.46161        104.83937  -0.83231    58   %  2.5485
     400      79.23748     25.60141        104.83890  -0.83278    59   %  2.5987
     403      79.10857     25.72985        104.83841  -0.83326    60   %  2.6465
     407      78.98454     25.85335        104.83789  -0.83379    61   %  2.6941
     410      78.86790     25.96948        104.83737  -0.83430    62   %  2.7406
     414      78.75146     26.08555        104.83701  -0.83466    63   %  2.7887
     418      78.64008     26.19663        104.83671  -0.83497    64   %  2.8365
     422      78.53307     26.30343        104.83650  -0.83518    65   %  2.8842
     425      78.42940     26.40683        104.83624  -0.83544    66   %  2.9322
     429      78.33141     26.50453        104.83594  -0.83573    67   %  2.9792
     432      78.23701     26.59794        104.83495  -0.83673    68   %  3.0262
     437      78.14482     26.68945        104.83427  -0.83741    69   %  3.0739
     441      78.05617     26.77697        104.83314  -0.83854    70   %  3.1216
     445      77.97171     26.86083        104.83254  -0.83914    71   %  3.1688
     449      77.88940     26.94211        104.83151  -0.84017    72   %  3.2166
     452      77.81277     27.01803        104.83080  -0.84088    73   %  3.2630
     457      77.73606     27.09388        104.82994  -0.84174    74   %  3.3111
     460      77.66379     27.16528        104.82907  -0.84261    75   %  3.3584
     464      77.59352     27.23487        104.82839  -0.84328    76   %  3.4062
     468      77.52679     27.30067        104.82746  -0.84422    77   %  3.4534
     471      77.46193     27.36495        104.82688  -0.84480    78   %  3.5012
     475      77.40033     27.42563        104.82595  -0.84573    79   %  3.5482
     478      77.34051     27.48492        104.82542  -0.84625    80   %  3.5960
     482      77.28340     27.54113        104.82453  -0.84714    81   %  3.6431
     485      77.22826     27.59576        104.82402  -0.84765    82   %  3.6906
     488      77.17534     27.64787        104.82321  -0.84847    83   %  3.7377
     492      77.12421     27.69846        104.82267  -0.84900    84   %  3.7852
     494      77.07557     27.74643        104.82200  -0.84967    85   %  3.8319
     498      77.02750     27.79387        104.82137  -0.85031    86   %  3.8799
     500      76.98268     27.83820        104.82088  -0.85079    87   %  3.9262
     504      76.93795     27.88218        104.82013  -0.85155    88   %  3.9739
     506      76.89574     27.92402        104.81976  -0.85192    89   %  4.0208
     509      76.85468     27.96441        104.81910  -0.85258    90   %  4.0675
     512      76.81530     28.00331        104.81860  -0.85308    91   %  4.1141
     514      76.77758     28.04071        104.81829  -0.85339    92   %  4.1604
     519      76.74123     28.07899        104.82022  -0.85146    93   %  4.2070
     522      76.70548     28.11463        104.82011  -0.85157    94   %  4.2537
     524      76.67169     28.14809        104.81978  -0.85190    95   %  4.2985
     525      76.63969     28.18003        104.81972  -0.85196    96   %  4.3430
     528      76.61033     28.20938        104.81971  -0.85197    97   %  4.3846
     534      76.57890     28.25052        104.82943  -0.84225    98   %  4.4301
     538      76.54682     28.28256        104.82938  -0.84230    99   %  4.4785
     540      76.51692     28.30969        104.82662  -0.84506   100   %  4.5209
     541      76.50244     28.34732        104.84976  -0.82192   101   %  4.5658
     552      76.46982     28.38437        104.85420  -0.81748   102   %  4.5995
     555      76.44361     28.41050        104.85411  -0.81757   103   %  4.6426
     556      76.41212     28.43865        104.85077  -0.82091   104   %  4.6899
     557      76.40859     28.44539        104.85397  -0.81770   105   %  4.7009
     558      76.41452     28.48235        104.89688  -0.77480   106   %  4.7590
     568      76.36806     28.57053        104.93859  -0.73309   107   %  4.7734
     572      76.34455     28.59400        104.93855  -0.73313   108   %  4.8156
     573      76.33547     28.60305        104.93852  -0.73316   109   %  4.8322
     574      76.32003     28.61857        104.93860  -0.73308   110   %  4.8609
     583      76.29374     28.71363        105.00737  -0.66431   111   %  4.9112
     588      76.27128     28.73606        105.00735  -0.66433   112   %  4.9545
     590      76.25030     28.75684        105.00714  -0.66454   113   %  4.9955
     591      76.24778     28.75944        105.00722  -0.66445   114   %  5.0006
     593      76.24714     28.80046        105.04760  -0.62408   115   %  5.0507
     607      76.21068     28.84097        105.05165  -0.62003   116   %  5.0758
     610      76.19157     28.85794        105.04951  -0.62217   117   %  5.1166
     619      76.17669     28.89262        105.06930  -0.60237   118   %  5.1473
     624      76.15634     28.91258        105.06892  -0.60275   119   %  5.1907
     625      76.14998     28.91924        105.06922  -0.60246   120   %  5.2053
     636      76.13128     28.96738        105.09866  -0.57302   121   %  5.2467
     641      76.11267     28.98488        105.09755  -0.57413   122   %  5.2896
     651      76.09710     29.01966        105.11676  -0.55491   123   %  5.3246
     655      76.08003     29.03434        105.11438  -0.55730   124   %  5.3636
     666      76.06627     29.06686        105.13313  -0.53855   125   %  5.3972
     670      76.04960     29.08254        105.13214  -0.53953   126   %  5.4360
     672      76.05661     29.10451        105.16112  -0.51056   127   %  5.4686
     685      76.02475     29.14335        105.16810  -0.50358   128   %  5.4986
     687      76.01476     29.15455        105.16930  -0.50238   129   %  5.5265
     699      75.99787     29.18674        105.18461  -0.48707   130   %  5.5666
     702      75.98896     29.19988        105.18884  -0.48284   131   %  5.5994
     715      75.97088     29.23895        105.20983  -0.46185   132   %  5.6369
     717      75.96512     29.24483        105.20994  -0.46174   133   %  5.6528
     731      75.94457     29.30959        105.25417  -0.41751   134   %  5.7072
     733      75.93062     29.31956        105.25018  -0.42150   135   %  5.7419
     747      75.92372     29.36777        105.29149  -0.38018   136   %  5.7648
     751      75.91487     29.37663        105.29150  -0.38018   137   %  5.7898
     763      75.89909     29.41551        105.31460  -0.35707   138   %  5.8342
     765      75.89385     29.42071        105.31456  -0.35711   139   %  5.8495
     780      75.87673     29.46834        105.34507  -0.32661   140   %  5.8991
     782      75.86839     29.47708        105.34546  -0.32621   141   %  5.9256
     796      75.85518     29.52803        105.38321  -0.28847   142   %  5.9632
     798      75.85055     29.53278        105.38333  -0.28835   143   %  5.9779
     813      75.83298     29.58973        105.42271  -0.24897   144   %  6.0293
     815      75.83154     29.59985        105.43139  -0.24029   145   %  6.0588
     829      75.81654     29.64923        105.46577  -0.20591   146   %  6.0826
     842      75.80604     29.67603        105.48207  -0.18960   147   %  6.1160
     846      75.79855     29.68346        105.48202  -0.18966   148   %  6.1403
     859      75.78630     29.72159        105.50789  -0.16379   149   %  6.1800
     871      75.77666     29.75583        105.53249  -0.13919   150   %  6.2120
     876      75.76392     29.76306        105.52698  -0.14469   151   %  6.2449
     888      75.76078     29.80399        105.56478  -0.10690   152   %  6.2660
     893      75.75393     29.81083        105.56476  -0.10692   153   %  6.2899
     906      75.74173     29.84510        105.58683  -0.08484   154   %  6.3320
     908      75.73689     29.85009        105.58697  -0.08470   155   %  6.3509
     924      75.72297     29.93758        105.66054  -0.01113   156   %  6.3964
     937      75.71612     29.96476        105.68088   0.00920   157   %  6.4244
     949      75.70685     29.99335        105.70019   0.02851   158   %  6.4588
     954      75.70017     30.00005        105.70022   0.02855   159   %  6.4847
     968      75.68962     30.05241        105.74203   0.07035   160   %  6.5239
     970      75.68644     30.05566        105.74210   0.07042   161   %  6.5369
     986      75.67195     30.13685        105.80880   0.13712   162   %  6.5899
     988      75.67796     30.14338        105.82134   0.14966   163   %  6.6095
    1003      75.66195     30.19799        105.85994   0.18826   164   %  6.6336
    1015      75.65375     30.23269        105.88645   0.21477   165   %  6.6671
    1028      75.64562     30.25874        105.90436   0.23268   166   %  6.7007
    1040      75.63785     30.28325        105.92109   0.24941   167   %  6.7333
    1047      75.63197     30.28911        105.92108   0.24940   168   %  6.7585
    1061      75.62287     30.32414        105.94701   0.27534   169   %  6.7977
    1074      75.61485     30.35716        105.97201   0.30033   170   %  6.8312
    1087      75.60841     30.38891        105.99732   0.32564   171   %  6.8608
    1100      75.60086     30.41409        106.01495   0.34327   172   %  6.8945
    1111      75.59392     30.44185        106.03578   0.36410   173   %  6.9274
    1120      75.58809     30.44893        106.03702   0.36534   174   %  6.9572
    1134      75.58038     30.47180        106.05218   0.38050   175   %  6.9887
    1149      75.57276     30.50453        106.07729   0.40561   176   %  7.0245
    1151      75.56928     30.50792        106.07720   0.40552   177   %  7.0418
    1168      75.55939     30.58249        106.14188   0.47020   178   %  7.0890
    1170      75.55828     30.58762        106.14589   0.47421   179   %  7.1127
    1188      75.54933     30.63993        106.18925   0.51757   180   %  7.1401
    1203      75.54177     30.66457        106.20633   0.53466   181   %  7.1781
    1217      75.53487     30.69799        106.23286   0.56119   182   %  7.2130
    1230      75.52759     30.72771        106.25530   0.58362   183   %  7.2480
    1246      75.52151     30.76295        106.28446   0.61278   184   %  7.2808
    1260      75.51514     30.78807        106.30322   0.63154   185   %  7.3148
    1275      75.50852     30.81200        106.32053   0.64885   186   %  7.3490
    1290      75.50238     30.83732        106.33970   0.66802   187   %  7.3816
    1304      75.49637     30.86350        106.35987   0.68819   188   %  7.4143
    1319      75.49058     30.88877        106.37935   0.70767   189   %  7.4481
    1332      75.48538     30.90962        106.39500   0.72332   190   %  7.4770
    1349      75.47931     30.94083        106.42014   0.74846   191   %  7.5114
    1363      75.47341     30.97058        106.44399   0.77231   192   %  7.5451
    1379      75.46757     31.01030        106.47787   0.80620   193   %  7.5793
    1395      75.46182     31.03206        106.49389   0.82221   194   %  7.6130
    1399      75.45829     31.03601        106.49431   0.82263   195   %  7.6371
    1424      75.45074     31.09519        106.54593   0.87425   196   %  7.6795
    1440      75.44518     31.12208        106.56726   0.89558   197   %  7.7133
    1455      75.43969     31.16462        106.60431   0.93263   198   %  7.7472
    1460      75.43631     31.16802        106.60432   0.93265   199   %  7.7693
    1484      75.42907     31.25122        106.68029   1.00861   200   %  7.8146
    1500      75.42375     31.29492        106.71867   1.04699   201   %  7.8489
    1506      75.42039     31.29882        106.71922   1.04754   202   %  7.8747
    1531      75.41355     31.35947        106.77302   1.10134   203   %  7.9158
    1547      75.40842     31.39024        106.79867   1.12699   204   %  7.9501
    1562      75.40293     31.41990        106.82284   1.15116   205   %  7.9849
    1577      75.39885     31.44976        106.84861   1.17694   206   %  8.0145
    1594      75.39465     31.47838        106.87304   1.20136   207   %  8.0448
    1609      75.38781     31.49832        106.88612   1.21445   208   %  8.0795
    1624      75.38582     31.57136        106.95717   1.28549   209   %  8.1077
    1642      75.38049     31.60276        106.98325   1.31157   210   %  8.1443
    1658      75.37632     31.63139        107.00770   1.33602   211   %  8.1759
    1674      75.37264     31.66140        107.03404   1.36236   212   %  8.2065
    1699      75.36733     31.70691        107.07424   1.40256   213   %  8.2441
    1716      75.36279     31.73433        107.09712   1.42544   214   %  8.2786
    1721      75.36535     31.73891        107.10425   1.43258   215   %  8.3104
    1749      75.35521     31.82885        107.18406   1.51238   216   %  8.3385
    1768      75.35084     31.86743        107.21827   1.54659   217   %  8.3733
    1785      75.34580     31.90279        107.24858   1.57691   218   %  8.4082
    1800      75.34360     31.92326        107.26685   1.59517   219   %  8.4326
    1826      75.33850     31.97528        107.31378   1.64210   220   %  8.4741
    1842      75.33450     32.01605        107.35055   1.67887   221   %  8.5091
    1866      75.33081     32.05778        107.38859   1.71691   222   %  8.5394
    1886      75.32678     32.08094        107.40771   1.73604   223   %  8.5743
    1903      75.32160     32.12264        107.44424   1.77256   224   %  8.6087
    1919      75.32042     32.14987        107.47029   1.79861   225   %  8.6309
    1948      75.31557     32.20073        107.51630   1.84463   226   %  8.6743
    1966      75.31814     32.23509        107.55323   1.88156   227   %  8.7092
    1992      75.30833     32.28687        107.59520   1.92352   228   %  8.7421
    2009      75.31004     32.31642        107.62646   1.95478   229   %  8.7730
    2035      75.30176     32.36585        107.66761   1.99593   230   %  8.8051
    2051      75.30407     32.39601        107.70007   2.02840   231   %  8.8348
    2078      75.29459     32.44602        107.74060   2.06892   232   %  8.8693
    2094      75.29683     32.48327        107.78010   2.10842   233   %  8.8973
    2122      75.28904     32.53055        107.81959   2.14791   234   %  8.9327
    2142      75.28692     32.59520        107.88212   2.21045   235   %  8.9662
    2172      75.28252     32.64036        107.92288   2.25120   236   %  9.0018
    2188      75.28228     32.65870        107.94097   2.26930   237   %  9.0284
    2205      75.27826     32.68653        107.96480   2.29312   238   %  9.0500
    2238      75.27441     32.76746        108.04187   2.37019   239   %  9.0912
    2267      75.27120     32.82035        108.09155   2.41987   240   %  9.1267
    2283      75.26915     32.83739        108.10654   2.43486   241   %  9.1515
    2326      75.26473     32.93765        108.20238   2.53071   242   %  9.2016
    2344      75.26272     32.95652        108.21924   2.54756   243   %  9.2288
    2386      75.25883     33.03376        108.29259   2.62091   244   %  9.2726
    2416      75.25594     33.09006        108.34600   2.67432   245   %  9.3084
    2448      75.25310     33.13700        108.39010   2.71842   246   %  9.3441
    2479      75.25011     33.19561        108.44572   2.77404   247   %  9.3799
    2496      75.24871     33.21487        108.46358   2.79190   248   %  9.4028
    2540      75.24522     33.30035        108.54557   2.87389   249   %  9.4475
    2580      75.24244     33.35356        108.59600   2.92432   250   %  9.4845
    2613      75.23968     33.39068        108.63036   2.95868   251   %  9.5205
    2644      75.23735     33.43879        108.67614   3.00446   252   %  9.5502
    2677      75.24108     33.51661        108.75769   3.08601   253   %  9.5873
    2706      75.23501     33.57420        108.80921   3.13753   254   %  9.6172
    2749      75.23076     33.63699        108.86776   3.19608   255   %  9.6513
    2780      75.22892     33.67758        108.90650   3.23482   256   %  9.6799


 IRC CALCULATION COMPLETE 

 **********************
 *                    *
 * JOB ENDED NORMALLY *
 *                    *
 **********************



 TOTAL JOB TIME:           201.50 SECONDS

 == MOPAC DONE ==
