 *******************************************************************************
 ** Site#: 37037        For non-commercial use only           Version 21.148W **
 *******************************************************************************
 ** Cite this program as: MOPAC2016, Version: 21.148W, James J. P. Stewart,   **
 ** Stewart Computational Chemistry, web: HTTP://OpenMOPAC.net. Days left: 364**
 *******************************************************************************
 **                                                                           **
 **                                MOPAC2016                                  **
 **                                                                           **
 *******************************************************************************

                              PM7 CALCULATION RESULTS

 *******************************************************************************
 *  CALCULATION DONE:                                Sat May 29 10:52:40 2021  *
 *  PM7        - The PM7 Hamiltonian to be used
 *  RESIDUES   - DETERMINE THE SEQUENCE OF RESIDUES
 *  STEP       - STEP-SIZE IN PATH =   0.020
 *  POINT      - NUMBER OF POINTS IN PATH =100
 *  T=         - A TIME OF 172800.0 SECONDS REQUESTED
 *  DUMP=N     - RESTART FILE WRITTEN EVERY 7200.0 SECONDS REQUESTED
 *  HTML       - WRITE HTML SCRIPT TO GENERATE ANIMATION USING JSMOL
 *             - TO DISPLAY IN PDB FORMAT, ADD "PDBOUT"
 *******************************************************************************
   PM7 step=0.02 points=100 html
 Fluorine
 Morse curve
  ATOM    CHEMICAL      BOND LENGTH      BOND ANGLE     TWIST ANGLE 
 NUMBER    SYMBOL       (ANGSTROMS)      (DEGREES)       (DEGREES) 
   (I)                     NA:I           NB:NA:I       NC:NB:NA:I       NA    NB    NC 
     1       F          0.00000000       0.0000000       0.0000000        0     0     0
     2       F          1.00000000  +    0.0000000       0.0000000        1     0     0
 


          CARTESIAN COORDINATES 

    NO.       ATOM           X           Y           Z

     1         F          0.0000      0.0000      0.0000
     2         F          1.0000      0.0000      0.0000

 General Reference for PM7:
 "Optimization of Parameters for Semiempirical Methods VI: More Modifications to the 
 NDDO Approximations and Re-optimization of Parameters", J. J. P. Stewart, J. Mol. Mod., 1:32, 19 (2013)
 https://link.springer.com/article/10.1007/s00894-012-1667-x

           Empirical Formula: F2  =     2 atoms



      MOLECULAR POINT GROUP   :   D*h 


      RHF CALCULATION, NO. OF DOUBLY OCCUPIED LEVELS = 7

  ABOUT TO ENTER EF FROM PATHK

          Geometry optimization using EF

     GRADIENT =  0.00000 IS LESS THAN CUTOFF =  1.00000



          VARIABLE        FUNCTION
 :         1.00000      384.197252
*REMARK   3 HET = Not identified; F 2                =     2 atoms res:    1
 PM7 step=0.02 points=100 html
 Fluorine
 Morse curve
  F(HETATM    1  F1  HET A   1)   0.00000000 +0    0.0000000 +0    0.0000000 +0
  F(HETATM    2  F2  HET A   1)   1.00000000 -1    0.0000000 +0    0.0000000 +0     1     0     0
 

          Geometry optimization using EF

     GRADIENT =  0.00000 IS LESS THAN CUTOFF =  1.00000



          VARIABLE        FUNCTION
 :         1.02000      326.082101
*REMARK   3 HET = Not identified; F 2                =     2 atoms res:    1
 PM7 step=0.02 points=100 html
 Fluorine
 Morse curve
  F(HETATM    1  F1  HET A   1)   0.00000000 +0    0.0000000 +0    0.0000000 +0
  F(HETATM    2  F2  HET A   1)   1.02000000 -1    0.0000000 +0    0.0000000 +0     1     0     0
 

          Geometry optimization using EF

     GRADIENT =  0.00000 IS LESS THAN CUTOFF =  1.00000



          VARIABLE        FUNCTION
 :         1.04000      275.017955
*REMARK   3 HET = Not identified; F 2                =     2 atoms res:    1
 PM7 step=0.02 points=100 html
 Fluorine
 Morse curve
  F(HETATM    1  F1  HET A   1)   0.00000000 +0    0.0000000 +0    0.0000000 +0
  F(HETATM    2  F2  HET A   1)   1.04000000 -1    0.0000000 +0    0.0000000 +0     1     0     0
 

          Geometry optimization using EF

     GRADIENT =  0.00000 IS LESS THAN CUTOFF =  1.00000



          VARIABLE        FUNCTION
 :         1.06000      230.256038
*REMARK   3 HET = Not identified; F 2                =     2 atoms res:    1
 PM7 step=0.02 points=100 html
 Fluorine
 Morse curve
  F(HETATM    1  F1  HET A   1)   0.00000000 +0    0.0000000 +0    0.0000000 +0
  F(HETATM    2  F2  HET A   1)   1.06000000 -1    0.0000000 +0    0.0000000 +0     1     0     0
 

          Geometry optimization using EF

     GRADIENT =  0.00000 IS LESS THAN CUTOFF =  1.00000



          VARIABLE        FUNCTION
 :         1.08000      191.127082
*REMARK   3 HET = Not identified; F 2                =     2 atoms res:    1
 PM7 step=0.02 points=100 html
 Fluorine
 Morse curve
  F(HETATM    1  F1  HET A   1)   0.00000000 +0    0.0000000 +0    0.0000000 +0
  F(HETATM    2  F2  HET A   1)   1.08000000 -1    0.0000000 +0    0.0000000 +0     1     0     0
 

          Geometry optimization using EF

     GRADIENT =  0.00000 IS LESS THAN CUTOFF =  1.00000



          VARIABLE        FUNCTION
 :         1.10000      157.031379
*REMARK   3 HET = Not identified; F 2                =     2 atoms res:    1
 PM7 step=0.02 points=100 html
 Fluorine
 Morse curve
  F(HETATM    1  F1  HET A   1)   0.00000000 +0    0.0000000 +0    0.0000000 +0
  F(HETATM    2  F2  HET A   1)   1.10000000 -1    0.0000000 +0    0.0000000 +0     1     0     0
 

          Geometry optimization using EF

     GRADIENT =  0.00000 IS LESS THAN CUTOFF =  1.00000



          VARIABLE        FUNCTION
 :         1.12000      127.430550
*REMARK   3 HET = Not identified; F 2                =     2 atoms res:    1
 PM7 step=0.02 points=100 html
 Fluorine
 Morse curve
  F(HETATM    1  F1  HET A   1)   0.00000000 +0    0.0000000 +0    0.0000000 +0
  F(HETATM    2  F2  HET A   1)   1.12000000 -1    0.0000000 +0    0.0000000 +0     1     0     0
 

          Geometry optimization using EF

     GRADIENT =  0.00000 IS LESS THAN CUTOFF =  1.00000



          VARIABLE        FUNCTION
 :         1.14000      101.840630
*REMARK   3 HET = Not identified; F 2                =     2 atoms res:    1
 PM7 step=0.02 points=100 html
 Fluorine
 Morse curve
  F(HETATM    1  F1  HET A   1)   0.00000000 +0    0.0000000 +0    0.0000000 +0
  F(HETATM    2  F2  HET A   1)   1.14000000 -1    0.0000000 +0    0.0000000 +0     1     0     0
 

          Geometry optimization using EF

     GRADIENT =  0.00000 IS LESS THAN CUTOFF =  1.00000



          VARIABLE        FUNCTION
 :         1.16000       79.826186
*REMARK   3 HET = Not identified; F 2                =     2 atoms res:    1
 PM7 step=0.02 points=100 html
 Fluorine
 Morse curve
  F(HETATM    1  F1  HET A   1)   0.00000000 +0    0.0000000 +0    0.0000000 +0
  F(HETATM    2  F2  HET A   1)   1.16000000 -1    0.0000000 +0    0.0000000 +0     1     0     0
 

          Geometry optimization using EF

     GRADIENT =  0.00000 IS LESS THAN CUTOFF =  1.00000



          VARIABLE        FUNCTION
 :         1.18000       60.995241
*REMARK   3 HET = Not identified; F 2                =     2 atoms res:    1
 PM7 step=0.02 points=100 html
 Fluorine
 Morse curve
  F(HETATM    1  F1  HET A   1)   0.00000000 +0    0.0000000 +0    0.0000000 +0
  F(HETATM    2  F2  HET A   1)   1.18000000 -1    0.0000000 +0    0.0000000 +0     1     0     0
 

          Geometry optimization using EF

     GRADIENT =  0.00000 IS LESS THAN CUTOFF =  1.00000



          VARIABLE        FUNCTION
 :         1.20000       44.994855
*REMARK   3 HET = Not identified; F 2                =     2 atoms res:    1
 PM7 step=0.02 points=100 html
 Fluorine
 Morse curve
  F(HETATM    1  F1  HET A   1)   0.00000000 +0    0.0000000 +0    0.0000000 +0
  F(HETATM    2  F2  HET A   1)   1.20000000 -1    0.0000000 +0    0.0000000 +0     1     0     0
 

          Geometry optimization using EF

     GRADIENT =  0.00000 IS LESS THAN CUTOFF =  1.00000



          VARIABLE        FUNCTION
 :         1.22000       31.507248
*REMARK   3 HET = Not identified; F 2                =     2 atoms res:    1
 PM7 step=0.02 points=100 html
 Fluorine
 Morse curve
  F(HETATM    1  F1  HET A   1)   0.00000000 +0    0.0000000 +0    0.0000000 +0
  F(HETATM    2  F2  HET A   1)   1.22000000 -1    0.0000000 +0    0.0000000 +0     1     0     0
 

          Geometry optimization using EF

     GRADIENT =  0.00000 IS LESS THAN CUTOFF =  1.00000



          VARIABLE        FUNCTION
 :         1.24000       20.246361
*REMARK   3 HET = Not identified; F 2                =     2 atoms res:    1
 PM7 step=0.02 points=100 html
 Fluorine
 Morse curve
  F(HETATM    1  F1  HET A   1)   0.00000000 +0    0.0000000 +0    0.0000000 +0
  F(HETATM    2  F2  HET A   1)   1.24000000 -1    0.0000000 +0    0.0000000 +0     1     0     0
 

          Geometry optimization using EF

     GRADIENT =  0.00000 IS LESS THAN CUTOFF =  1.00000



          VARIABLE        FUNCTION
 :         1.26000       10.954802
*REMARK   3 HET = Not identified; F 2                =     2 atoms res:    1
 PM7 step=0.02 points=100 html
 Fluorine
 Morse curve
  F(HETATM    1  F1  HET A   1)   0.00000000 +0    0.0000000 +0    0.0000000 +0
  F(HETATM    2  F2  HET A   1)   1.26000000 -1    0.0000000 +0    0.0000000 +0     1     0     0
 

          Geometry optimization using EF

     GRADIENT =  0.00000 IS LESS THAN CUTOFF =  1.00000



          VARIABLE        FUNCTION
 :         1.28000        3.401103
*REMARK   3 HET = Not identified; F 2                =     2 atoms res:    1
 PM7 step=0.02 points=100 html
 Fluorine
 Morse curve
  F(HETATM    1  F1  HET A   1)   0.00000000 +0    0.0000000 +0    0.0000000 +0
  F(HETATM    2  F2  HET A   1)   1.28000000 -1    0.0000000 +0    0.0000000 +0     1     0     0
 

          Geometry optimization using EF

     GRADIENT =  0.00000 IS LESS THAN CUTOFF =  1.00000



          VARIABLE        FUNCTION
 :         1.30000       -2.622734
*REMARK   3 HET = Not identified; F 2                =     2 atoms res:    1
 PM7 step=0.02 points=100 html
 Fluorine
 Morse curve
  F(HETATM    1  F1  HET A   1)   0.00000000 +0    0.0000000 +0    0.0000000 +0
  F(HETATM    2  F2  HET A   1)   1.30000000 -1    0.0000000 +0    0.0000000 +0     1     0     0
 

          Geometry optimization using EF

     GRADIENT =  0.00000 IS LESS THAN CUTOFF =  1.00000



          VARIABLE        FUNCTION
 :         1.32000       -7.303460
*REMARK   3 HET = Not identified; F 2                =     2 atoms res:    1
 PM7 step=0.02 points=100 html
 Fluorine
 Morse curve
  F(HETATM    1  F1  HET A   1)   0.00000000 +0    0.0000000 +0    0.0000000 +0
  F(HETATM    2  F2  HET A   1)   1.32000000 -1    0.0000000 +0    0.0000000 +0     1     0     0
 

          Geometry optimization using EF

     GRADIENT =  0.00000 IS LESS THAN CUTOFF =  1.00000



          VARIABLE        FUNCTION
 :         1.34000      -10.808578
*REMARK   3 HET = Not identified; F 2                =     2 atoms res:    1
 PM7 step=0.02 points=100 html
 Fluorine
 Morse curve
  F(HETATM    1  F1  HET A   1)   0.00000000 +0    0.0000000 +0    0.0000000 +0
  F(HETATM    2  F2  HET A   1)   1.34000000 -1    0.0000000 +0    0.0000000 +0     1     0     0
 

          Geometry optimization using EF

     GRADIENT =  0.00000 IS LESS THAN CUTOFF =  1.00000



          VARIABLE        FUNCTION
 :         1.36000      -13.288165
*REMARK   3 HET = Not identified; F 2                =     2 atoms res:    1
 PM7 step=0.02 points=100 html
 Fluorine
 Morse curve
  F(HETATM    1  F1  HET A   1)   0.00000000 +0    0.0000000 +0    0.0000000 +0
  F(HETATM    2  F2  HET A   1)   1.36000000 -1    0.0000000 +0    0.0000000 +0     1     0     0
 

          Geometry optimization using EF

     GRADIENT =  0.00000 IS LESS THAN CUTOFF =  1.00000



          VARIABLE        FUNCTION
 :         1.38000      -14.876517
*REMARK   3 HET = Not identified; F 2                =     2 atoms res:    1
 PM7 step=0.02 points=100 html
 Fluorine
 Morse curve
  F(HETATM    1  F1  HET A   1)   0.00000000 +0    0.0000000 +0    0.0000000 +0
  F(HETATM    2  F2  HET A   1)   1.38000000 -1    0.0000000 +0    0.0000000 +0     1     0     0
 

          Geometry optimization using EF

     GRADIENT =  0.00000 IS LESS THAN CUTOFF =  1.00000



          VARIABLE        FUNCTION
 :         1.40000      -15.693644
*REMARK   3 HET = Not identified; F 2                =     2 atoms res:    1
 PM7 step=0.02 points=100 html
 Fluorine
 Morse curve
  F(HETATM    1  F1  HET A   1)   0.00000000 +0    0.0000000 +0    0.0000000 +0
  F(HETATM    2  F2  HET A   1)   1.40000000 -1    0.0000000 +0    0.0000000 +0     1     0     0
 

          Geometry optimization using EF

     GRADIENT =  0.00000 IS LESS THAN CUTOFF =  1.00000



          VARIABLE        FUNCTION
 :         1.42000      -15.846637
*REMARK   3 HET = Not identified; F 2                =     2 atoms res:    1
 PM7 step=0.02 points=100 html
 Fluorine
 Morse curve
  F(HETATM    1  F1  HET A   1)   0.00000000 +0    0.0000000 +0    0.0000000 +0
  F(HETATM    2  F2  HET A   1)   1.42000000 -1    0.0000000 +0    0.0000000 +0     1     0     0
 

          Geometry optimization using EF

     GRADIENT =  0.00000 IS LESS THAN CUTOFF =  1.00000



          VARIABLE        FUNCTION
 :         1.44000      -15.430898
*REMARK   3 HET = Not identified; F 2                =     2 atoms res:    1
 PM7 step=0.02 points=100 html
 Fluorine
 Morse curve
  F(HETATM    1  F1  HET A   1)   0.00000000 +0    0.0000000 +0    0.0000000 +0
  F(HETATM    2  F2  HET A   1)   1.44000000 -1    0.0000000 +0    0.0000000 +0     1     0     0
 

          Geometry optimization using EF

     GRADIENT =  0.00000 IS LESS THAN CUTOFF =  1.00000



          VARIABLE        FUNCTION
 :         1.46000      -14.531275
*REMARK   3 HET = Not identified; F 2                =     2 atoms res:    1
 PM7 step=0.02 points=100 html
 Fluorine
 Morse curve
  F(HETATM    1  F1  HET A   1)   0.00000000 +0    0.0000000 +0    0.0000000 +0
  F(HETATM    2  F2  HET A   1)   1.46000000 -1    0.0000000 +0    0.0000000 +0     1     0     0
 

          Geometry optimization using EF

     GRADIENT =  0.00000 IS LESS THAN CUTOFF =  1.00000



          VARIABLE        FUNCTION
 :         1.48000      -13.223082
*REMARK   3 HET = Not identified; F 2                =     2 atoms res:    1
 PM7 step=0.02 points=100 html
 Fluorine
 Morse curve
  F(HETATM    1  F1  HET A   1)   0.00000000 +0    0.0000000 +0    0.0000000 +0
  F(HETATM    2  F2  HET A   1)   1.48000000 -1    0.0000000 +0    0.0000000 +0     1     0     0
 

          Geometry optimization using EF

     GRADIENT =  0.00000 IS LESS THAN CUTOFF =  1.00000



          VARIABLE        FUNCTION
 :         1.50000      -11.573036
*REMARK   3 HET = Not identified; F 2                =     2 atoms res:    1
 PM7 step=0.02 points=100 html
 Fluorine
 Morse curve
  F(HETATM    1  F1  HET A   1)   0.00000000 +0    0.0000000 +0    0.0000000 +0
  F(HETATM    2  F2  HET A   1)   1.50000000 -1    0.0000000 +0    0.0000000 +0     1     0     0
 

          Geometry optimization using EF

     GRADIENT =  0.00000 IS LESS THAN CUTOFF =  1.00000



          VARIABLE        FUNCTION
 :         1.52000       -9.640104
*REMARK   3 HET = Not identified; F 2                =     2 atoms res:    1
 PM7 step=0.02 points=100 html
 Fluorine
 Morse curve
  F(HETATM    1  F1  HET A   1)   0.00000000 +0    0.0000000 +0    0.0000000 +0
  F(HETATM    2  F2  HET A   1)   1.52000000 -1    0.0000000 +0    0.0000000 +0     1     0     0
 

          Geometry optimization using EF

     GRADIENT =  0.00000 IS LESS THAN CUTOFF =  1.00000



          VARIABLE        FUNCTION
 :         1.54000       -7.476280
*REMARK   3 HET = Not identified; F 2                =     2 atoms res:    1
 PM7 step=0.02 points=100 html
 Fluorine
 Morse curve
  F(HETATM    1  F1  HET A   1)   0.00000000 +0    0.0000000 +0    0.0000000 +0
  F(HETATM    2  F2  HET A   1)   1.54000000 -1    0.0000000 +0    0.0000000 +0     1     0     0
 

          Geometry optimization using EF

     GRADIENT =  0.00000 IS LESS THAN CUTOFF =  1.00000



          VARIABLE        FUNCTION
 :         1.56000       -5.127281
*REMARK   3 HET = Not identified; F 2                =     2 atoms res:    1
 PM7 step=0.02 points=100 html
 Fluorine
 Morse curve
  F(HETATM    1  F1  HET A   1)   0.00000000 +0    0.0000000 +0    0.0000000 +0
  F(HETATM    2  F2  HET A   1)   1.56000000 -1    0.0000000 +0    0.0000000 +0     1     0     0
 

          Geometry optimization using EF

     GRADIENT =  0.00000 IS LESS THAN CUTOFF =  1.00000



          VARIABLE        FUNCTION
 :         1.58000       -2.633195
*REMARK   3 HET = Not identified; F 2                =     2 atoms res:    1
 PM7 step=0.02 points=100 html
 Fluorine
 Morse curve
  F(HETATM    1  F1  HET A   1)   0.00000000 +0    0.0000000 +0    0.0000000 +0
  F(HETATM    2  F2  HET A   1)   1.58000000 -1    0.0000000 +0    0.0000000 +0     1     0     0
 

          Geometry optimization using EF

     GRADIENT =  0.00000 IS LESS THAN CUTOFF =  1.00000



          VARIABLE        FUNCTION
 :         1.60000       -0.029053
*REMARK   3 HET = Not identified; F 2                =     2 atoms res:    1
 PM7 step=0.02 points=100 html
 Fluorine
 Morse curve
  F(HETATM    1  F1  HET A   1)   0.00000000 +0    0.0000000 +0    0.0000000 +0
  F(HETATM    2  F2  HET A   1)   1.60000000 -1    0.0000000 +0    0.0000000 +0     1     0     0
 

          Geometry optimization using EF

     GRADIENT =  0.00000 IS LESS THAN CUTOFF =  1.00000



          VARIABLE        FUNCTION
 :         1.62000        2.654637
*REMARK   3 HET = Not identified; F 2                =     2 atoms res:    1
 PM7 step=0.02 points=100 html
 Fluorine
 Morse curve
  F(HETATM    1  F1  HET A   1)   0.00000000 +0    0.0000000 +0    0.0000000 +0
  F(HETATM    2  F2  HET A   1)   1.62000000 -1    0.0000000 +0    0.0000000 +0     1     0     0
 

          Geometry optimization using EF

     GRADIENT =  0.00000 IS LESS THAN CUTOFF =  1.00000



          VARIABLE        FUNCTION
 :         1.64000        5.391418
*REMARK   3 HET = Not identified; F 2                =     2 atoms res:    1
 PM7 step=0.02 points=100 html
 Fluorine
 Morse curve
  F(HETATM    1  F1  HET A   1)   0.00000000 +0    0.0000000 +0    0.0000000 +0
  F(HETATM    2  F2  HET A   1)   1.64000000 -1    0.0000000 +0    0.0000000 +0     1     0     0
 

          Geometry optimization using EF

     GRADIENT =  0.00000 IS LESS THAN CUTOFF =  1.00000



          VARIABLE        FUNCTION
 :         1.66000        8.158448
*REMARK   3 HET = Not identified; F 2                =     2 atoms res:    1
 PM7 step=0.02 points=100 html
 Fluorine
 Morse curve
  F(HETATM    1  F1  HET A   1)   0.00000000 +0    0.0000000 +0    0.0000000 +0
  F(HETATM    2  F2  HET A   1)   1.66000000 -1    0.0000000 +0    0.0000000 +0     1     0     0
 

          Geometry optimization using EF

     GRADIENT =  0.00000 IS LESS THAN CUTOFF =  1.00000



          VARIABLE        FUNCTION
 :         1.68000       10.936105
*REMARK   3 HET = Not identified; F 2                =     2 atoms res:    1
 PM7 step=0.02 points=100 html
 Fluorine
 Morse curve
  F(HETATM    1  F1  HET A   1)   0.00000000 +0    0.0000000 +0    0.0000000 +0
  F(HETATM    2  F2  HET A   1)   1.68000000 -1    0.0000000 +0    0.0000000 +0     1     0     0
 

          Geometry optimization using EF

     GRADIENT =  0.00000 IS LESS THAN CUTOFF =  1.00000



          VARIABLE        FUNCTION
 :         1.70000       13.707637
*REMARK   3 HET = Not identified; F 2                =     2 atoms res:    1
 PM7 step=0.02 points=100 html
 Fluorine
 Morse curve
  F(HETATM    1  F1  HET A   1)   0.00000000 +0    0.0000000 +0    0.0000000 +0
  F(HETATM    2  F2  HET A   1)   1.70000000 -1    0.0000000 +0    0.0000000 +0     1     0     0
 

          Geometry optimization using EF

     GRADIENT =  0.00000 IS LESS THAN CUTOFF =  1.00000



          VARIABLE        FUNCTION
 :         1.72000       16.458840
*REMARK   3 HET = Not identified; F 2                =     2 atoms res:    1
 PM7 step=0.02 points=100 html
 Fluorine
 Morse curve
  F(HETATM    1  F1  HET A   1)   0.00000000 +0    0.0000000 +0    0.0000000 +0
  F(HETATM    2  F2  HET A   1)   1.72000000 -1    0.0000000 +0    0.0000000 +0     1     0     0
 

          Geometry optimization using EF

     GRADIENT =  0.00000 IS LESS THAN CUTOFF =  1.00000



          VARIABLE        FUNCTION
 :         1.74000       19.177765
*REMARK   3 HET = Not identified; F 2                =     2 atoms res:    1
 PM7 step=0.02 points=100 html
 Fluorine
 Morse curve
  F(HETATM    1  F1  HET A   1)   0.00000000 +0    0.0000000 +0    0.0000000 +0
  F(HETATM    2  F2  HET A   1)   1.74000000 -1    0.0000000 +0    0.0000000 +0     1     0     0
 

          Geometry optimization using EF

     GRADIENT =  0.00000 IS LESS THAN CUTOFF =  1.00000



          VARIABLE        FUNCTION
 :         1.76000       21.854462
*REMARK   3 HET = Not identified; F 2                =     2 atoms res:    1
 PM7 step=0.02 points=100 html
 Fluorine
 Morse curve
  F(HETATM    1  F1  HET A   1)   0.00000000 +0    0.0000000 +0    0.0000000 +0
  F(HETATM    2  F2  HET A   1)   1.76000000 -1    0.0000000 +0    0.0000000 +0     1     0     0
 

          Geometry optimization using EF

     GRADIENT =  0.00000 IS LESS THAN CUTOFF =  1.00000



          VARIABLE        FUNCTION
 :         1.78000       24.480740
*REMARK   3 HET = Not identified; F 2                =     2 atoms res:    1
 PM7 step=0.02 points=100 html
 Fluorine
 Morse curve
  F(HETATM    1  F1  HET A   1)   0.00000000 +0    0.0000000 +0    0.0000000 +0
  F(HETATM    2  F2  HET A   1)   1.78000000 -1    0.0000000 +0    0.0000000 +0     1     0     0
 

          Geometry optimization using EF

     GRADIENT =  0.00000 IS LESS THAN CUTOFF =  1.00000



          VARIABLE        FUNCTION
 :         1.80000       27.049959
*REMARK   3 HET = Not identified; F 2                =     2 atoms res:    1
 PM7 step=0.02 points=100 html
 Fluorine
 Morse curve
  F(HETATM    1  F1  HET A   1)   0.00000000 +0    0.0000000 +0    0.0000000 +0
  F(HETATM    2  F2  HET A   1)   1.80000000 -1    0.0000000 +0    0.0000000 +0     1     0     0
 

          Geometry optimization using EF

     GRADIENT =  0.00000 IS LESS THAN CUTOFF =  1.00000



          VARIABLE        FUNCTION
 :         1.82000       29.556837
*REMARK   3 HET = Not identified; F 2                =     2 atoms res:    1
 PM7 step=0.02 points=100 html
 Fluorine
 Morse curve
  F(HETATM    1  F1  HET A   1)   0.00000000 +0    0.0000000 +0    0.0000000 +0
  F(HETATM    2  F2  HET A   1)   1.82000000 -1    0.0000000 +0    0.0000000 +0     1     0     0
 

          Geometry optimization using EF

     GRADIENT =  0.00000 IS LESS THAN CUTOFF =  1.00000



          VARIABLE        FUNCTION
 :         1.84000       31.997282
*REMARK   3 HET = Not identified; F 2                =     2 atoms res:    1
 PM7 step=0.02 points=100 html
 Fluorine
 Morse curve
  F(HETATM    1  F1  HET A   1)   0.00000000 +0    0.0000000 +0    0.0000000 +0
  F(HETATM    2  F2  HET A   1)   1.84000000 -1    0.0000000 +0    0.0000000 +0     1     0     0
 

          Geometry optimization using EF

     GRADIENT =  0.00000 IS LESS THAN CUTOFF =  1.00000



          VARIABLE        FUNCTION
 :         1.86000       34.368212
*REMARK   3 HET = Not identified; F 2                =     2 atoms res:    1
 PM7 step=0.02 points=100 html
 Fluorine
 Morse curve
  F(HETATM    1  F1  HET A   1)   0.00000000 +0    0.0000000 +0    0.0000000 +0
  F(HETATM    2  F2  HET A   1)   1.86000000 -1    0.0000000 +0    0.0000000 +0     1     0     0
 

          Geometry optimization using EF

     GRADIENT =  0.00000 IS LESS THAN CUTOFF =  1.00000



          VARIABLE        FUNCTION
 :         1.88000       36.667517
*REMARK   3 HET = Not identified; F 2                =     2 atoms res:    1
 PM7 step=0.02 points=100 html
 Fluorine
 Morse curve
  F(HETATM    1  F1  HET A   1)   0.00000000 +0    0.0000000 +0    0.0000000 +0
  F(HETATM    2  F2  HET A   1)   1.88000000 -1    0.0000000 +0    0.0000000 +0     1     0     0
 

          Geometry optimization using EF

     GRADIENT =  0.00000 IS LESS THAN CUTOFF =  1.00000



          VARIABLE        FUNCTION
 :         1.90000       38.893795
*REMARK   3 HET = Not identified; F 2                =     2 atoms res:    1
 PM7 step=0.02 points=100 html
 Fluorine
 Morse curve
  F(HETATM    1  F1  HET A   1)   0.00000000 +0    0.0000000 +0    0.0000000 +0
  F(HETATM    2  F2  HET A   1)   1.90000000 -1    0.0000000 +0    0.0000000 +0     1     0     0
 

          Geometry optimization using EF

     GRADIENT =  0.00000 IS LESS THAN CUTOFF =  1.00000



          VARIABLE        FUNCTION
 :         1.92000       41.046320
*REMARK   3 HET = Not identified; F 2                =     2 atoms res:    1
 PM7 step=0.02 points=100 html
 Fluorine
 Morse curve
  F(HETATM    1  F1  HET A   1)   0.00000000 +0    0.0000000 +0    0.0000000 +0
  F(HETATM    2  F2  HET A   1)   1.92000000 -1    0.0000000 +0    0.0000000 +0     1     0     0
 

          Geometry optimization using EF

     GRADIENT =  0.00000 IS LESS THAN CUTOFF =  1.00000



          VARIABLE        FUNCTION
 :         1.94000       43.124981
*REMARK   3 HET = Not identified; F 2                =     2 atoms res:    1
 PM7 step=0.02 points=100 html
 Fluorine
 Morse curve
  F(HETATM    1  F1  HET A   1)   0.00000000 +0    0.0000000 +0    0.0000000 +0
  F(HETATM    2  F2  HET A   1)   1.94000000 -1    0.0000000 +0    0.0000000 +0     1     0     0
 

          Geometry optimization using EF

     GRADIENT =  0.00000 IS LESS THAN CUTOFF =  1.00000



          VARIABLE        FUNCTION
 :         1.96000       45.130110
*REMARK   3 HET = Not identified; F 2                =     2 atoms res:    1
 PM7 step=0.02 points=100 html
 Fluorine
 Morse curve
  F(HETATM    1  F1  HET A   1)   0.00000000 +0    0.0000000 +0    0.0000000 +0
  F(HETATM    2  F2  HET A   1)   1.96000000 -1    0.0000000 +0    0.0000000 +0     1     0     0
 

          Geometry optimization using EF

     GRADIENT =  0.00000 IS LESS THAN CUTOFF =  1.00000



          VARIABLE        FUNCTION
 :         1.98000       47.062464
*REMARK   3 HET = Not identified; F 2                =     2 atoms res:    1
 PM7 step=0.02 points=100 html
 Fluorine
 Morse curve
  F(HETATM    1  F1  HET A   1)   0.00000000 +0    0.0000000 +0    0.0000000 +0
  F(HETATM    2  F2  HET A   1)   1.98000000 -1    0.0000000 +0    0.0000000 +0     1     0     0
 

          Geometry optimization using EF

     GRADIENT =  0.00000 IS LESS THAN CUTOFF =  1.00000



          VARIABLE        FUNCTION
 :         2.00000       48.923141
*REMARK   3 HET = Not identified; F 2                =     2 atoms res:    1
 PM7 step=0.02 points=100 html
 Fluorine
 Morse curve
  F(HETATM    1  F1  HET A   1)   0.00000000 +0    0.0000000 +0    0.0000000 +0
  F(HETATM    2  F2  HET A   1)   2.00000000 -1    0.0000000 +0    0.0000000 +0     1     0     0
 

          Geometry optimization using EF

     GRADIENT =  0.00000 IS LESS THAN CUTOFF =  1.00000



          VARIABLE        FUNCTION
 :         2.02000       50.713528
*REMARK   3 HET = Not identified; F 2                =     2 atoms res:    1
 PM7 step=0.02 points=100 html
 Fluorine
 Morse curve
  F(HETATM    1  F1  HET A   1)   0.00000000 +0    0.0000000 +0    0.0000000 +0
  F(HETATM    2  F2  HET A   1)   2.02000000 -1    0.0000000 +0    0.0000000 +0     1     0     0
 

          Geometry optimization using EF

     GRADIENT =  0.00000 IS LESS THAN CUTOFF =  1.00000



          VARIABLE        FUNCTION
 :         2.04000       52.435245
*REMARK   3 HET = Not identified; F 2                =     2 atoms res:    1
 PM7 step=0.02 points=100 html
 Fluorine
 Morse curve
  F(HETATM    1  F1  HET A   1)   0.00000000 +0    0.0000000 +0    0.0000000 +0
  F(HETATM    2  F2  HET A   1)   2.04000000 -1    0.0000000 +0    0.0000000 +0     1     0     0
 

          Geometry optimization using EF

     GRADIENT =  0.00000 IS LESS THAN CUTOFF =  1.00000



          VARIABLE        FUNCTION
 :         2.06000       54.090046
*REMARK   3 HET = Not identified; F 2                =     2 atoms res:    1
 PM7 step=0.02 points=100 html
 Fluorine
 Morse curve
  F(HETATM    1  F1  HET A   1)   0.00000000 +0    0.0000000 +0    0.0000000 +0
  F(HETATM    2  F2  HET A   1)   2.06000000 -1    0.0000000 +0    0.0000000 +0     1     0     0
 

          Geometry optimization using EF

     GRADIENT =  0.00000 IS LESS THAN CUTOFF =  1.00000



          VARIABLE        FUNCTION
 :         2.08000       55.679896
*REMARK   3 HET = Not identified; F 2                =     2 atoms res:    1
 PM7 step=0.02 points=100 html
 Fluorine
 Morse curve
  F(HETATM    1  F1  HET A   1)   0.00000000 +0    0.0000000 +0    0.0000000 +0
  F(HETATM    2  F2  HET A   1)   2.08000000 -1    0.0000000 +0    0.0000000 +0     1     0     0
 

          Geometry optimization using EF

     GRADIENT =  0.00000 IS LESS THAN CUTOFF =  1.00000



          VARIABLE        FUNCTION
 :         2.10000       57.206844
*REMARK   3 HET = Not identified; F 2                =     2 atoms res:    1
 PM7 step=0.02 points=100 html
 Fluorine
 Morse curve
  F(HETATM    1  F1  HET A   1)   0.00000000 +0    0.0000000 +0    0.0000000 +0
  F(HETATM    2  F2  HET A   1)   2.10000000 -1    0.0000000 +0    0.0000000 +0     1     0     0
 

          Geometry optimization using EF

     GRADIENT =  0.00000 IS LESS THAN CUTOFF =  1.00000



          VARIABLE        FUNCTION
 :         2.12000       58.673016
*REMARK   3 HET = Not identified; F 2                =     2 atoms res:    1
 PM7 step=0.02 points=100 html
 Fluorine
 Morse curve
  F(HETATM    1  F1  HET A   1)   0.00000000 +0    0.0000000 +0    0.0000000 +0
  F(HETATM    2  F2  HET A   1)   2.12000000 -1    0.0000000 +0    0.0000000 +0     1     0     0
 

          Geometry optimization using EF

     GRADIENT =  0.00000 IS LESS THAN CUTOFF =  1.00000



          VARIABLE        FUNCTION
 :         2.14000       60.080595
*REMARK   3 HET = Not identified; F 2                =     2 atoms res:    1
 PM7 step=0.02 points=100 html
 Fluorine
 Morse curve
  F(HETATM    1  F1  HET A   1)   0.00000000 +0    0.0000000 +0    0.0000000 +0
  F(HETATM    2  F2  HET A   1)   2.14000000 -1    0.0000000 +0    0.0000000 +0     1     0     0
 

          Geometry optimization using EF

     GRADIENT =  0.00000 IS LESS THAN CUTOFF =  1.00000



          VARIABLE        FUNCTION
 :         2.16000       61.431790
*REMARK   3 HET = Not identified; F 2                =     2 atoms res:    1
 PM7 step=0.02 points=100 html
 Fluorine
 Morse curve
  F(HETATM    1  F1  HET A   1)   0.00000000 +0    0.0000000 +0    0.0000000 +0
  F(HETATM    2  F2  HET A   1)   2.16000000 -1    0.0000000 +0    0.0000000 +0     1     0     0
 

          Geometry optimization using EF

     GRADIENT =  0.00000 IS LESS THAN CUTOFF =  1.00000



          VARIABLE        FUNCTION
 :         2.18000       62.728824
*REMARK   3 HET = Not identified; F 2                =     2 atoms res:    1
 PM7 step=0.02 points=100 html
 Fluorine
 Morse curve
  F(HETATM    1  F1  HET A   1)   0.00000000 +0    0.0000000 +0    0.0000000 +0
  F(HETATM    2  F2  HET A   1)   2.18000000 -1    0.0000000 +0    0.0000000 +0     1     0     0
 

          Geometry optimization using EF

     GRADIENT =  0.00000 IS LESS THAN CUTOFF =  1.00000



          VARIABLE        FUNCTION
 :         2.20000       63.973911
*REMARK   3 HET = Not identified; F 2                =     2 atoms res:    1
 PM7 step=0.02 points=100 html
 Fluorine
 Morse curve
  F(HETATM    1  F1  HET A   1)   0.00000000 +0    0.0000000 +0    0.0000000 +0
  F(HETATM    2  F2  HET A   1)   2.20000000 -1    0.0000000 +0    0.0000000 +0     1     0     0
 

          Geometry optimization using EF

     GRADIENT =  0.00000 IS LESS THAN CUTOFF =  1.00000



          VARIABLE        FUNCTION
 :         2.22000       65.169248
*REMARK   3 HET = Not identified; F 2                =     2 atoms res:    1
 PM7 step=0.02 points=100 html
 Fluorine
 Morse curve
  F(HETATM    1  F1  HET A   1)   0.00000000 +0    0.0000000 +0    0.0000000 +0
  F(HETATM    2  F2  HET A   1)   2.22000000 -1    0.0000000 +0    0.0000000 +0     1     0     0
 

          Geometry optimization using EF

     GRADIENT =  0.00000 IS LESS THAN CUTOFF =  1.00000



          VARIABLE        FUNCTION
 :         2.24000       66.317000
*REMARK   3 HET = Not identified; F 2                =     2 atoms res:    1
 PM7 step=0.02 points=100 html
 Fluorine
 Morse curve
  F(HETATM    1  F1  HET A   1)   0.00000000 +0    0.0000000 +0    0.0000000 +0
  F(HETATM    2  F2  HET A   1)   2.24000000 -1    0.0000000 +0    0.0000000 +0     1     0     0
 

          Geometry optimization using EF

     GRADIENT =  0.00000 IS LESS THAN CUTOFF =  1.00000



          VARIABLE        FUNCTION
 :         2.26000       67.419291
*REMARK   3 HET = Not identified; F 2                =     2 atoms res:    1
 PM7 step=0.02 points=100 html
 Fluorine
 Morse curve
  F(HETATM    1  F1  HET A   1)   0.00000000 +0    0.0000000 +0    0.0000000 +0
  F(HETATM    2  F2  HET A   1)   2.26000000 -1    0.0000000 +0    0.0000000 +0     1     0     0
 

          Geometry optimization using EF

     GRADIENT =  0.00000 IS LESS THAN CUTOFF =  1.00000



          VARIABLE        FUNCTION
 :         2.28000       68.478197
*REMARK   3 HET = Not identified; F 2                =     2 atoms res:    1
 PM7 step=0.02 points=100 html
 Fluorine
 Morse curve
  F(HETATM    1  F1  HET A   1)   0.00000000 +0    0.0000000 +0    0.0000000 +0
  F(HETATM    2  F2  HET A   1)   2.28000000 -1    0.0000000 +0    0.0000000 +0     1     0     0
 

          Geometry optimization using EF

     GRADIENT =  0.00000 IS LESS THAN CUTOFF =  1.00000



          VARIABLE        FUNCTION
 :         2.30000       69.495739
*REMARK   3 HET = Not identified; F 2                =     2 atoms res:    1
 PM7 step=0.02 points=100 html
 Fluorine
 Morse curve
  F(HETATM    1  F1  HET A   1)   0.00000000 +0    0.0000000 +0    0.0000000 +0
  F(HETATM    2  F2  HET A   1)   2.30000000 -1    0.0000000 +0    0.0000000 +0     1     0     0
 

          Geometry optimization using EF

     GRADIENT =  0.00000 IS LESS THAN CUTOFF =  1.00000



          VARIABLE        FUNCTION
 :         2.32000       70.473878
*REMARK   3 HET = Not identified; F 2                =     2 atoms res:    1
 PM7 step=0.02 points=100 html
 Fluorine
 Morse curve
  F(HETATM    1  F1  HET A   1)   0.00000000 +0    0.0000000 +0    0.0000000 +0
  F(HETATM    2  F2  HET A   1)   2.32000000 -1    0.0000000 +0    0.0000000 +0     1     0     0
 

          Geometry optimization using EF

     GRADIENT =  0.00000 IS LESS THAN CUTOFF =  1.00000



          VARIABLE        FUNCTION
 :         2.34000       71.414510
*REMARK   3 HET = Not identified; F 2                =     2 atoms res:    1
 PM7 step=0.02 points=100 html
 Fluorine
 Morse curve
  F(HETATM    1  F1  HET A   1)   0.00000000 +0    0.0000000 +0    0.0000000 +0
  F(HETATM    2  F2  HET A   1)   2.34000000 -1    0.0000000 +0    0.0000000 +0     1     0     0
 

          Geometry optimization using EF

     GRADIENT =  0.00000 IS LESS THAN CUTOFF =  1.00000



          VARIABLE        FUNCTION
 :         2.36000       72.319467
*REMARK   3 HET = Not identified; F 2                =     2 atoms res:    1
 PM7 step=0.02 points=100 html
 Fluorine
 Morse curve
  F(HETATM    1  F1  HET A   1)   0.00000000 +0    0.0000000 +0    0.0000000 +0
  F(HETATM    2  F2  HET A   1)   2.36000000 -1    0.0000000 +0    0.0000000 +0     1     0     0
 

          Geometry optimization using EF

     GRADIENT =  0.00000 IS LESS THAN CUTOFF =  1.00000



          VARIABLE        FUNCTION
 :         2.38000       73.190510
*REMARK   3 HET = Not identified; F 2                =     2 atoms res:    1
 PM7 step=0.02 points=100 html
 Fluorine
 Morse curve
  F(HETATM    1  F1  HET A   1)   0.00000000 +0    0.0000000 +0    0.0000000 +0
  F(HETATM    2  F2  HET A   1)   2.38000000 -1    0.0000000 +0    0.0000000 +0     1     0     0
 

          Geometry optimization using EF

     GRADIENT =  0.00000 IS LESS THAN CUTOFF =  1.00000



          VARIABLE        FUNCTION
 :         2.40000       74.029333
*REMARK   3 HET = Not identified; F 2                =     2 atoms res:    1
 PM7 step=0.02 points=100 html
 Fluorine
 Morse curve
  F(HETATM    1  F1  HET A   1)   0.00000000 +0    0.0000000 +0    0.0000000 +0
  F(HETATM    2  F2  HET A   1)   2.40000000 -1    0.0000000 +0    0.0000000 +0     1     0     0
 

          Geometry optimization using EF

     GRADIENT =  0.00000 IS LESS THAN CUTOFF =  1.00000



          VARIABLE        FUNCTION
 :         2.42000       74.837560
*REMARK   3 HET = Not identified; F 2                =     2 atoms res:    1
 PM7 step=0.02 points=100 html
 Fluorine
 Morse curve
  F(HETATM    1  F1  HET A   1)   0.00000000 +0    0.0000000 +0    0.0000000 +0
  F(HETATM    2  F2  HET A   1)   2.42000000 -1    0.0000000 +0    0.0000000 +0     1     0     0
 

          Geometry optimization using EF

     GRADIENT =  0.00000 IS LESS THAN CUTOFF =  1.00000



          VARIABLE        FUNCTION
 :         2.44000       75.616742
*REMARK   3 HET = Not identified; F 2                =     2 atoms res:    1
 PM7 step=0.02 points=100 html
 Fluorine
 Morse curve
  F(HETATM    1  F1  HET A   1)   0.00000000 +0    0.0000000 +0    0.0000000 +0
  F(HETATM    2  F2  HET A   1)   2.44000000 -1    0.0000000 +0    0.0000000 +0     1     0     0
 

          Geometry optimization using EF

     GRADIENT =  0.00000 IS LESS THAN CUTOFF =  1.00000



          VARIABLE        FUNCTION
 :         2.46000       76.368364
*REMARK   3 HET = Not identified; F 2                =     2 atoms res:    1
 PM7 step=0.02 points=100 html
 Fluorine
 Morse curve
  F(HETATM    1  F1  HET A   1)   0.00000000 +0    0.0000000 +0    0.0000000 +0
  F(HETATM    2  F2  HET A   1)   2.46000000 -1    0.0000000 +0    0.0000000 +0     1     0     0
 

          Geometry optimization using EF

     GRADIENT =  0.00000 IS LESS THAN CUTOFF =  1.00000



          VARIABLE        FUNCTION
 :         2.48000       77.093842
*REMARK   3 HET = Not identified; F 2                =     2 atoms res:    1
 PM7 step=0.02 points=100 html
 Fluorine
 Morse curve
  F(HETATM    1  F1  HET A   1)   0.00000000 +0    0.0000000 +0    0.0000000 +0
  F(HETATM    2  F2  HET A   1)   2.48000000 -1    0.0000000 +0    0.0000000 +0     1     0     0
 

          Geometry optimization using EF

     GRADIENT =  0.00000 IS LESS THAN CUTOFF =  1.00000



          VARIABLE        FUNCTION
 :         2.50000       77.794523
*REMARK   3 HET = Not identified; F 2                =     2 atoms res:    1
 PM7 step=0.02 points=100 html
 Fluorine
 Morse curve
  F(HETATM    1  F1  HET A   1)   0.00000000 +0    0.0000000 +0    0.0000000 +0
  F(HETATM    2  F2  HET A   1)   2.50000000 -1    0.0000000 +0    0.0000000 +0     1     0     0
 

          Geometry optimization using EF

     GRADIENT =  0.00000 IS LESS THAN CUTOFF =  1.00000



          VARIABLE        FUNCTION
 :         2.52000       78.471691
*REMARK   3 HET = Not identified; F 2                =     2 atoms res:    1
 PM7 step=0.02 points=100 html
 Fluorine
 Morse curve
  F(HETATM    1  F1  HET A   1)   0.00000000 +0    0.0000000 +0    0.0000000 +0
  F(HETATM    2  F2  HET A   1)   2.52000000 -1    0.0000000 +0    0.0000000 +0     1     0     0
 

          Geometry optimization using EF

     GRADIENT =  0.00000 IS LESS THAN CUTOFF =  1.00000



          VARIABLE        FUNCTION
 :         2.54000       79.126565
*REMARK   3 HET = Not identified; F 2                =     2 atoms res:    1
 PM7 step=0.02 points=100 html
 Fluorine
 Morse curve
  F(HETATM    1  F1  HET A   1)   0.00000000 +0    0.0000000 +0    0.0000000 +0
  F(HETATM    2  F2  HET A   1)   2.54000000 -1    0.0000000 +0    0.0000000 +0     1     0     0
 

          Geometry optimization using EF

     GRADIENT =  0.00000 IS LESS THAN CUTOFF =  1.00000



          VARIABLE        FUNCTION
 :         2.56000       79.760301
*REMARK   3 HET = Not identified; F 2                =     2 atoms res:    1
 PM7 step=0.02 points=100 html
 Fluorine
 Morse curve
  F(HETATM    1  F1  HET A   1)   0.00000000 +0    0.0000000 +0    0.0000000 +0
  F(HETATM    2  F2  HET A   1)   2.56000000 -1    0.0000000 +0    0.0000000 +0     1     0     0
 

          Geometry optimization using EF

     GRADIENT =  0.00000 IS LESS THAN CUTOFF =  1.00000



          VARIABLE        FUNCTION
 :         2.58000       80.373997
*REMARK   3 HET = Not identified; F 2                =     2 atoms res:    1
 PM7 step=0.02 points=100 html
 Fluorine
 Morse curve
  F(HETATM    1  F1  HET A   1)   0.00000000 +0    0.0000000 +0    0.0000000 +0
  F(HETATM    2  F2  HET A   1)   2.58000000 -1    0.0000000 +0    0.0000000 +0     1     0     0
 

          Geometry optimization using EF

     GRADIENT =  0.00000 IS LESS THAN CUTOFF =  1.00000



          VARIABLE        FUNCTION
 :         2.60000       80.968692
*REMARK   3 HET = Not identified; F 2                =     2 atoms res:    1
 PM7 step=0.02 points=100 html
 Fluorine
 Morse curve
  F(HETATM    1  F1  HET A   1)   0.00000000 +0    0.0000000 +0    0.0000000 +0
  F(HETATM    2  F2  HET A   1)   2.60000000 -1    0.0000000 +0    0.0000000 +0     1     0     0
 

          Geometry optimization using EF

     GRADIENT =  0.00000 IS LESS THAN CUTOFF =  1.00000



          VARIABLE        FUNCTION
 :         2.62000       81.545369
*REMARK   3 HET = Not identified; F 2                =     2 atoms res:    1
 PM7 step=0.02 points=100 html
 Fluorine
 Morse curve
  F(HETATM    1  F1  HET A   1)   0.00000000 +0    0.0000000 +0    0.0000000 +0
  F(HETATM    2  F2  HET A   1)   2.62000000 -1    0.0000000 +0    0.0000000 +0     1     0     0
 

          Geometry optimization using EF

     GRADIENT =  0.00000 IS LESS THAN CUTOFF =  1.00000



          VARIABLE        FUNCTION
 :         2.64000       82.104959
*REMARK   3 HET = Not identified; F 2                =     2 atoms res:    1
 PM7 step=0.02 points=100 html
 Fluorine
 Morse curve
  F(HETATM    1  F1  HET A   1)   0.00000000 +0    0.0000000 +0    0.0000000 +0
  F(HETATM    2  F2  HET A   1)   2.64000000 -1    0.0000000 +0    0.0000000 +0     1     0     0
 

          Geometry optimization using EF

     GRADIENT =  0.00000 IS LESS THAN CUTOFF =  1.00000



          VARIABLE        FUNCTION
 :         2.66000       82.648341
*REMARK   3 HET = Not identified; F 2                =     2 atoms res:    1
 PM7 step=0.02 points=100 html
 Fluorine
 Morse curve
  F(HETATM    1  F1  HET A   1)   0.00000000 +0    0.0000000 +0    0.0000000 +0
  F(HETATM    2  F2  HET A   1)   2.66000000 -1    0.0000000 +0    0.0000000 +0     1     0     0
 

          Geometry optimization using EF

     GRADIENT =  0.00000 IS LESS THAN CUTOFF =  1.00000



          VARIABLE        FUNCTION
 :         2.68000       83.176344
*REMARK   3 HET = Not identified; F 2                =     2 atoms res:    1
 PM7 step=0.02 points=100 html
 Fluorine
 Morse curve
  F(HETATM    1  F1  HET A   1)   0.00000000 +0    0.0000000 +0    0.0000000 +0
  F(HETATM    2  F2  HET A   1)   2.68000000 -1    0.0000000 +0    0.0000000 +0     1     0     0
 

          Geometry optimization using EF

     GRADIENT =  0.00000 IS LESS THAN CUTOFF =  1.00000



          VARIABLE        FUNCTION
 :         2.70000       83.689753
*REMARK   3 HET = Not identified; F 2                =     2 atoms res:    1
 PM7 step=0.02 points=100 html
 Fluorine
 Morse curve
  F(HETATM    1  F1  HET A   1)   0.00000000 +0    0.0000000 +0    0.0000000 +0
  F(HETATM    2  F2  HET A   1)   2.70000000 -1    0.0000000 +0    0.0000000 +0     1     0     0
 

          Geometry optimization using EF

     GRADIENT =  0.00000 IS LESS THAN CUTOFF =  1.00000



          VARIABLE        FUNCTION
 :         2.72000       84.189306
*REMARK   3 HET = Not identified; F 2                =     2 atoms res:    1
 PM7 step=0.02 points=100 html
 Fluorine
 Morse curve
  F(HETATM    1  F1  HET A   1)   0.00000000 +0    0.0000000 +0    0.0000000 +0
  F(HETATM    2  F2  HET A   1)   2.72000000 -1    0.0000000 +0    0.0000000 +0     1     0     0
 

          Geometry optimization using EF

     GRADIENT =  0.00000 IS LESS THAN CUTOFF =  1.00000



          VARIABLE        FUNCTION
 :         2.74000       84.675701
*REMARK   3 HET = Not identified; F 2                =     2 atoms res:    1
 PM7 step=0.02 points=100 html
 Fluorine
 Morse curve
  F(HETATM    1  F1  HET A   1)   0.00000000 +0    0.0000000 +0    0.0000000 +0
  F(HETATM    2  F2  HET A   1)   2.74000000 -1    0.0000000 +0    0.0000000 +0     1     0     0
 

          Geometry optimization using EF

     GRADIENT =  0.00000 IS LESS THAN CUTOFF =  1.00000



          VARIABLE        FUNCTION
 :         2.76000       85.149593
*REMARK   3 HET = Not identified; F 2                =     2 atoms res:    1
 PM7 step=0.02 points=100 html
 Fluorine
 Morse curve
  F(HETATM    1  F1  HET A   1)   0.00000000 +0    0.0000000 +0    0.0000000 +0
  F(HETATM    2  F2  HET A   1)   2.76000000 -1    0.0000000 +0    0.0000000 +0     1     0     0
 

          Geometry optimization using EF

     GRADIENT =  0.00000 IS LESS THAN CUTOFF =  1.00000



          VARIABLE        FUNCTION
 :         2.78000       85.611602
*REMARK   3 HET = Not identified; F 2                =     2 atoms res:    1
 PM7 step=0.02 points=100 html
 Fluorine
 Morse curve
  F(HETATM    1  F1  HET A   1)   0.00000000 +0    0.0000000 +0    0.0000000 +0
  F(HETATM    2  F2  HET A   1)   2.78000000 -1    0.0000000 +0    0.0000000 +0     1     0     0
 

          Geometry optimization using EF

     GRADIENT =  0.00000 IS LESS THAN CUTOFF =  1.00000



          VARIABLE        FUNCTION
 :         2.80000       86.062309
*REMARK   3 HET = Not identified; F 2                =     2 atoms res:    1
 PM7 step=0.02 points=100 html
 Fluorine
 Morse curve
  F(HETATM    1  F1  HET A   1)   0.00000000 +0    0.0000000 +0    0.0000000 +0
  F(HETATM    2  F2  HET A   1)   2.80000000 -1    0.0000000 +0    0.0000000 +0     1     0     0
 

          Geometry optimization using EF

     GRADIENT =  0.00000 IS LESS THAN CUTOFF =  1.00000



          VARIABLE        FUNCTION
 :         2.82000       86.502263
*REMARK   3 HET = Not identified; F 2                =     2 atoms res:    1
 PM7 step=0.02 points=100 html
 Fluorine
 Morse curve
  F(HETATM    1  F1  HET A   1)   0.00000000 +0    0.0000000 +0    0.0000000 +0
  F(HETATM    2  F2  HET A   1)   2.82000000 -1    0.0000000 +0    0.0000000 +0     1     0     0
 

          Geometry optimization using EF

     GRADIENT =  0.00000 IS LESS THAN CUTOFF =  1.00000



          VARIABLE        FUNCTION
 :         2.84000       86.931980
*REMARK   3 HET = Not identified; F 2                =     2 atoms res:    1
 PM7 step=0.02 points=100 html
 Fluorine
 Morse curve
  F(HETATM    1  F1  HET A   1)   0.00000000 +0    0.0000000 +0    0.0000000 +0
  F(HETATM    2  F2  HET A   1)   2.84000000 -1    0.0000000 +0    0.0000000 +0     1     0     0
 

          Geometry optimization using EF

     GRADIENT =  0.00000 IS LESS THAN CUTOFF =  1.00000



          VARIABLE        FUNCTION
 :         2.86000       87.351944
*REMARK   3 HET = Not identified; F 2                =     2 atoms res:    1
 PM7 step=0.02 points=100 html
 Fluorine
 Morse curve
  F(HETATM    1  F1  HET A   1)   0.00000000 +0    0.0000000 +0    0.0000000 +0
  F(HETATM    2  F2  HET A   1)   2.86000000 -1    0.0000000 +0    0.0000000 +0     1     0     0
 

          Geometry optimization using EF

     GRADIENT =  0.00000 IS LESS THAN CUTOFF =  1.00000



          VARIABLE        FUNCTION
 :         2.88000       87.762613
*REMARK   3 HET = Not identified; F 2                =     2 atoms res:    1
 PM7 step=0.02 points=100 html
 Fluorine
 Morse curve
  F(HETATM    1  F1  HET A   1)   0.00000000 +0    0.0000000 +0    0.0000000 +0
  F(HETATM    2  F2  HET A   1)   2.88000000 -1    0.0000000 +0    0.0000000 +0     1     0     0
 

          Geometry optimization using EF

     GRADIENT =  0.00000 IS LESS THAN CUTOFF =  1.00000



          VARIABLE        FUNCTION
 :         2.90000       88.164415
*REMARK   3 HET = Not identified; F 2                =     2 atoms res:    1
 PM7 step=0.02 points=100 html
 Fluorine
 Morse curve
  F(HETATM    1  F1  HET A   1)   0.00000000 +0    0.0000000 +0    0.0000000 +0
  F(HETATM    2  F2  HET A   1)   2.90000000 -1    0.0000000 +0    0.0000000 +0     1     0     0
 

          Geometry optimization using EF

     GRADIENT =  0.00000 IS LESS THAN CUTOFF =  1.00000



          VARIABLE        FUNCTION
 :         2.92000       88.557756
*REMARK   3 HET = Not identified; F 2                =     2 atoms res:    1
 PM7 step=0.02 points=100 html
 Fluorine
 Morse curve
  F(HETATM    1  F1  HET A   1)   0.00000000 +0    0.0000000 +0    0.0000000 +0
  F(HETATM    2  F2  HET A   1)   2.92000000 -1    0.0000000 +0    0.0000000 +0     1     0     0
 

          Geometry optimization using EF

     GRADIENT =  0.00000 IS LESS THAN CUTOFF =  1.00000



          VARIABLE        FUNCTION
 :         2.94000       88.943013
*REMARK   3 HET = Not identified; F 2                =     2 atoms res:    1
 PM7 step=0.02 points=100 html
 Fluorine
 Morse curve
  F(HETATM    1  F1  HET A   1)   0.00000000 +0    0.0000000 +0    0.0000000 +0
  F(HETATM    2  F2  HET A   1)   2.94000000 -1    0.0000000 +0    0.0000000 +0     1     0     0
 

          Geometry optimization using EF

     GRADIENT =  0.00000 IS LESS THAN CUTOFF =  1.00000



          VARIABLE        FUNCTION
 :         2.96000       89.320545
*REMARK   3 HET = Not identified; F 2                =     2 atoms res:    1
 PM7 step=0.02 points=100 html
 Fluorine
 Morse curve
  F(HETATM    1  F1  HET A   1)   0.00000000 +0    0.0000000 +0    0.0000000 +0
  F(HETATM    2  F2  HET A   1)   2.96000000 -1    0.0000000 +0    0.0000000 +0     1     0     0
 

          Geometry optimization using EF

     GRADIENT =  0.00000 IS LESS THAN CUTOFF =  1.00000



          VARIABLE        FUNCTION
 :         2.98000       89.690687
*REMARK   3 HET = Not identified; F 2                =     2 atoms res:    1
 PM7 step=0.02 points=100 html
 Fluorine
 Morse curve
  F(HETATM    1  F1  HET A   1)   0.00000000 +0    0.0000000 +0    0.0000000 +0
  F(HETATM    2  F2  HET A   1)   2.98000000 -1    0.0000000 +0    0.0000000 +0     1     0     0
 

                POINTS ON REACTION PATH 
                AND CORRESPONDING HEATS


       1.00000000       1.02000000       1.04000000       1.06000000       1.08000000       1.10000000       1.12000000       1.14000000
     384.19725155     326.08210083     275.01795507     230.25603781     191.12708191     157.03137905     127.43054957     101.84062990
       1.16000000       1.18000000       1.20000000       1.22000000       1.24000000       1.26000000       1.28000000       1.30000000
      79.82618607      60.99524062      44.99485486      31.50724780      20.24636138      10.95480198       3.40110311      -2.62273433
       1.32000000       1.34000000       1.36000000       1.38000000       1.40000000       1.42000000       1.44000000       1.46000000
      -7.30345982     -10.80857810     -13.28816534     -14.87651691     -15.69364440     -15.84663661     -15.43089783     -14.53127469
       1.48000000       1.50000000       1.52000000       1.54000000       1.56000000       1.58000000       1.60000000       1.62000000
     -13.22308190     -11.57303589      -9.64010446      -7.47627978      -5.12728135      -2.63319504      -0.02905347       2.65463700
       1.64000000       1.66000000       1.68000000       1.70000000       1.72000000       1.74000000       1.76000000       1.78000000
       5.39141833       8.15844758      10.93610459      13.70763707      16.45883983      19.17776524      21.85446201      24.48074001
       1.80000000       1.82000000       1.84000000       1.86000000       1.88000000       1.90000000       1.92000000       1.94000000
      27.04995867      29.55683687      31.99728236      34.36821215      36.66751688      38.89379532      41.04632035      43.12498095
       1.96000000       1.98000000       2.00000000       2.02000000       2.04000000       2.06000000       2.08000000       2.10000000
      45.13011041      47.06246446      48.92314094      50.71352782      52.43524465      54.09004611      55.67989611      57.20684356
       2.12000000       2.14000000       2.16000000       2.18000000       2.20000000       2.22000000       2.24000000       2.26000000
      58.67301634      60.08059503      61.43179028      62.72882353      63.97391055      65.16924753      66.31699954      67.41929085
       2.28000000       2.30000000       2.32000000       2.34000000       2.36000000       2.38000000       2.40000000       2.42000000
      68.47819712      69.49573909      70.47387760      71.41450983      72.31946652      73.19051006      74.02933343      74.83755966
       2.44000000       2.46000000       2.48000000       2.50000000       2.52000000       2.54000000       2.56000000       2.58000000
      75.61674194      76.36836415      77.09384182      77.79452332      78.47169148      79.12656521      79.76030149      80.37399737
       2.60000000       2.62000000       2.64000000       2.66000000       2.68000000       2.70000000       2.72000000       2.74000000
      80.96869208      81.54536923      82.10495903      82.64834058      83.17634405      83.68975295      84.18930633      84.67570096
       2.76000000       2.78000000       2.80000000       2.82000000       2.84000000       2.86000000       2.88000000       2.90000000
      85.14959340      85.61160209      86.06230936      86.50226336      86.93197990      87.35194428      87.76261302      88.16441548
       2.92000000       2.94000000       2.96000000       2.98000000
      88.55775550      88.94301287      89.32054480      89.69068727

 **********************
 *                    *
 * JOB ENDED NORMALLY *
 *                    *
 **********************



 TOTAL JOB TIME:             0.58 SECONDS

 == MOPAC DONE ==
