 *******************************************************************************
 ** Site#: 29054        For non-commercial use only    Version 18.022W 64BITS **
 *******************************************************************************
 ** Cite this program as: MOPAC2016, Version: 18.022W, James J. P. Stewart,   **
 ** Stewart Computational Chemistry, web: HTTP://OpenMOPAC.net. Days left: 365**
 *******************************************************************************
 **                                                                           **
 **                                MOPAC2016                                  **
 **                                                                           **
 *******************************************************************************

                              PM7 CALCULATION RESULTS


 *******************************************************************************
 *  CALCULATION DONE:                                Mon Jan 22 16:23:31 2018  *
 *  OPT        - OPTIMIZE COORDINATES OF ALL ATOMS
 *
 *
 *
 *                 CHARGE ON SYSTEM =    -1
 *
 *
 *
 *  EPS= 78.40 - USE ANDREAS KLAMT'S COSMO IMPLICIT SOLVATION MODEL
 *  TS         - USE EF ROUTINE FOR TS SEARCH
 *  INT        - INTERNAL COORDINATE SYSTEM TO BE USED
 *  T=         - A TIME OF 172800.0 SECONDS REQUESTED
 *  DUMP=N     - RESTART FILE WRITTEN EVERY  7200.000 SECONDS
 *******************************************************************************
 charge=-1  eps=78.4 opt ts int
 Locate the transition state for F(-) + CH3I => CH3F + I(-)

  ATOM               CHEMICAL                 BOND LENGTH      BOND ANGLE     TWIST ANGLE 
 NUMBER               SYMBOL                  (ANGSTROMS)      (DEGREES)       (DEGREES) 
   (I)                                           NA:I           NB:NA:I       NC:NB:NA:I       NA    NB    NC 
     1       F(HETATM    1  F   HET B   2)    0.00000000       0.0000000       0.0000000   
     2       I(HETATM    3  I   HET B   2)    4.59151052  *    0.0000000       0.0000000        1     0     0
     3       C(HETATM    3  C   HET B   2)    1.99575526  *    0.0000000  *    0.0000000        1     2     0
     4       H(HETATM    3 1H   HET B   2)    1.08612018  *   88.3187239  *    0.0000000  *     3     1     1
     5       H(HETATM    3 2H   HET B   2)    1.08614346  *   88.2980415  *  120.0273249  *     3     1     4
     6       H(HETATM    3 3H   HET B   2)    1.08610773  *   88.3217576  *  120.0378626  *     3     1     5
 

 General Reference for PM7:
 "Optimization of Parameters for Semiempirical Methods VI: More Modifications to the 
 NDDO Approximations and Re-optimization of Parameters", J. J. P. Stewart, J. Mol. Mod., 1:32, 19 (2013)
 http://www.springerlink.com/openurl.asp?genre=article&id=doi:10.1007/s00894-012-1667-x

           Empirical Formula: C H3 F I  =     6 atoms



      MOLECULAR POINT GROUP   :   C3v 


      RHF CALCULATION, NO. OF DOUBLY OCCUPIED LEVELS = 11


          Transition state refinement using EF

          HESSIAN CALCULATED NUMERICALLY

 CYCLE:     1 TIME:   0.094 TIME LEFT:  2.00D  GRAD.:     1.375 HEAT: -126.2849
 CYCLE:     2 TIME:   0.016 TIME LEFT:  2.00D  GRAD.:     0.238 HEAT: -126.2954

     GRADIENT =  0.23824  IS LESS THAN CUTOFF =  1.00000



 -------------------------------------------------------------------------------
 charge=-1  eps=78.4 opt ts int
 Locate the transition state for F(-) + CH3I => CH3F + I(-)



     GEOMETRY OPTIMISED USING EIGENVECTOR FOLLOWING (TS).     
     SCF FIELD WAS ACHIEVED                                   


                              PM7 CALCULATION
                                                       MOPAC2016 (Version: 18.022W)
                                                       Mon Jan 22 16:23:31 2018
                                                       No. of days remaining = 365




          FINAL HEAT OF FORMATION =       -126.29538 KCAL/MOL =    -528.41986 KJ/MOL
          VAN DER WAALS AREA      =        112.88 SQUARE ANGSTROMS


          TOTAL ENERGY            =       -856.02358 EV
          ELECTRONIC ENERGY       =       -567.64742 EV  POINT GROUP:     C3v 
          CORE-CORE REPULSION     =       -288.37616 EV
          DIELECTRIC ENERGY       =         -2.91400 EV
          COSMO AREA              =        112.88 SQUARE ANGSTROMS
          COSMO VOLUME            =         97.79 CUBIC ANGSTROMS

          GRADIENT NORM           =          0.23824
          IONIZATION POTENTIAL    =          9.758883 EV
          HOMO LUMO ENERGIES (EV) =         -9.759 -0.696
          NO. OF FILLED LEVELS    =         11
          MOLECULAR WEIGHT        =        160.9376

          MOLECULAR DIMENSIONS (Angstroms)

            Atom       Atom       Distance
            I     2    F     1     4.59535
            H     6    H     4     1.88054
            H     5    H     4     1.62751


          SCF CALCULATIONS        =         16
 
          WALL-CLOCK TIME         =          0.125 SECONDS
          COMPUTATION TIME        =          0.406 SECONDS




  ATOM               CHEMICAL                 BOND LENGTH      BOND ANGLE     TWIST ANGLE 
 NUMBER               SYMBOL                  (ANGSTROMS)      (DEGREES)       (DEGREES) 
   (I)                                           NA:I           NB:NA:I       NC:NB:NA:I       NA    NB    NC 
     1       F(HETATM    1  F   HET B   2)    0.00000000       0.0000000       0.0000000   
     2       I(HETATM    3  I   HET B   2)    4.59534860  *    0.0000000       0.0000000        1     0     0
     3       C(HETATM    3  C   HET B   2)    1.99894719  *    0.0332422  *    0.0000000        1     2     0
     4       H(HETATM    3 1H   HET B   2)    1.08585377  *   88.1956563  *   -5.7177911  *     3     1     1
     5       H(HETATM    3 2H   HET B   2)    1.08578808  *   88.1926395  *  119.9148885  *     3     1     4
     6       H(HETATM    3 3H   HET B   2)    1.08607427  *   88.2103824  *  120.0297303  *     3     1     5

                             CARTESIAN COORDINATES

   1    F        0.000000000     0.000000000     0.000000000
   2    I        4.595348597     0.000000000     0.000000000
   3    C        1.998946853     0.001159759     0.000000000
   4    H        1.965383638    -1.078775485     0.108128585
   5    H        1.964443937     0.445957790    -0.989898996
   6    H        1.964660973     0.635725248     0.880743113


           Empirical Formula: C H3 F I  =     6 atoms



      MOLECULAR POINT GROUP   :   C3v 


                  EIGENVALUES  
 -34.14203 -25.49058 -20.94436 -15.16083 -15.15590 -12.48708 -12.44987 -12.44397
  -9.86081  -9.76376  -9.75888  -0.69626   4.98049   5.24737   5.25419 129.83054
 129.83061 129.86847 130.15260 130.15261


              NET ATOMIC CHARGES AND DIPOLE CONTRIBUTIONS

  ATOM NO.                 TYPE                        CHARGE      No. of ELECS.   s-Pop       p-Pop       d-Pop       
    1          F(HETATM    1  F   HET B   2)          -0.856708        7.8567     1.99793     5.85878
    2          I(HETATM    3  I   HET B   2)          -0.752895        7.7529     1.98310     5.76664     0.00316
    3          C(HETATM    3  C   HET B   2)           0.120761        3.8792     1.21043     2.66881
    4          H(HETATM    3 1H   HET B   2)           0.163159        0.8368     0.83684
    5          H(HETATM    3 2H   HET B   2)           0.162320        0.8377     0.83768
    6          H(HETATM    3 3H   HET B   2)           0.163363        0.8366     0.83664

          NET CHARGE ON RESIDUES

      Residue         Charge  Anion or
                              Cation?
      HET B   2       -1.000  ANION
 


 DIPOLE           X         Y         Z       TOTAL
 POINT-CHG.     7.453     0.002     0.004     7.453
 HYBRID        -0.047     0.000    -0.002     0.047
 SUM            7.406     0.003     0.002     7.406


          ATOMIC ORBITAL ELECTRON POPULATIONS

                   Atom                  s        px        py        pz      x^2-y^2     xz        z^2       yz        xy
   F(HETATM    1  F   HET B   2)   1.99793   1.85878   2.00000   2.00000
   I(HETATM    3  I   HET B   2)   1.98310   1.76671   1.99996   1.99997   0.00162   0.00049   0.00054   0.00000   0.00049
   C(HETATM    3  C   HET B   2)   1.21043   0.39246   1.13826   1.13809
   H(HETATM    3 1H   HET B   2)   0.83684
   H(HETATM    3 2H   HET B   2)   0.83768
   H(HETATM    3 3H   HET B   2)   0.83664
 *******************************************************************************
 ** Site#: 29054        For non-commercial use only    Version 18.022W 64BITS **
 *******************************************************************************
 ** Cite this program as: MOPAC2016, Version: 18.022W, James J. P. Stewart,   **
 ** Stewart Computational Chemistry, web: HTTP://OpenMOPAC.net. Days left: 365**
 *******************************************************************************
 **                                                                           **
 **                                MOPAC2016                                  **
 **                                                                           **
 *******************************************************************************

                              PM7 CALCULATION RESULTS


 *******************************************************************************
 *  CALCULATION DONE:                                Mon Jan 22 16:23:31 2018  *
 *
 *
 *
 *                 CHARGE ON SYSTEM =    -1
 *
 *
 *
 *  EPS= 78.40 - USE ANDREAS KLAMT'S COSMO IMPLICIT SOLVATION MODEL
 *  OLDGEO     - PREVIOUS GEOMETRY TO BE USED
 *  FORCE      - FORCE CALCULATION SPECIFIED
 *  T=         - A TIME OF 172800.0 SECONDS REQUESTED
 *  DUMP=N     - RESTART FILE WRITTEN EVERY  7200.000 SECONDS
 *  ISOTOPE    - FORCE MATRIX WRITTEN TO DISK (CHAN. 9 )
 *******************************************************************************
oldgeo force charge=-1 eps=78.4 isotope
 Verify the transition state for F(-) + CH3I => CH3F + I(-)

  ATOM               CHEMICAL                 BOND LENGTH      BOND ANGLE     TWIST ANGLE 
 NUMBER               SYMBOL                  (ANGSTROMS)      (DEGREES)       (DEGREES) 
   (I)                                           NA:I           NB:NA:I       NC:NB:NA:I       NA    NB    NC 
     1       F(HETATM    1  F   HET B   2)    0.00000000       0.0000000       0.0000000   
     2       I(HETATM    3  I   HET B   2)    4.59534860  *    0.0000000       0.0000000        1     0     0
     3       C(HETATM    3  C   HET B   2)    1.99894719  *    0.0332422  *    0.0000000        1     2     0
     4       H(HETATM    3 1H   HET B   2)    1.08585377  *   88.1956563  *   -5.7177911  *     3     1     1
     5       H(HETATM    3 2H   HET B   2)    1.08578808  *   88.1926395  *  119.9148885  *     3     1     4
     6       H(HETATM    3 3H   HET B   2)    1.08607427  *   88.2103824  *  120.0297303  *     3     1     5
 

 General Reference for PM7:
 "Optimization of Parameters for Semiempirical Methods VI: More Modifications to the 
 NDDO Approximations and Re-optimization of Parameters", J. J. P. Stewart, J. Mol. Mod., 1:32, 19 (2013)
 http://www.springerlink.com/openurl.asp?genre=article&id=doi:10.1007/s00894-012-1667-x

           Empirical Formula: C H3 F I  =     6 atoms



      MOLECULAR POINT GROUP   :   C3v 


      RHF CALCULATION, NO. OF DOUBLY OCCUPIED LEVELS = 11



          HEAT OF FORMATION =    -126.295378 KCALS/MOLE


          CARTESIAN COORDINATE DERIVATIVES

   NUMBER  ATOM         X            Y            Z

     1       F      0.005275     0.032481    -0.000897
     2       I     -0.029939    -0.031453    -0.005342
     3       C      0.006403     0.014617     0.043163
     4       H      0.045685     0.009736    -0.118410
     5       H     -0.009009    -0.104511    -0.107398
     6       H     -0.018412     0.079129     0.188884
 


          GRADIENT NORM =   0.29349


          TIME FOR SCF CALCULATION =    0.02

          TIME FOR DERIVATIVES     =    0.00

          MOLECULAR WEIGHT =  160.94



          ROTATIONAL CONSTANTS IN CM(-1)

          A =    4.73261383   B =    0.04157013   C =    0.04156975



           PRINCIPAL MOMENTS OF INERTIA IN UNITS OF 10**(-40)*GRAM-CM**2

          A =        5.9149   B =      673.3868   C =      673.3929


          ORIENTATION OF MOLECULE IN FORCE CALCULATION

    NO.       ATOM         X         Y         Z

     1          F      -3.8097   -0.0001    0.0000
     2          I       0.7857   -0.0001    0.0000
     3          C      -1.8107    0.0011    0.0000
     4          H      -1.8443   -1.0789    0.1081
     5          H      -1.8452    0.4459   -0.9899
     6          H      -1.8450    0.6356    0.8807


    FIRST DERIVATIVES WILL BE USED IN THE CALCULATION OF SECOND DERIVATIVES

          ESTIMATED TIME TO COMPLETE CALCULATION =        0.56 SECONDS

    FOR POINT-GROUP C3v  THERE ARE   6 UNIQUE SYMMETRY FUNCTIONS.

 STEP:   1 TIME =     0.02 SECS, INTEGRAL =      0.02 TIME LEFT: 172799.97
 STEP:   2 TIME =     0.02 SECS, INTEGRAL =      0.03 TIME LEFT: 172799.95
 STEP:   3 TIME =     0.02 SECS, INTEGRAL =      0.05 TIME LEFT: 172799.94
 STEP:   4 TIME =     0.02 SECS, INTEGRAL =      0.06 TIME LEFT: 172799.92
 STEP:   5 TIME =     0.02 SECS, INTEGRAL =      0.08 TIME LEFT: 172799.91
 STEP:   6 TIME =     0.00 SECS, INTEGRAL =      0.08 TIME LEFT: 172799.91
 STEP:   7 TIME =     0.02 SECS, INTEGRAL =      0.09 TIME LEFT: 172799.89
 STEP:   8 TIME =     0.02 SECS, INTEGRAL =      0.11 TIME LEFT: 172799.88
 STEP:   9 TIME =     0.02 SECS, INTEGRAL =      0.12 TIME LEFT: 172799.86
 STEP:  10 TIME =     0.02 SECS, INTEGRAL =      0.14 TIME LEFT: 172799.84
 STEP:  11 TIME =     0.02 SECS, INTEGRAL =      0.16 TIME LEFT: 172799.83
 STEP:  12 TIME =     0.02 SECS, INTEGRAL =      0.17 TIME LEFT: 172799.81
 STEP:  13                       INTEGRAL =      0.17 TIME LEFT: 172799.81
 STEP:  14                       INTEGRAL =      0.17 TIME LEFT: 172799.81
 STEP:  15                       INTEGRAL =      0.17 TIME LEFT: 172799.81
 STEP:  16                       INTEGRAL =      0.17 TIME LEFT: 172799.81
 STEP:  17                       INTEGRAL =      0.17 TIME LEFT: 172799.81
 STEP:  18                       INTEGRAL =      0.17 TIME LEFT: 172799.81

(To convert to Hartree/Bohr^2, multiply by (10^(-21) x N x a0^2)/(4.184 x 627.51) =  0.0642)


           FORCE MATRIX IN MILLIDYNES/ANGSTROM


                  F  1       I  2       C  3       H  4       H  5       H  6
 ------------------------------------------------------------------------------
     F    1   0.265778
     I    2   0.693778   0.249890
     C    3   1.879337   1.612669   9.384882
     H    4   0.375965   0.395008   3.481274   4.010483
     H    5   0.380694   0.406181   3.505931   0.405211   4.010483
     H    6   0.380666   0.406948   3.511480   0.427560   0.427560   4.010483


          HEAT OF FORMATION =    -126.295378 KCALS/MOLE

          ZERO POINT ENERGY      20.611 KCAL/MOL

         NOTE: SYSTEM IS NOT A GROUND STATE, THEREFORE ZERO POINT
         ENERGY IS NOT MEANINGFULL. ZERO POINT ENERGY PRINTED
         DOES NOT INCLUDE THE  1 IMAGINARY FREQUENCIES


           NORMAL COORDINATE ANALYSIS (Total motion = 1 Angstrom)


   Root No.       1         2         3         4         5         6         7         8

                 1 A1      1 E       1 E       2 A1      2 E       2 E       3 E       3 E   

                -706.9     180.3     180.3     181.9    1033.7    1033.7    1272.5    1272.5
  
           1   -0.2021    0.0000   -0.0000    0.3570   -0.0000   -0.0000   -0.0000    0.0000
           2   -0.0001   -0.0056   -0.0967   -0.0000   -0.0061   -0.0080    0.0001    0.0019
           3   -0.0000   -0.0967    0.0056    0.0000   -0.0073    0.0067    0.0018   -0.0002
           4   -0.0278   -0.0000   -0.0000   -0.0712    0.0000    0.0000   -0.0000    0.0000
           5    0.0000   -0.0006   -0.0112    0.0000    0.0009    0.0012    0.0000    0.0002
           6   -0.0000   -0.0112    0.0006   -0.0000    0.0011   -0.0010    0.0002   -0.0000
           7    0.6001   -0.0000    0.0000    0.1524   -0.0000   -0.0000    0.0000   -0.0000
           8   -0.0001    0.0124    0.2148   -0.0000   -0.0018   -0.0024   -0.0048   -0.0654
           9    0.0000    0.2148   -0.0124   -0.0000   -0.0022    0.0020   -0.0594    0.0053
          10    0.0517   -0.0010    0.0231    0.1397   -0.2757   -0.4525   -0.0003    0.0199
          11    0.0230    0.0146    0.2130   -0.0040    0.0067    0.0076    0.0469   -0.0331
          12   -0.0023    0.2370   -0.0113    0.0004    0.0137   -0.0114    0.4648    0.0128
          13    0.0517    0.0205   -0.0107    0.1397   -0.2169    0.4900    0.0158   -0.0096
          14   -0.0095    0.0210    0.2316    0.0016    0.0124    0.0114    0.2172    0.4034
          15    0.0211    0.2169   -0.0038   -0.0036    0.0101   -0.0051    0.0683    0.2004
          16    0.0517   -0.0195   -0.0124    0.1397    0.4926   -0.0375   -0.0155   -0.0102
          17   -0.0136    0.0031    0.2288    0.0023    0.0064    0.0150   -0.2113    0.3475
          18   -0.0188    0.2195   -0.0236    0.0032    0.0069   -0.0116    0.1190   -0.2713


   Root No.       9        10        11        12

                 3 A1      4 E       4 E       4 A1  

                1290.2    2643.7    2643.7    2685.5
  
           1   -0.0190   -0.0000   -0.0000    0.0008
           2   -0.0000   -0.0002   -0.0001    0.0000
           3    0.0000    0.0001   -0.0002   -0.0000
           4   -0.0030    0.0000   -0.0000   -0.0000
           5    0.0000   -0.0000   -0.0000   -0.0000
           6   -0.0000    0.0000   -0.0000    0.0000
           7   -0.0185   -0.0000   -0.0000   -0.0030
           8   -0.0000   -0.0529   -0.0251    0.0000
           9    0.0000    0.0264   -0.0503    0.0000
          10    0.3197    0.0107    0.0039    0.0080
          11   -0.0081    0.4665    0.1663    0.3303
          12    0.0008   -0.0366   -0.0407   -0.0333
          13    0.3197   -0.0088    0.0068    0.0080
          14    0.0033    0.1440   -0.1421   -0.1363
          15   -0.0073   -0.3608    0.2661    0.3027
          16    0.3197   -0.0018   -0.0107    0.0080
          17    0.0047    0.0251    0.2778   -0.1940
          18    0.0065    0.0802    0.3797   -0.2694


           MASS-WEIGHTED COORDINATE ANALYSIS (NORMAL COORDINATES)


   Root No.       1         2         3         4         5         6         7         8

                 1 A1      1 E       1 E       2 A1      2 E       2 E       3 E       3 E   

                -706.9     180.3     180.3     181.9    1033.7    1033.7    1272.5    1272.5
  
           1   -0.3860    0.0000   -0.0000    0.8436   -0.0000   -0.0000   -0.0000    0.0000
           2   -0.0001   -0.0255   -0.4434   -0.0001   -0.0433   -0.0521    0.0010    0.0125
           3   -0.0000   -0.4434    0.0255    0.0000   -0.0521    0.0432    0.0126   -0.0010
           4   -0.1371   -0.0000   -0.0000   -0.4348    0.0000    0.0000   -0.0000    0.0000
           5    0.0001   -0.0076   -0.1326    0.0000    0.0162    0.0195    0.0003    0.0034
           6   -0.0000   -0.1326    0.0076   -0.0000    0.0195   -0.0162    0.0033   -0.0003
           7    0.9112   -0.0000    0.0001    0.2863   -0.0000   -0.0000    0.0000   -0.0000
           8   -0.0001    0.0450    0.7828   -0.0000   -0.0104   -0.0125   -0.0272   -0.3365
           9    0.0000    0.7828   -0.0450   -0.0000   -0.0126    0.0104   -0.3364    0.0272
          10    0.0228   -0.0010    0.0244    0.0760   -0.4542   -0.6750   -0.0005    0.0296
          11    0.0101    0.0155    0.2249   -0.0022    0.0110    0.0113    0.0769   -0.0493
          12   -0.0010    0.2502   -0.0119    0.0002    0.0226   -0.0170    0.7622    0.0191
          13    0.0227    0.0216   -0.0113    0.0760   -0.3574    0.7309    0.0259   -0.0143
          14   -0.0042    0.0222    0.2445    0.0009    0.0204    0.0171    0.3563    0.6010
          15    0.0093    0.2290   -0.0040   -0.0020    0.0167   -0.0076    0.1120    0.2986
          16    0.0227   -0.0206   -0.0131    0.0760    0.8117   -0.0559   -0.0254   -0.0152
          17   -0.0060    0.0033    0.2415    0.0013    0.0106    0.0223   -0.3466    0.5177
          18   -0.0083    0.2317   -0.0250    0.0018    0.0115   -0.0174    0.1952   -0.4042


   Root No.       9        10        11        12

                 3 A1      4 E       4 E       4 A1  

                1290.2    2643.7    2643.7    2685.5
  
           1   -0.1460   -0.0000   -0.0000    0.0064
           2   -0.0000   -0.0015   -0.0008    0.0000
           3    0.0000    0.0008   -0.0016   -0.0000
           4   -0.0602    0.0000   -0.0000   -0.0007
           5    0.0000   -0.0002   -0.0001   -0.0000
           6   -0.0000    0.0001   -0.0002    0.0000
           7   -0.1128   -0.0000   -0.0000   -0.0178
           8   -0.0000   -0.2820   -0.1407    0.0000
           9    0.0000    0.1407   -0.2820    0.0000
          10    0.5662    0.0165    0.0063    0.0139
          11   -0.0143    0.7209    0.2699    0.5742
          12    0.0014   -0.0566   -0.0661   -0.0580
          13    0.5662   -0.0136    0.0111    0.0139
          14    0.0058    0.2226   -0.2306   -0.2369
          15   -0.0130   -0.5576    0.4319    0.5262
          16    0.5662   -0.0028   -0.0174    0.0139
          17    0.0083    0.0387    0.4509   -0.3373
          18    0.0116    0.1239    0.6164   -0.4683


          DESCRIPTION OF VIBRATIONS


 VIBRATION    1    1A1      ATOM PAIR        ENERGY CONTRIBUTION    RADIAL
 FREQ.      -706.86        F  1 --  C  3          -26.3% (-97.3%)   100.0%
 T-DIPOLE   16.4927        I  2 --  C  3          -18.9% (-82.5%)   100.0%
 TRAVEL      0.0827        C  3 --  H  6          -18.2% (-81.0%)     0.0%
 RED. MASS   8.7480        C  3 --  H  5          -18.2% (-81.0%)     0.0%
 EFF. MASS  13.9574        C  3 --  H  4          -18.2% (-81.0%)     0.0%

 VIBRATION    3    1E       ATOM PAIR        ENERGY CONTRIBUTION    RADIAL
 FREQ.       180.31        F  1 --  C  3          +24.6% (416.5%)     0.0%
 T-DIPOLE    1.2150        I  2 --  C  3          +24.2% (412.8%)     0.0%
 TRAVEL      0.0576        C  3 --  H  5          +19.4% (370.2%)    22.7%
 RED. MASS   5.3275        C  3 --  H  6          +18.8% (364.5%)    30.6%
 EFF. MASS 112.8028        C  3 --  H  4          +13.0% (302.8%)    99.3%

 VIBRATION    4    2A1      ATOM PAIR        ENERGY CONTRIBUTION    RADIAL
 FREQ.       181.89        F  1 --  C  3          -74.8% (133.5%)   100.0%
 T-DIPOLE    0.7334        I  2 --  C  3          -61.8% (121.3%)   100.0%
 TRAVEL      0.1064        C  3 --  H  4          -37.7% ( 94.7%)     0.2%
 RED. MASS  14.2373        C  3 --  H  6          -37.7% ( 94.7%)     0.2%
 EFF. MASS  32.7604        C  3 --  H  5          -37.7% ( 94.7%)     0.2%

 VIBRATION    6    2E       ATOM PAIR        ENERGY CONTRIBUTION    RADIAL
 FREQ.      1033.67        C  3 --  H  5          +53.7% ( 78.9%)     0.0%
 T-DIPOLE    0.0776        C  3 --  H  4          +45.8% ( 72.9%)     0.0%
 TRAVEL      0.2488        C  3 --  H  6           +0.4% (  7.0%)     0.0%
 RED. MASS   0.4981
 EFF. MASS   1.0540

 VIBRATION    8    3E       ATOM PAIR        ENERGY CONTRIBUTION    RADIAL
 FREQ.      1272.48        C  3 --  H  5          +42.1% ( 63.2%)     2.0%
 T-DIPOLE    0.4564        C  3 --  H  6          +40.5% ( 62.0%)     2.4%
 TRAVEL      0.1645        F  1 --  C  3           +6.7% ( 25.2%)     0.0%
 RED. MASS   0.5484        I  2 --  C  3           +6.7% ( 25.2%)     0.0%
 EFF. MASS   1.9572

 VIBRATION    9    3A1      ATOM PAIR        ENERGY CONTRIBUTION    RADIAL
 FREQ.      1290.15        C  3 --  H  4          +33.4% ( 49.5%)     0.0%
 T-DIPOLE    0.9259        C  3 --  H  6          +33.4% ( 49.5%)     0.0%
 TRAVEL      0.1998        C  3 --  H  5          +33.4% ( 49.5%)     0.0%
 RED. MASS   0.3234        I  2 --  C  3           +0.3% (  4.9%)   100.0%
 EFF. MASS   1.3094

 VIBRATION   11    4E       ATOM PAIR        ENERGY CONTRIBUTION    RADIAL
 FREQ.      2643.72        C  3 --  H  6          +62.4% ( 82.3%)    99.8%
 T-DIPOLE    0.8979        C  3 --  H  5          +26.2% ( 53.3%)    91.4%
 TRAVEL      0.1272        C  3 --  H  4           +9.0% ( 31.3%)    69.6%
 RED. MASS   0.5257        I  2 --  C  3           +1.2% ( 11.3%)     0.0%
 EFF. MASS   1.5762

 VIBRATION   12    4A1      ATOM PAIR        ENERGY CONTRIBUTION    RADIAL
 FREQ.      2685.47        C  3 --  H  4          +33.3% ( 55.2%)    99.9%
 T-DIPOLE    0.5224        C  3 --  H  6          +33.3% ( 55.2%)    99.9%
 TRAVEL      0.1577        C  3 --  H  5          +33.3% ( 55.2%)    99.9%
 RED. MASS   0.3357
 EFF. MASS   1.0096

           FORCE CONSTANT IN INTERNAL COORDINATES (Millidynes/A)

    ATOM   CHEMICAL  BOND LENGTH      BOND ANGLE     TWIST ANGLE
   NUMBER   SYMBOL  FORCE CONSTANT  FORCE CONSTANT  FORCE CONSTANT

      1       F        0.000000        0.000000        0.000000
      2       I        0.216823        0.000000        0.000000
      3       C       -1.340106        2.016007        0.000000
      4       H        3.915286        0.870662       -0.103731
      5       H        3.915222        0.870618        0.629490
      6       H        3.915239        0.871063        0.664071
 *******************************************************************************
 ** Site#: 29054        For non-commercial use only    Version 18.022W 64BITS **
 *******************************************************************************
 ** Cite this program as: MOPAC2016, Version: 18.022W, James J. P. Stewart,   **
 ** Stewart Computational Chemistry, web: HTTP://OpenMOPAC.net. Days left: 365**
 *******************************************************************************
 **                                                                           **
 **                                MOPAC2016                                  **
 **                                                                           **
 *******************************************************************************

                              PM7 CALCULATION RESULTS


 *******************************************************************************
 *  CALCULATION DONE:                                Mon Jan 22 16:23:31 2018  *
 *
 *
 *
 *                 CHARGE ON SYSTEM =    -1
 *
 *
 *
 *  EPS= 78.40 - USE ANDREAS KLAMT'S COSMO IMPLICIT SOLVATION MODEL
 *  IRC=N      - INTRINSIC REACTION COORDINATE  1 DEFINED
 *  OLDGEO     - PREVIOUS GEOMETRY TO BE USED
 *  RESTART    - CALCULATION RESTARTED
 *  T=         - A TIME OF 172800.0 SECONDS REQUESTED
 *  DUMP=N     - RESTART FILE WRITTEN EVERY  7200.000 SECONDS
 *  CYCLES=    - DO A MAXIMUM OF    50 STEPS
 *  HTML       - WRITE HTML SCRIPT TO GENERATE ANIMATION USING JSMOL
 *             - TO DISPLAY IN PDB FORMAT, ADD "PDBOUT"
 *  X-PRIOR    - GEOMETRY CHANGES TAKE PRIORITY IN DRC
 *******************************************************************************
oldgeo irc=1* charge=-1 eps=78.4 restart x-priority=0.1 html cycles=50
 Map the Intrinsic Reaction Coordinate for F(-) + CH3I => CH3F + I(-)

  ATOM               CHEMICAL                 BOND LENGTH      BOND ANGLE     TWIST ANGLE 
 NUMBER               SYMBOL                  (ANGSTROMS)      (DEGREES)       (DEGREES) 
   (I)                                           NA:I           NB:NA:I       NC:NB:NA:I       NA    NB    NC 
     1       F(HETATM    1  F   HET B   2)    0.00000000       0.0000000       0.0000000   
     2       I(HETATM    3  I   HET B   2)    4.59534860  *    0.0000000       0.0000000        1     0     0
     3       C(HETATM    3  C   HET B   2)    1.99894719  *    0.0332422  *    0.0000000        1     2     0
     4       H(HETATM    3 1H   HET B   2)    1.08585377  *   88.1956563  *   -5.7177911  *     3     1     1
     5       H(HETATM    3 2H   HET B   2)    1.08578808  *   88.1926395  *  119.9148885  *     3     1     4
     6       H(HETATM    3 3H   HET B   2)    1.08607427  *   88.2103824  *  120.0297303  *     3     1     5
 

 General Reference for PM7:
 "Optimization of Parameters for Semiempirical Methods VI: More Modifications to the 
 NDDO Approximations and Re-optimization of Parameters", J. J. P. Stewart, J. Mol. Mod., 1:32, 19 (2013)
 http://www.springerlink.com/openurl.asp?genre=article&id=doi:10.1007/s00894-012-1667-x

           Empirical Formula: C H3 F I  =     6 atoms



      MOLECULAR POINT GROUP   :   C3v 


      RHF CALCULATION, NO. OF DOUBLY OCCUPIED LEVELS = 11


          MOLECULAR WEIGHT =  160.94


          TIME USED UP TO RESTART =                  0.17

    FOR POINT-GROUP C3v  THERE ARE   6 UNIQUE SYMMETRY FUNCTIONS.

           INITIAL VELOCITY IN DRC (Angstroms/Femtosecond)
        -0.20212        -0.00006        -0.00000
        -0.02777         0.00002        -0.00000
         0.60010        -0.00009         0.00000
         0.05175         0.02299        -0.00232
         0.05171        -0.00955         0.02111
         0.05171        -0.01357        -0.01879

 GEOMETRY PRIORITY, STEP = 0.1000 ANGSTROMS



     POINT   POTENTIAL  +  ENERGY LOST   =   TOTAL      ERROR    REF%   MOVEMENT
       1    -126.29538      0.00000       -126.29538   0.00000     1   %  0.0000
      10    -126.59841      0.66782       -125.93059   0.36076     2   %  0.0561
      16    -127.03562      1.46252       -125.57310   0.71825     3   %  0.0951
      23    -128.69997      3.24903       -125.45093   0.84042     4   %  0.1696
      29    -131.11880      5.72930       -125.38950   0.90185     5   %  0.2596
      36    -134.31235      8.84575       -125.46660   0.82475     6   %  0.3662
      42    -137.56399     11.82674       -125.73725   0.55411     7   %  0.4743
      48    -139.35185     13.99652       -125.35533   0.93602     8   %  0.5640
      54    -141.61990     16.14787       -125.47203   0.81932     9   %  0.6728
      60    -143.17675     17.57835       -125.59840   0.69295    10   %  0.7680
      65    -144.06372     18.53267       -125.53105   0.76030    11   %  0.8585
      71    -144.58526     19.14022       -125.44504   0.84631    12   %  0.9244
      78    -144.81118     19.69144       -125.11973   1.17162    13   %  0.9621
      86    -144.87606     20.26078       -124.61528   1.67607    14   %  0.9902
      92    -144.99964     20.68264       -124.31699   1.97436    15   %  1.0051
      99    -145.15444     21.16519       -123.98925   2.30210    16   %  1.0267
     105    -145.25101     21.64716       -123.60385   2.68750    17   %  1.0329
     111    -145.34933     22.11505       -123.23428   3.05707    18   %  1.0413
     118    -145.46249     22.57460       -122.88789   3.40346    19   %  1.0534
     124    -145.57066     23.02362       -122.54704   3.74432    20   %  1.0660
     130    -145.66741     23.47601       -122.19140   4.09995    21   %  1.0751
     137    -145.73400     23.96191       -121.77208   4.51927    22   %  1.0799
     143    -145.80024     24.44833       -121.35190   4.93945    23   %  1.0855
     150    -145.87665     24.93201       -120.94464   5.34671    24   %  1.0939
     156    -145.92829     25.37702       -120.55127   5.74008    25   %  1.0997
     162    -145.99530     25.83641       -120.15890   6.13245    26   %  1.1070
     169    -146.07969     26.40425       -119.67543   6.61592    27   %  1.1186
     175    -146.15017     26.85309       -119.29708   6.99427    28   %  1.1291
     182    -146.18661     27.45855       -118.72806   7.56329    29   %  1.1331
     188    -146.20587     27.96815       -118.23772   8.05363    30   %  1.1365
     195    -146.30423     28.58522       -117.71901   8.57235    31   %  1.1505
     201    -146.35930     29.12999       -117.22931   9.06204    32   %  1.1579
     207    -146.40587     29.75164       -116.65423   9.63712    33   %  1.1642
     214    -146.40592     30.57612       -115.82979  10.46156    34   %  1.1650
     220    -146.45749     31.30229       -115.15520  11.13615    35   %  1.1723
     227    -146.58404     32.07947       -114.50457  11.78678    36   %  1.1873
     233    -146.57398     32.99710       -113.57688  12.71447    37   %  1.1897
     239    -146.66894     33.79226       -112.87668  13.41467    38   %  1.2029
     246    -146.74657     34.89245       -111.85412  14.43723    39   %  1.2200
     252    -146.77251     35.25597       -111.51654  14.77481    40   %  1.2241
     259    -146.79453     35.80345       -110.99108  15.30027    41   %  1.2289
     266    -146.82293     36.29693       -110.52600  15.76535    42   %  1.2367
     272    -146.83134     36.77872       -110.05262  16.23873    43   %  1.2424
     279    -146.83275     37.40246       -109.43029  16.86106    44   %  1.2450
     285    -146.88571     37.98767       -108.89804  17.39331    45   %  1.2549
     292    -146.88754     38.65634       -108.23120  18.06015    46   %  1.2576
     298    -146.94667     39.26318       -107.68349  18.60786    47   %  1.2669
     305    -146.94898     40.27694       -106.67204  19.61931    48   %  1.2700
     311    -146.93319     41.25149       -105.68170  20.60965    49   %  1.2734
     318    -147.05538     41.89548       -105.15991  21.13144    50   %  1.2898


           INITIAL VELOCITY IN DRC (Angstroms/Femtosecond)
         0.20212         0.00006         0.00000
         0.02777        -0.00002         0.00000
        -0.60010         0.00009        -0.00000
        -0.05175        -0.02299         0.00232
        -0.05171         0.00955        -0.02111
        -0.05171         0.01357         0.01879

 GEOMETRY PRIORITY, STEP = 0.1000 ANGSTROMS



     POINT   POTENTIAL  +  ENERGY LOST   =   TOTAL      ERROR    REF%   MOVEMENT
       1    -126.29538      0.00000       -126.29538   0.00000     1   %  0.0000
       9    -126.59361      0.73867       -125.85495   0.45278     2   %  0.0566
      15    -127.39839      1.82792       -125.57048   0.73725     3   %  0.1003
      23    -130.81721      5.53502       -125.28218   1.02555     4   %  0.1952
      30    -136.04362     10.86761       -125.17601   1.13172     5   %  0.2860
      38    -144.14926     19.01456       -125.13470   1.17303     6   %  0.3967
      45    -152.08960     27.00636       -125.08324   1.22449     7   %  0.4950
      51    -160.06460     35.05495       -125.00965   1.29808     8   %  0.5961
      57    -166.92900     41.85069       -125.07832   1.22941     9   %  0.6963
      64    -171.54807     46.40096       -125.14711   1.16062    10   %  0.7958
      70    -173.52379     48.30296       -125.22083   1.08690    11   %  0.8943
      75    -174.24866     48.99813       -125.25052   1.05720    12   %  0.9628
      80    -174.64156     49.57288       -125.06868   1.23905    13   %  0.9995
      87    -174.97979     50.15949       -124.82031   1.48742    14   %  1.0296
      93    -175.31517     50.75243       -124.56274   1.74498    15   %  1.0604
      98    -175.58991     51.27671       -124.31320   1.99453    16   %  1.0822
     104    -175.89480     51.86104       -124.03377   2.27396    17   %  1.1128
     110    -176.18135     52.43497       -123.74638   2.56135    18   %  1.1431
     116    -176.45419     53.01642       -123.43777   2.86996    19   %  1.1729
     122    -176.73181     53.61900       -123.11281   3.19491    20   %  1.2074
     128    -176.93574     54.16529       -122.77046   3.53727    21   %  1.2308
     134    -177.15392     54.73404       -122.41987   3.88786    22   %  1.2588
     140    -177.34561     55.30448       -122.04113   4.26660    23   %  1.2864
     146    -177.53469     55.86606       -121.66863   4.63910    24   %  1.3128
     152    -177.71699     56.43161       -121.28537   5.02236    25   %  1.3390
     158    -177.91453     57.02753       -120.88700   5.42073    26   %  1.3691
     164    -178.04485     57.57840       -120.46645   5.84128    27   %  1.3894
     170    -178.12601     58.15813       -119.96788   6.33985    28   %  1.4142
     176    -178.26614     58.74685       -119.51929   6.78844    29   %  1.4384
     182    -178.39427     59.33172       -119.06255   7.24518    30   %  1.4698
     188    -178.51391     59.95334       -118.56057   7.74716    31   %  1.5084
     195    -178.67110     60.65175       -118.01934   8.28839    32   %  1.5552
     201    -178.78644     61.33466       -117.45178   8.85595    33   %  1.5931
     207    -178.90510     61.92891       -116.97620   9.33153    34   %  1.6288
     213    -179.00660     62.60856       -116.39804   9.90969    35   %  1.6653
     219    -179.08617     63.31806       -115.76810  10.53963    36   %  1.7012
     225    -179.17910     64.08728       -115.09182  11.21591    37   %  1.7378
     231    -179.26934     64.87982       -114.38952  11.91821    38   %  1.7743
     237    -179.30782     65.93390       -113.37392  12.93381    39   %  1.8143
     243    -179.42734     66.62711       -112.80022  13.50751    40   %  1.8460
     249    -179.51073     67.62145       -111.88928  14.41845    41   %  1.8820
     256    -179.53924     68.99666       -110.54258  15.76515    42   %  1.9249
     262    -179.65947     69.38985       -110.26962  16.03811    43   %  1.9529
     268    -179.69854     69.92509       -109.77346  16.53427    44   %  1.9759
     275    -179.74078     70.58431       -109.15646  17.15127    45   %  2.0021
     281    -179.77062     71.35694       -108.41368  17.89405    46   %  2.0286
     287    -179.81320     72.25517       -107.55803  18.74970    47   %  2.0575
     293    -179.85416     73.31806       -106.53610  19.77163    48   %  2.0880
     300    -179.95923     73.95420       -106.00503  20.30270    49   %  2.1173
     306    -179.97465     74.42870       -105.54594  20.76179    50   %  2.1355



 **********************
 *                    *
 * JOB ENDED NORMALLY *
 *                    *
 **********************



 TOTAL JOB TIME:             4.71 SECONDS

 == MOPAC DONE ==
