 *******************************************************************************
 ** Site#: 37037        For non-commercial use only           Version 21.138W **
 *******************************************************************************
 ** Cite this program as: MOPAC2016, Version: 21.138W, James J. P. Stewart,   **
 ** Stewart Computational Chemistry, web: HTTP://OpenMOPAC.net. Days left: 356**
 *******************************************************************************
 **                                                                           **
 **                                MOPAC2016                                  **
 **                                                                           **
 *******************************************************************************

                              PM7 CALCULATION RESULTS

 *******************************************************************************
 *  CALCULATION DONE:                                Thu May 27 13:38:51 2021  *
 *  OPT        - OPTIMIZE COORDINATES OF ALL ATOMS
 *  EPS=78.4   - USE ANDREAS KLAMT'S COSMO IMPLICIT SOLVATION MODEL
 *  LET        - OVERRIDE SOME SAFETY CHECKS
 *  XYZ        - CARTESIAN COORDINATE SYSTEM TO BE USED
 *  TS         - USE EF ROUTINE FOR TS SEARCH
 *  T=         - A TIME OF 172800.0 SECONDS REQUESTED
 *  DUMP=N     - RESTART FILE WRITTEN EVERY 7200.0 SECONDS REQUESTED
 *  DDMIN=     - MINIMUM TRUST RADIUS  0.000 ANG/RAD
 *  GNORM      - EXIT WHEN GRADIENT NORM DROPS BELOW 0.200
 *  RELSCF     - DEFAULT SCF CRITERION MULTIPLIED BY 0.1000
 *              (DEFAULT SCF CRITERION = 0.00010)
 *  HTML       - WRITE HTML SCRIPT TO READ PDB FILE USING JSMOL
 *******************************************************************************
 EPS=78.4 HTML  ts   xyz opt let ddmin=0 gnorm=0.2 relscf=0.1
 Locate the TS

   ATOM                 CHEMICAL                   X               Y               Z
  NUMBER                 SYMBOL               (ANGSTROMS)     (ANGSTROMS)     (ANGSTROMS)
 
     1       N(HETATM    1  N   HET A   1)    0.00000000  *   0.00000000  *   0.00000000  *
     2       O(HETATM    2  O   HET A   1)    1.15172841  *   0.00000000  *   0.00000000  *
     3       O(HETATM    3  O   HET A   1)   -1.03237429  *   0.50218492  *   0.00000000  *
     4       O(HETATM    4  O   HET A   1)   -0.38777031  *  -1.71789895  *   0.04259949  *
     5       H(HETATM    5 1H   HET A   1)    0.37959329  *  -2.18237650  *   0.40254241  *
     6       S(HETATM    6  S   HET A   1)    0.24302440  *  -3.99709175  *  -2.77664329  *
     7       O(HETATM    7  O   HET A   1)    1.59703710  *  -3.66337676  *  -1.94450837  *
     8       O(HETATM    8  O   HET A   1)    0.11172898  *  -5.43797504  *  -2.87593657  *
     9       O(HETATM    9  O   HET A   1)   -0.84573572  *  -3.39999542  *  -1.78535036  *
    10       O(HETATM   10  O   HET A   1)    0.25494645  *  -3.20099373  *  -3.99052035  *
    11       H(HETATM   11 2H   HET A   1)    2.20585000  *  -4.42226450  *  -1.75422975  *
    12       H(HETATM   12 3H   HET A   1)   -0.62260015  *  -2.60677766  *  -1.10257452  *
    13       S(HETATM   13  S   HET A   1)   -1.45621252  *  -4.34136128  *   2.13744272  *
    14       O(HETATM   14  O   HET A   1)    0.10788229  *  -3.89860300  *   2.09252165  *
    15       O(HETATM   15  O   HET A   1)   -1.86812880  *  -4.49590809  *   3.51936472  *
    16       O(HETATM   16  O   HET A   1)   -2.06867058  *  -2.97992683  *   1.54446254  *
    17       O(HETATM   17  O   HET A   1)   -1.66377015  *  -5.43824962  *   1.22049264  *
    18       H(HETATM   18 4H   HET A   1)    0.78756093  *  -4.57067154  *   2.34115477  *
    19       H(HETATM   19 5H   HET A   1)   -1.44090154  *  -2.39000290  *   0.94397650  *
 

 General Reference for PM7:
 "Optimization of Parameters for Semiempirical Methods VI: More Modifications to the 
 NDDO Approximations and Re-optimization of Parameters", J. J. P. Stewart, J. Mol. Mod., 1:32, 19 (2013)
 https://link.springer.com/article/10.1007/s00894-012-1667-x

           Empirical Formula: H5 N O11 S2  =    19 atoms



      MOLECULAR POINT GROUP   :   C1  


      RHF CALCULATION, NO. OF DOUBLY OCCUPIED LEVELS = 44


          Transition state refinement using EF
  SCF CRITERION =    0.1000E-07

          HESSIAN CALCULATED NUMERICALLY

 CYCLE:     1 TIME:   1.891 TIME LEFT:  2.00D  GRAD.:     8.012 HEAT: -430.1202
 CYCLE:     2 TIME:   0.047 TIME LEFT:  2.00D  GRAD.:     5.252 HEAT: -430.5856
 CYCLE:     3 TIME:   0.031 TIME LEFT:  2.00D  GRAD.:     5.034 HEAT: -431.1729
 CYCLE:     4 TIME:   0.031 TIME LEFT:  2.00D  GRAD.:     8.278 HEAT: -431.3557
 CYCLE:     5 TIME:   0.047 TIME LEFT:  2.00D  GRAD.:     4.454 HEAT: -431.7737
 CYCLE:     6 TIME:   0.047 TIME LEFT:  2.00D  GRAD.:    16.930 HEAT: -431.9443
 CYCLE:     7 TIME:   0.031 TIME LEFT:  2.00D  GRAD.:    14.599 HEAT: -432.0510
 CYCLE:     8 TIME:   0.031 TIME LEFT:  2.00D  GRAD.:    21.778 HEAT: -432.2097
 CYCLE:     9 TIME:   0.047 TIME LEFT:  2.00D  GRAD.:    18.742 HEAT: -432.5010
 CYCLE:    10 TIME:   0.031 TIME LEFT:  2.00D  GRAD.:    18.144 HEAT: -432.6994
 CYCLE:    11 TIME:   0.047 TIME LEFT:  2.00D  GRAD.:    19.881 HEAT: -432.7425
 CYCLE:    12 TIME:   0.031 TIME LEFT:  2.00D  GRAD.:     9.183 HEAT: -432.9773
 CYCLE:    13 TIME:   0.031 TIME LEFT:  2.00D  GRAD.:    10.120 HEAT: -432.9951
 CYCLE:    14 TIME:   0.047 TIME LEFT:  2.00D  GRAD.:     5.221 HEAT: -433.2556
 CYCLE:    15 TIME:   0.031 TIME LEFT:  2.00D  GRAD.:     3.909 HEAT: -433.2468
 CYCLE:    16 TIME:   0.031 TIME LEFT:  2.00D  GRAD.:     2.807 HEAT: -433.3127
 CYCLE:    17 TIME:   0.031 TIME LEFT:  2.00D  GRAD.:     2.669 HEAT: -433.3015
 CYCLE:    18 TIME:   0.031 TIME LEFT:  2.00D  GRAD.:     1.485 HEAT: -433.3577
 CYCLE:    19 TIME:   0.047 TIME LEFT:  2.00D  GRAD.:     1.168 HEAT: -433.3090
 CYCLE:    20 TIME:   0.031 TIME LEFT:  2.00D  GRAD.:     1.038 HEAT: -433.3120
 CYCLE:    21 TIME:   0.031 TIME LEFT:  2.00D  GRAD.:     1.043 HEAT: -433.3165
 CYCLE:    22 TIME:   0.031 TIME LEFT:  2.00D  GRAD.:     1.024 HEAT: -433.3208
 CYCLE:    23 TIME:   0.031 TIME LEFT:  2.00D  GRAD.:     1.102 HEAT: -433.3243
 CYCLE:    24 TIME:   0.031 TIME LEFT:  2.00D  GRAD.:     1.615 HEAT: -433.3356
 CYCLE:    25 TIME:   0.031 TIME LEFT:  2.00D  GRAD.:     1.306 HEAT: -433.3379
 CYCLE:    26 TIME:   0.031 TIME LEFT:  2.00D  GRAD.:     1.324 HEAT: -433.3169
 CYCLE:    27 TIME:   0.047 TIME LEFT:  2.00D  GRAD.:     1.124 HEAT: -433.3192
 CYCLE:    28 TIME:   0.031 TIME LEFT:  2.00D  GRAD.:     1.146 HEAT: -433.3225
 CYCLE:    29 TIME:   0.031 TIME LEFT:  2.00D  GRAD.:     1.713 HEAT: -433.3283
 CYCLE:    30 TIME:   0.031 TIME LEFT:  2.00D  GRAD.:     2.338 HEAT: -433.3253
 CYCLE:    31 TIME:   0.031 TIME LEFT:  2.00D  GRAD.:     1.211 HEAT: -433.3201
 CYCLE:    32 TIME:   0.031 TIME LEFT:  2.00D  GRAD.:     1.190 HEAT: -433.3219
 CYCLE:    33 TIME:   0.047 TIME LEFT:  2.00D  GRAD.:     1.207 HEAT: -433.3892
 CYCLE:    34 TIME:   0.031 TIME LEFT:  2.00D  GRAD.:     1.162 HEAT: -433.3308
 CYCLE:    35 TIME:   0.031 TIME LEFT:  2.00D  GRAD.:     0.963 HEAT: -433.3554
 CYCLE:    36 TIME:   0.031 TIME LEFT:  2.00D  GRAD.:     0.954 HEAT: -433.3560
 CYCLE:    37 TIME:   0.031 TIME LEFT:  2.00D  GRAD.:     0.956 HEAT: -433.3571
 CYCLE:    38 TIME:   0.031 TIME LEFT:  2.00D  GRAD.:     0.959 HEAT: -433.3423
 CYCLE:    39 TIME:   0.047 TIME LEFT:  2.00D  GRAD.:     0.956 HEAT: -433.3457
 CYCLE:    40 TIME:   0.031 TIME LEFT:  2.00D  GRAD.:     1.045 HEAT: -433.3484
 NUMERICAL PROBLEMS IN BRACKETING LAMDA  -3620453.40416620     
  -3620453404.16619       -3620453.40416982        3439594277.40417     
   3421091.68360704     
  GOING FOR FIXED STEP SIZE....
 CYCLE:    41 TIME:   0.031 TIME LEFT:  2.00D  GRAD.:     1.699 HEAT: -433.3947
 NUMERICAL PROBLEMS IN BRACKETING LAMDA  -651673483.054370     
  -651673483054.370       -651673483.055022        440455905163.054     
   651672724.871142     
  GOING FOR FIXED STEP SIZE....
 CYCLE:    42 TIME:   0.031 TIME LEFT:  2.00D  GRAD.:     1.801 HEAT: -433.3954
 CYCLE:    43 TIME:   0.031 TIME LEFT:  2.00D  GRAD.:     1.417 HEAT: -433.3969
 CYCLE:    44 TIME:   0.031 TIME LEFT:  2.00D  GRAD.:     1.384 HEAT: -433.3623
 CYCLE:    45 TIME:   0.031 TIME LEFT:  2.00D  GRAD.:     1.078 HEAT: -433.3587
 CYCLE:    45 TIME:   0.031 TIME LEFT:  2.00D  GRAD.:     1.288 HEAT: -433.3623
 CYCLE:    45 TIME:   0.031 TIME LEFT:  2.00D  GRAD.:     1.304 HEAT: -433.3623
 CYCLE:    45 TIME:   0.031 TIME LEFT:  2.00D  GRAD.:     1.320 HEAT: -433.3623
 CYCLE:    45 TIME:   0.031 TIME LEFT:  2.00D  GRAD.:     1.334 HEAT: -433.3623
 CYCLE:    45 TIME:   0.031 TIME LEFT:  2.00D  GRAD.:     1.346 HEAT: -433.3623
 CYCLE:    45 TIME:   0.031 TIME LEFT:  2.00D  GRAD.:     1.355 HEAT: -433.3623
 CYCLE:    45 TIME:   0.031 TIME LEFT:  2.00D  GRAD.:     1.362 HEAT: -433.3623
 NUMERICAL PROBLEMS IN BRACKETING LAMDA  -630.788263435485     
  -1000000.00000000       -630.788263436115       6.626672593289594E-013
  4.293261533029217E+017
  GOING FOR FIXED LEVEL SHIFTED NR STEP...
 CYCLE:    45 TIME:   0.031 TIME LEFT:  2.00D  GRAD.:     1.384 HEAT: -433.3623
 NUMERICAL PROBLEMS IN BRACKETING LAMDA  -338.527548411142     
  -1000000.00000000       -338.527548411480       1.509263633888248E-012
  6.390769212575636E+018
  GOING FOR FIXED LEVEL SHIFTED NR STEP...
 CYCLE:    46 TIME:   0.031 TIME LEFT:  2.00D  GRAD.:     1.384 HEAT: -433.3623
 NUMERICAL PROBLEMS IN BRACKETING LAMDA  -936905637958.070     
  -936905637958070.       -936905637959.007        902536440414278.     
   936905637958.614     
  GOING FOR FIXED STEP SIZE....
 CYCLE:    47 TIME:   0.031 TIME LEFT:  2.00D  GRAD.:     1.383 HEAT: -433.3623
 CALCULATION IS TERMINATED TO AVOID ZERO DIVIDE

          in FORMD
 *******************************************************************************
 ** Site#: 37037        For non-commercial use only           Version 21.138W **
 *******************************************************************************
 ** Cite this program as: MOPAC2016, Version: 21.138W, James J. P. Stewart,   **
 ** Stewart Computational Chemistry, web: HTTP://OpenMOPAC.net. Days left: 356**
 *******************************************************************************
 **                                                                           **
 **                                MOPAC2016                                  **
 **                                                                           **
 *******************************************************************************

                              PM7 CALCULATION RESULTS

 *******************************************************************************
 *  CALCULATION DONE:                                Thu May 27 13:38:55 2021  *
 *  EPS=78.4   - USE ANDREAS KLAMT'S COSMO IMPLICIT SOLVATION MODEL
 *  IRC=N      - INTRINSIC REACTION COORDINATE -1 DEFINED
 *  DRC        - DYNAMIC REACTION COORDINATE CALCULATION
 *  OLDGEO     - PREVIOUS GEOMETRY TO BE USED
 *  T=         - A TIME OF 172800.0 SECONDS REQUESTED
 *  DUMP=N     - RESTART FILE WRITTEN EVERY 7200.0 SECONDS REQUESTED
 *  CYCLES=    - DO A MAXIMUM OF 100 STEPS
 *  GNORM      - EXIT WHEN GRADIENT NORM DROPS BELOW 0.000
 *  HTML       - WRITE HTML SCRIPT TO GENERATE ANIMATION USING JSMOL
 *             - TO DISPLAY IN PDB FORMAT, ADD "PDBOUT"
 *  T-PRIOR    - TIME TAKES PRIORITY IN DRC
 *******************************************************************************
IRC=-1* DRC CYCLES=100 EPS=78.4 HTML T-priority=1 OLDGEO gnorm=0
 DRC for the reaction 2(H2SO4) + HNO3 <=> 2([HSO4](-)) + [H3O](+) + [NO2](+)

   ATOM                 CHEMICAL                   X               Y               Z
  NUMBER                 SYMBOL               (ANGSTROMS)     (ANGSTROMS)     (ANGSTROMS)
 
     1       N(HETATM    1  N   HET A   1)   -0.01877740  *  -0.22451847  *  -0.04359725  *
     2       O(HETATM    2  O   HET A   1)    1.10745149  *  -0.19768266  *   0.18608807  *
     3       O(HETATM    3  O   HET A   1)   -1.04866615  *   0.22517300  *  -0.28061657  *
     4       O(HETATM    4  O   HET A   1)   -0.39596920  *  -1.94328965  *   0.01755214  *
     5       H(HETATM    5 1H   HET A   1)    0.37715876  *  -2.47359567  *   0.27405733  *
     6       S(HETATM    6  S   HET A   1)    0.25299461  *  -3.87482264  *  -2.75478163  *
     7       O(HETATM    7  O   HET A   1)    1.37648383  *  -3.43141300  *  -1.66058964  *
     8       O(HETATM    8  O   HET A   1)    0.09354255  *  -5.31377043  *  -2.68644377  *
     9       O(HETATM    9  O   HET A   1)   -0.98644191  *  -3.11693609  *  -2.10939411  *
    10       O(HETATM   10  O   HET A   1)    0.57108792  *  -3.27125148  *  -4.03613496  *
    11       H(HETATM   11 2H   HET A   1)    2.11608364  *  -4.06145548  *  -1.48304328  *
    12       H(HETATM   12 3H   HET A   1)   -0.77900643  *  -2.55439661  *  -1.19451776  *
    13       S(HETATM   13  S   HET A   1)   -1.42419417  *  -4.30071249  *   2.18116155  *
    14       O(HETATM   14  O   HET A   1)    0.12734953  *  -3.98854038  *   1.79217204  *
    15       O(HETATM   15  O   HET A   1)   -1.55814293  *  -4.38358900  *   3.62297076  *
    16       O(HETATM   16  O   HET A   1)   -2.03675598  *  -2.91940252  *   1.65634240  *
    17       O(HETATM   17  O   HET A   1)   -1.88155234  *  -5.40592298  *   1.36646261  *
    18       H(HETATM   18 4H   HET A   1)    0.79165954  *  -4.71276414  *   1.87824088  *
    19       H(HETATM   19 5H   HET A   1)   -1.40907775  *  -2.38847261  *   0.96836811  *
 

 General Reference for PM7:
 "Optimization of Parameters for Semiempirical Methods VI: More Modifications to the 
 NDDO Approximations and Re-optimization of Parameters", J. J. P. Stewart, J. Mol. Mod., 1:32, 19 (2013)
 https://link.springer.com/article/10.1007/s00894-012-1667-x

           Empirical Formula: H5 N O11 S2  =    19 atoms



      MOLECULAR POINT GROUP   :   C1  


      RHF CALCULATION, NO. OF DOUBLY OCCUPIED LEVELS = 44



          HEAT OF FORMATION =    -433.255099 KCALS/MOLE


          GRADIENT NORM =   1.64259


          TIME FOR SCF CALCULATION =    0.03

          TIME FOR DERIVATIVES     =    0.03

          MOLECULAR WEIGHT =  259.16


          ESTIMATED TIME TO COMPLETE CALCULATION =        7.12 SECONDS

    FOR POINT-GROUP C1   THERE ARE   1 UNIQUE SYMMETRY FUNCTIONS.

 STEP:   1 TIME =     0.08 SECS, INTEGRAL =      0.08 TIME LEFT: 172799.86
 STEP:   2 TIME =     0.05 SECS, INTEGRAL =      0.12 TIME LEFT: 172799.81
 STEP:   3 TIME =     0.06 SECS, INTEGRAL =      0.19 TIME LEFT: 172799.75
 STEP:   4 TIME =     0.08 SECS, INTEGRAL =      0.27 TIME LEFT: 172799.67
 STEP:   5 TIME =     0.06 SECS, INTEGRAL =      0.33 TIME LEFT: 172799.61
 STEP:   6 TIME =     0.06 SECS, INTEGRAL =      0.39 TIME LEFT: 172799.55
 STEP:   7 TIME =     0.05 SECS, INTEGRAL =      0.44 TIME LEFT: 172799.50
 STEP:   8 TIME =     0.06 SECS, INTEGRAL =      0.50 TIME LEFT: 172799.44
 STEP:   9 TIME =     0.06 SECS, INTEGRAL =      0.56 TIME LEFT: 172799.38
 STEP:  10 TIME =     0.05 SECS, INTEGRAL =      0.61 TIME LEFT: 172799.33
 STEP:  11 TIME =     0.06 SECS, INTEGRAL =      0.67 TIME LEFT: 172799.27
 STEP:  12 TIME =     0.08 SECS, INTEGRAL =      0.75 TIME LEFT: 172799.19
 STEP:  13 TIME =     0.05 SECS, INTEGRAL =      0.80 TIME LEFT: 172799.14
 STEP:  14 TIME =     0.05 SECS, INTEGRAL =      0.84 TIME LEFT: 172799.09
 STEP:  15 TIME =     0.08 SECS, INTEGRAL =      0.92 TIME LEFT: 172799.02
 STEP:  16 TIME =     0.06 SECS, INTEGRAL =      0.98 TIME LEFT: 172798.95
 STEP:  17 TIME =     0.06 SECS, INTEGRAL =      1.05 TIME LEFT: 172798.89
 STEP:  18 TIME =     0.08 SECS, INTEGRAL =      1.12 TIME LEFT: 172798.81
 STEP:  19 TIME =     0.06 SECS, INTEGRAL =      1.19 TIME LEFT: 172798.75
 STEP:  20 TIME =     0.05 SECS, INTEGRAL =      1.23 TIME LEFT: 172798.70
 STEP:  21 TIME =     0.06 SECS, INTEGRAL =      1.30 TIME LEFT: 172798.64
 STEP:  22 TIME =     0.06 SECS, INTEGRAL =      1.36 TIME LEFT: 172798.58
 STEP:  23 TIME =     0.06 SECS, INTEGRAL =      1.42 TIME LEFT: 172798.52
 STEP:  24 TIME =     0.08 SECS, INTEGRAL =      1.50 TIME LEFT: 172798.44
 STEP:  25 TIME =     0.08 SECS, INTEGRAL =      1.58 TIME LEFT: 172798.36
 STEP:  26 TIME =     0.06 SECS, INTEGRAL =      1.64 TIME LEFT: 172798.30
 STEP:  27 TIME =     0.05 SECS, INTEGRAL =      1.69 TIME LEFT: 172798.25
 STEP:  28 TIME =     0.05 SECS, INTEGRAL =      1.73 TIME LEFT: 172798.20
 STEP:  29 TIME =     0.05 SECS, INTEGRAL =      1.78 TIME LEFT: 172798.16
 STEP:  30 TIME =     0.08 SECS, INTEGRAL =      1.86 TIME LEFT: 172798.08
 STEP:  31 TIME =     0.06 SECS, INTEGRAL =      1.92 TIME LEFT: 172798.02
 STEP:  32 TIME =     0.06 SECS, INTEGRAL =      1.98 TIME LEFT: 172797.95
 STEP:  33 TIME =     0.06 SECS, INTEGRAL =      2.05 TIME LEFT: 172797.89
 STEP:  34 TIME =     0.05 SECS, INTEGRAL =      2.09 TIME LEFT: 172797.84
 STEP:  35 TIME =     0.06 SECS, INTEGRAL =      2.16 TIME LEFT: 172797.78
 STEP:  36 TIME =     0.08 SECS, INTEGRAL =      2.23 TIME LEFT: 172797.70
 STEP:  37 TIME =     0.06 SECS, INTEGRAL =      2.30 TIME LEFT: 172797.64
 STEP:  38 TIME =     0.06 SECS, INTEGRAL =      2.36 TIME LEFT: 172797.58
 STEP:  39 TIME =     0.06 SECS, INTEGRAL =      2.42 TIME LEFT: 172797.52
 STEP:  40 TIME =     0.06 SECS, INTEGRAL =      2.48 TIME LEFT: 172797.45
 STEP:  41 TIME =     0.06 SECS, INTEGRAL =      2.55 TIME LEFT: 172797.39
 STEP:  42 TIME =     0.05 SECS, INTEGRAL =      2.59 TIME LEFT: 172797.34
 STEP:  43 TIME =     0.06 SECS, INTEGRAL =      2.66 TIME LEFT: 172797.28
 STEP:  44 TIME =     0.06 SECS, INTEGRAL =      2.72 TIME LEFT: 172797.22
 STEP:  45 TIME =     0.06 SECS, INTEGRAL =      2.78 TIME LEFT: 172797.16
 STEP:  46 TIME =     0.08 SECS, INTEGRAL =      2.86 TIME LEFT: 172797.08
 STEP:  47 TIME =     0.06 SECS, INTEGRAL =      2.92 TIME LEFT: 172797.02
 STEP:  48 TIME =     0.06 SECS, INTEGRAL =      2.98 TIME LEFT: 172796.95
 STEP:  49 TIME =     0.06 SECS, INTEGRAL =      3.05 TIME LEFT: 172796.89
 STEP:  50 TIME =     0.06 SECS, INTEGRAL =      3.11 TIME LEFT: 172796.83
 STEP:  51 TIME =     0.06 SECS, INTEGRAL =      3.17 TIME LEFT: 172796.77
 STEP:  52 TIME =     0.06 SECS, INTEGRAL =      3.23 TIME LEFT: 172796.70
 STEP:  53 TIME =     0.05 SECS, INTEGRAL =      3.28 TIME LEFT: 172796.66
 STEP:  54 TIME =     0.05 SECS, INTEGRAL =      3.33 TIME LEFT: 172796.61
 STEP:  55 TIME =     0.06 SECS, INTEGRAL =      3.39 TIME LEFT: 172796.55
 STEP:  56 TIME =     0.06 SECS, INTEGRAL =      3.45 TIME LEFT: 172796.48
 STEP:  57 TIME =     0.06 SECS, INTEGRAL =      3.52 TIME LEFT: 172796.42
           INITIAL VELOCITY IN DRC (Angstroms/Femtosecond)
         0.03692         0.18334        -0.00629
         0.00515        -0.01751        -0.00229
        -0.01508        -0.00855        -0.00092
        -0.03944        -0.12547        -0.00156
        -0.07146        -0.13354         0.01065
        -0.01301         0.00864         0.01150
         0.00920        -0.00201        -0.00276
         0.00333        -0.00155        -0.00376
         0.01696        -0.00325        -0.00079
         0.00301        -0.00144        -0.00270
        -0.01517        -0.02046         0.00854
         0.07930        -0.01156         0.15693
        -0.00782         0.01111        -0.00278
         0.00823        -0.00817         0.00512
         0.00198        -0.00437         0.00075
         0.01256        -0.00820        -0.00805
         0.00114        -0.00637         0.00295
        -0.01357        -0.02119        -0.00333
         0.05867        -0.02245        -0.14029
 THE VIBRATIONAL FREQUENCY (  -511.61CM(-1)) IS TOO SMALL
 FOR ONE QUANTUM TO BE USED
 INSTEAD 0.3KCAL/MOLE WILL BE USED TO START THE IRC

 TIME PRIORITY, INTERVAL = 1.00 FEMTOSECONDS



 FEMTOSECONDS  POINT  POTENTIAL + KINETIC  =   TOTAL     ERROR    REF%   MOVEMENT
     0.000       1  -433.25509    0.30000  -432.95509   0.00000     1   %  0.0000
     1.000       1  -433.25072    0.29285  -432.95787  -0.00278     2   %  0.0165
     2.000       1  -433.25232    0.29492  -432.95740  -0.00231     3   %  0.0332
     3.000       1  -433.25991    0.30622  -432.95369   0.00140     4   %  0.0499
     4.000       2  -433.27348    0.32676  -432.94672   0.00837     5   %  0.0667
     5.000       3  -433.30576    0.34909  -432.95667  -0.00158     6   %  0.0842
     6.000       3  -433.32839    0.38199  -432.94641   0.00868     7   %  0.1028
     7.000       4  -433.31887    0.43692  -432.88194   0.07315     8   %  0.1222
     8.000       4  -433.34473    0.47952  -432.86521   0.08988     9   %  0.1433
     9.000       5  -433.42313    0.47773  -432.94539   0.00970    10   %  0.1664
    10.000       5  -433.50262    0.52769  -432.97494  -0.01984    11   %  0.1904
    11.000       6  -433.56325    0.65786  -432.90539   0.04970    12   %  0.2145
    12.000       6  -433.66490    0.78280  -432.88210   0.07299    13   %  0.2414
    13.000       7  -433.81356    0.86761  -432.94595   0.00914    14   %  0.2714
    14.000       7  -433.99130    1.01700  -432.97430  -0.01921    15   %  0.3035
    15.000       8  -434.18288    1.24673  -432.93615   0.01895    16   %  0.3369
    16.000       8  -434.43403    1.50948  -432.92455   0.03054    17   %  0.3739
    17.000       9  -434.75581    1.78421  -432.97160  -0.01650    18   %  0.4142
    18.000       9  -435.11505    2.13399  -432.98106  -0.02596    19   %  0.4583
    19.000      10  -435.49170    2.57934  -432.91236   0.04274    20   %  0.5056
    20.000      10  -435.94599    3.05873  -432.88726   0.06784    21   %  0.5577
    21.000      11  -436.51028    3.55817  -432.95211   0.00299    22   %  0.6147
    22.000      11  -437.08746    4.11958  -432.96788  -0.01277    23   %  0.6759
    23.000      12  -437.67294    4.81066  -432.86228   0.09283    24   %  0.7415
    24.000      12  -438.28044    5.42827  -432.85218   0.10294    25   %  0.8111
    25.000      13  -439.11376    5.91318  -433.20058  -0.24546    26   %  0.8856
    26.000      13  -439.56150    6.44304  -433.11847  -0.16334    27   %  0.9628
    28.000      17  -439.67651    6.69382  -432.98269  -0.02756    28   %  1.1250
    29.000      18  -439.38286    6.50131  -432.88155   0.07359    29   %  1.2076
    30.000      21  -438.90327    5.89567  -433.00760  -0.05245    30   %  1.2907
    31.000      23  -437.98230    5.06787  -432.91442   0.04072    31   %  1.3733
    32.000      25  -437.14629    4.14149  -433.00481  -0.04966    32   %  1.4539
    33.000      27  -436.22123    3.37695  -432.84428   0.11087    33   %  1.5320
    34.000      29  -435.75443    2.70969  -433.04474  -0.08958    34   %  1.6065
    35.000      31  -435.55439    2.61589  -432.93850   0.01666    35   %  1.6764
    36.000      32  -435.85380    2.88284  -432.97095  -0.01580    36   %  1.7413
    37.000      34  -436.57787    3.60019  -432.97769  -0.02253    37   %  1.8001
    38.000      36  -437.52556    4.60219  -432.92337   0.03179    38   %  1.8534
    39.000      38  -438.25833    5.29669  -432.96164  -0.00647    39   %  1.9014
    40.000      41  -439.67192    6.66888  -433.00304  -0.04787    40   %  1.9432
    41.000      45  -440.23914    7.30165  -432.93749   0.01768    41   %  1.9824
    42.000      48  -440.65177    7.65842  -432.99334  -0.03816    42   %  2.0179
    43.000      51  -440.86589    7.86134  -433.00455  -0.04937    43   %  2.0508
    44.000      53  -440.72556    7.77120  -432.95436   0.00084    44   %  2.0821
    45.000      55  -440.41847    7.42961  -432.98886  -0.03366    45   %  2.1125
    46.000      57  -439.90107    6.93523  -432.96584  -0.01064    46   %  2.1424
    47.000      59  -439.29408    6.31806  -432.97602  -0.02082    47   %  2.1721
    48.000      60  -438.58008    5.60782  -432.97226  -0.01705    48   %  2.2016
    49.000      62  -438.04014    4.98409  -433.05605  -0.10084    49   %  2.2302
    50.000      64  -437.37946    4.35387  -433.02558  -0.07037    50   %  2.2579
    51.000      65  -436.71975    3.76231  -432.95744  -0.00222    51   %  2.2840
    52.000      66  -436.14380    3.23287  -432.91093   0.04430    52   %  2.3081
    53.000      67  -435.69258    2.84844  -432.84414   0.11108    53   %  2.3298
    54.000      69  -435.60206    2.64488  -432.95718  -0.00195    54   %  2.3493
    55.000      70  -435.77886    2.81074  -432.96812  -0.01289    55   %  2.3670
    56.000      71  -436.13640    3.21352  -432.92288   0.03235    56   %  2.3847
    57.000      72  -436.72943    3.73374  -432.99568  -0.04045    57   %  2.4038
    58.000      73  -437.44424    4.45604  -432.98820  -0.03296    58   %  2.4254
    59.000      74  -438.02691    5.17734  -432.84956   0.10568    59   %  2.4509
    60.000      76  -438.59001    5.73619  -432.85382   0.10143    60   %  2.4807
    61.000      78  -439.14742    6.12758  -433.01984  -0.06459    61   %  2.5151
    62.000      80  -439.41006    6.60654  -432.80351   0.15174    62   %  2.5540
    63.000      81  -439.32930    6.61492  -432.71439   0.24087    63   %  2.5971
    64.000      83  -439.41336    6.48437  -432.92900   0.02626    64   %  2.6427
    65.000      84  -439.58664    6.44068  -433.14596  -0.19069    65   %  2.6902
    66.000      86  -439.19463    6.40095  -432.79368   0.16159    66   %  2.7389
    67.000      88  -438.90918    5.92691  -432.98227  -0.02699    67   %  2.7871
    68.000      90  -438.44753    5.47001  -432.97751  -0.02224    68   %  2.8331
    69.000      92  -437.90191    4.88281  -433.01911  -0.06383    69   %  2.8763
    70.000      94  -437.10645    4.22290  -432.88355   0.07174    70   %  2.9157
    71.000      97  -436.43906    3.41457  -433.02449  -0.06920    71   %  2.9505
    72.000      99  -435.75769    2.85463  -432.90307   0.05222    72   %  2.9803
    73.000     100  -435.38857    2.43576  -432.95280   0.00249    73   %  3.0049
    74.000     102  -435.43559    2.39858  -433.03701  -0.08172    74   %  3.0240
    75.000     104  -435.84475    2.88417  -432.96058  -0.00528    75   %  3.0376
    76.000     105  -436.47767    3.54715  -432.93052   0.02477    76   %  3.0463
    77.000     107  -437.31976    4.36309  -432.95667  -0.00137    77   %  3.0501
    78.000     109  -438.48373    5.41770  -433.06603  -0.11073    78   %  3.0497
    79.000     111  -438.97962    6.02930  -432.95032   0.00499    79   %  3.0459
    80.000     114  -439.39825    6.46586  -432.93239   0.02293    80   %  3.0395
    81.000     116  -439.54897    6.56932  -432.97966  -0.02434    81   %  3.0311
    82.000     118  -439.55021    6.62057  -432.92964   0.02568    82   %  3.0214
    83.000     119  -439.21957    6.42042  -432.79915   0.15617    83   %  3.0111
    84.000     121  -439.20522    6.01222  -433.19300  -0.23767    84   %  3.0006
    85.000     123  -438.79018    5.79730  -432.99288  -0.03754    85   %  2.9897
    86.000     124  -438.44094    5.30251  -433.13843  -0.18310    86   %  2.9783
    87.000     125  -437.90994    4.96759  -432.94236   0.01298    87   %  2.9667
    88.000     127  -437.42948    4.45451  -432.97497  -0.01963    88   %  2.9554
    89.000     128  -437.02808    4.06550  -432.96258  -0.00723    89   %  2.9459
    90.000     129  -436.69582    3.73250  -432.96332  -0.00797    90   %  2.9400
    91.000     130  -436.43235    3.48730  -432.94505   0.01030    91   %  2.9396
    92.000     131  -436.30440    3.32554  -432.97886  -0.02350    92   %  2.9455
    93.000     132  -436.15428    3.32435  -432.82993   0.12543    93   %  2.9574
    94.000     133  -436.25757    3.31878  -432.93878   0.01657    94   %  2.9736
    95.000     134  -436.51244    3.55722  -432.95523   0.00013    95   %  2.9919
    96.000     135  -436.81312    3.94486  -432.86826   0.08711    96   %  3.0109
    97.000     136  -437.24470    4.33791  -432.90678   0.04859    97   %  3.0296
    98.000     137  -437.90330    4.81381  -433.08949  -0.13412    98   %  3.0471
    99.000     138  -438.68671    5.54418  -433.14253  -0.18716    99   %  3.0636
   100.000     139  -439.18748    6.37774  -432.80974   0.14564   100   %  3.0800


           INITIAL VELOCITY IN DRC (Angstroms/Femtosecond)
        -0.03692        -0.18334         0.00629
        -0.00515         0.01751         0.00229
         0.01508         0.00855         0.00092
         0.03944         0.12547         0.00156
         0.07146         0.13354        -0.01065
         0.01301        -0.00864        -0.01150
        -0.00920         0.00201         0.00276
        -0.00333         0.00155         0.00376
        -0.01696         0.00325         0.00079
        -0.00301         0.00144         0.00270
         0.01517         0.02046        -0.00854
        -0.07930         0.01156        -0.15693
         0.00782        -0.01111         0.00278
        -0.00823         0.00817        -0.00512
        -0.00198         0.00437        -0.00075
        -0.01256         0.00820         0.00805
        -0.00114         0.00637        -0.00295
         0.01357         0.02119         0.00333
        -0.05867         0.02245         0.14029
 THE VIBRATIONAL FREQUENCY (  -511.61CM(-1)) IS TOO SMALL
 FOR ONE QUANTUM TO BE USED
 INSTEAD 0.3KCAL/MOLE WILL BE USED TO START THE IRC

 TIME PRIORITY, INTERVAL = 1.00 FEMTOSECONDS



 FEMTOSECONDS  POINT  POTENTIAL + KINETIC  =   TOTAL     ERROR    REF%   MOVEMENT
     0.000       1  -433.25510    0.30000  -432.95510   0.00000     1   %  0.0000
     1.000       1  -433.30321    0.28894  -433.01427  -0.05917     2   %  0.0168
     2.000       1  -433.32341    0.30559  -433.01782  -0.06272     3   %  0.0341
     3.000       1  -433.31570    0.34996  -432.96574  -0.01064     4   %  0.0518
     4.000       2  -433.28008    0.42204  -432.85803   0.09706     5   %  0.0700
     5.000       3  -433.32074    0.38755  -432.93319   0.02191     6   %  0.0921
     6.000       3  -433.37182    0.39518  -432.97663  -0.02153     7   %  0.1133
     7.000       4  -433.43945    0.46080  -432.97865  -0.02355     8   %  0.1331
     8.000       4  -433.50521    0.53685  -432.96836  -0.01326     9   %  0.1536
     9.000       5  -433.55654    0.63196  -432.92457   0.03053    10   %  0.1746
    10.000       5  -433.63115    0.72028  -432.91087   0.04424    11   %  0.1968
    11.000       6  -433.73423    0.77797  -432.95626  -0.00116    12   %  0.2207
    12.000       6  -433.85022    0.87653  -432.97369  -0.01859    13   %  0.2451
    13.000       7  -433.95631    1.03892  -432.91739   0.03772    14   %  0.2693
    14.000       7  -434.12092    1.19624  -432.92467   0.03043    15   %  0.2955
    15.000       8  -434.37877    1.30699  -433.07178  -0.11667    16   %  0.3238
    16.000       8  -434.62569    1.49566  -433.13002  -0.17492    17   %  0.3544
    17.000       9  -434.82857    1.80294  -433.02563  -0.07052    18   %  0.3866
    18.000       9  -435.08674    2.10682  -432.97992  -0.02481    19   %  0.4226
    19.000      10  -435.46533    2.40350  -433.06183  -0.10672    20   %  0.4618
    20.000      10  -435.76892    2.70439  -433.06453  -0.10942    21   %  0.5053
    22.000      12  -436.14781    3.27409  -432.87372   0.08140    22   %  0.6053
    23.000      13  -436.33203    3.39546  -432.93656   0.01856    23   %  0.6602
    24.000      14  -436.58243    3.61380  -432.96863  -0.01350    24   %  0.7150
    25.000      15  -436.76983    3.88614  -432.88369   0.07143    25   %  0.7692
    26.000      15  -436.92683    3.99982  -432.92701   0.02812    26   %  0.8231
    27.000      16  -436.95813    4.04065  -432.91748   0.03766    27   %  0.8752
    28.000      17  -436.97998    4.01893  -432.96105  -0.00592    28   %  0.9249
    29.000      19  -437.46008    4.06061  -433.39947  -0.44433    29   %  0.9715
    30.000      19  -437.48041    4.61735  -432.86306   0.09208    30   %  1.0155
    31.000      29  -436.05487    2.55665  -433.49822  -0.54308    31   %  1.0590
    32.000      38  -437.16237    4.22543  -432.93693   0.01821    32   %  1.1020
    33.000      45  -437.06470    4.10118  -432.96352  -0.00837    33   %  1.1470
    34.000      50  -436.95086    3.96711  -432.98375  -0.02860    34   %  1.1939
    35.000      54  -437.04698    4.11844  -432.92853   0.02662    35   %  1.2422
    36.000      58  -437.79287    4.81831  -432.97456  -0.01940    36   %  1.2921
    37.000      61  -437.53096    4.54878  -432.98218  -0.02702    37   %  1.3412
    38.000      63  -437.16864    4.19873  -432.96990  -0.01474    38   %  1.3844
    39.000      66  -435.86805    3.86050  -432.00755   0.94762    39   %  1.4209
    40.000      68  -435.94600    3.00414  -432.94185   0.01331    40   %  1.4499
    41.000      69  -435.75474    2.67895  -433.07579  -0.12062    41   %  1.4760
    42.000      71  -435.24581    2.47500  -432.77081   0.18436    42   %  1.5034
    43.000      73  -434.97019    2.02412  -432.94607   0.00910    43   %  1.5338
    44.000      74  -434.88851    1.92905  -432.95946  -0.00428    44   %  1.5662
    45.000      76  -434.90368    1.96973  -432.93396   0.02122    45   %  1.6011
    46.000      77  -434.97196    2.01128  -432.96068  -0.00550    46   %  1.6376
    47.000      79  -434.92186    1.98577  -432.93609   0.01909    47   %  1.6731
    48.000      80  -434.93528    1.94053  -432.99475  -0.03957    48   %  1.7044
    49.000      81  -435.09229    2.13119  -432.96110  -0.00591    49   %  1.7287
    50.000      83  -435.38647    2.44724  -432.93922   0.01596    50   %  1.7464
    51.000      84  -435.73217    2.78612  -432.94605   0.00913    51   %  1.7603
    52.000      86  -435.93365    2.99722  -432.93642   0.01876    52   %  1.7739
    53.000      87  -436.04351    3.07989  -432.96361  -0.00842    53   %  1.7899
    54.000      89  -436.23657    3.28761  -432.94897   0.00623    54   %  1.8083
    55.000      91  -436.42209    3.55489  -432.86720   0.08800    55   %  1.8286
    56.000      92  -436.53167    3.86435  -432.66732   0.28788    56   %  1.8508
    57.000      93  -436.71027    3.73470  -432.97557  -0.02037    57   %  1.8753
    58.000      96  -436.67071    3.71676  -432.95395   0.00125    58   %  1.9001
    59.000     106  -435.69021    2.46331  -433.22690  -0.27169    59   %  1.9242
    60.000     116  -436.85389    4.16950  -432.68439   0.27082    60   %  1.9483
    61.000     125  -437.05514    4.09876  -432.95638  -0.00117    61   %  1.9701
    62.000     131  -437.16159    4.21739  -432.94420   0.01101    62   %  1.9887
    63.000     136  -437.22929    4.29078  -432.93851   0.01671    63   %  2.0056
    64.000     140  -437.27763    4.22961  -433.04802  -0.09280    64   %  2.0222
    65.000     143  -437.09295    4.13685  -432.95610  -0.00088    65   %  2.0400
    66.000     146  -437.12499    4.13428  -432.99071  -0.03549    66   %  2.0591
    67.000     148  -436.91840    4.02923  -432.88918   0.06605    67   %  2.0797
    68.000     150  -436.79377    3.85347  -432.94030   0.01493    68   %  2.1009
    69.000     152  -436.73946    3.75292  -432.98655  -0.03131    69   %  2.1225
    70.000     154  -436.58937    3.64528  -432.94409   0.01115    70   %  2.1443
    71.000     156  -436.48202    3.51972  -432.96231  -0.00707    71   %  2.1658
    72.000     157  -436.31563    3.30623  -433.00941  -0.05417    72   %  2.1861
    73.000     159  -435.20501    2.93070  -432.27431   0.68093    73   %  2.2036
    74.000     160  -435.11671    2.12551  -432.99121  -0.03597    74   %  2.2158
    75.000     161  -435.06182    2.11849  -432.94333   0.01191    75   %  2.2218
    76.000     162  -435.12950    2.18211  -432.94739   0.00785    76   %  2.2234
    77.000     163  -435.30032    2.33343  -432.96688  -0.01164    77   %  2.2225
    78.000     165  -435.32281    2.51283  -432.80998   0.14527    78   %  2.2216
    79.000     166  -435.50127    2.51129  -432.98998  -0.03472    79   %  2.2230
    80.000     167  -435.71693    2.72614  -432.99080  -0.03554    80   %  2.2278
    81.000     168  -436.45338    2.92486  -433.52853  -0.57327    81   %  2.2352
    82.000     169  -436.95938    3.84716  -433.11222  -0.15697    82   %  2.2437
    83.000     170  -437.34014    4.35256  -432.98758  -0.03232    83   %  2.2530
    84.000     171  -437.19526    4.68893  -432.50633   0.44893    84   %  2.2619
    85.000     172  -437.07522    4.61670  -432.45852   0.49675    85   %  2.2686
    86.000     173  -437.33264    4.41939  -432.91325   0.04202    86   %  2.2721
    87.000     174  -437.57952    4.62589  -432.95362   0.00165    87   %  2.2730
    88.000     175  -437.74651    4.78249  -432.96402  -0.00875    88   %  2.2755
    89.000     176  -437.82652    4.86698  -432.95954  -0.00426    89   %  2.2838
    90.000     178  -437.92445    4.90766  -433.01680  -0.06151    90   %  2.2975
    91.000     179  -438.06113    5.02022  -433.04091  -0.08563    91   %  2.3142
    92.000     180  -438.09571    5.03270  -433.06301  -0.10772    92   %  2.3330
    93.000     184  -437.90491    4.95525  -432.94966   0.00563    93   %  2.3543
    94.000     194  -437.54136    4.57153  -432.96983  -0.01454    94   %  2.3794
    95.000     204  -437.74338    4.78965  -432.95373   0.00157    95   %  2.4093
    96.000     213  -437.93883    4.74547  -433.19336  -0.23806    96   %  2.4415
    97.000     219  -437.89643    4.91592  -432.98052  -0.02521    97   %  2.4734
    98.000     224  -437.56300    4.59770  -432.96529  -0.00998    98   %  2.5031
    99.000     228  -437.45766    4.46359  -432.99407  -0.03876    99   %  2.5307
   100.000     231  -437.30220    4.32947  -432.97273  -0.01741   100   %  2.5568



 ******************************************************************************
 *                                                                            *
 *     Error and normal termination messages reported in this calculation     *
 *                                                                            *
 * in FORMD                                                                   *
 * JOB ENDED NORMALLY                                                         *
 *                                                                            *
 ******************************************************************************



 TOTAL JOB TIME:            24.45 SECONDS

 == MOPAC DONE ==
