 *******************************************************************************
 ** Site#: 37037        For non-commercial use only           Version 21.138W **
 *******************************************************************************
 ** Cite this program as: MOPAC2016, Version: 21.138W, James J. P. Stewart,   **
 ** Stewart Computational Chemistry, web: HTTP://OpenMOPAC.net. Days left: 356**
 *******************************************************************************
 **                                                                           **
 **                                MOPAC2016                                  **
 **                                                                           **
 *******************************************************************************

                              PM7 CALCULATION RESULTS

 *******************************************************************************
 *  CALCULATION DONE:                                Thu May 27 13:14:25 2021  *
 *  GEO-OK     - OVERRIDE INTERATOMIC DISTANCE AND OTHER SAFETY CHECKS
 *  GEO_DAT    - DATA SET GEOMETRY IS IN FILE "Locate-ts_30p0_second.mop"
 *  GEO_REF    - REFERENCE GEOMETRY IS IN FILE "Locate-ts_30p0_first.mop"
 *               (NO BIAS TOWARDS THE REFERENCE GEOMETRY WILL BE APPLIED)
 *  EPS=78.4   - USE ANDREAS KLAMT'S COSMO IMPLICIT SOLVATION MODEL
 *  SADDLE     - TRANSITION STATE TO BE OPTIMIZED
 *  T=         - A TIME OF 172800.0 SECONDS REQUESTED
 *  DUMP=N     - RESTART FILE WRITTEN EVERY 7200.0 SECONDS REQUESTED
 *  HTML       - WRITE HTML SCRIPT TO READ PDB FILE USING JSMOL
 *******************************************************************************
GEO_dat="Locate-ts_30p0_second.mop" GEO_REF="Locate-ts_30p0_first.mop" Saddle EPS=78.4 HTML GEO-OK
 Locate the TS

   ATOM                 CHEMICAL                   X               Y               Z
  NUMBER                 SYMBOL               (ANGSTROMS)     (ANGSTROMS)     (ANGSTROMS)
 
     1       N(HETATM    1  N   HET A   1)   -0.62281496  *   1.79118324  *  -0.18507318  *
     2       O(HETATM    2  O   HET A   1)    0.09729012  *   0.92816118  *  -0.26842048  *
     3       O(HETATM    3  O   HET A   1)   -1.30225475  *   2.69182755  *  -0.10744181  *
     4       O(HETATM    4  O   HET A   1)   -1.90777848  *   0.05839209  *  -0.44556013  *
     5       H(HETATM    5 1H   HET A   1)   -1.45632105  *  -0.79997003  *  -0.35385028  *
     6       S(HETATM    6  S   HET A   1)   -1.26863551  *  -2.46756360  *  -2.94825368  *
     7       O(HETATM    7  O   HET A   1)    0.14922771  *  -2.79571654  *  -2.15738191  *
     8       O(HETATM    8  O   HET A   1)   -1.90277347  *  -3.76672357  *  -3.16946376  *
     9       O(HETATM    9  O   HET A   1)   -2.00889581  *  -1.61073587  *  -2.00733632  *
    10       O(HETATM   10  O   HET A   1)   -0.92218313  *  -1.73079966  *  -4.16899826  *
    11       H(HETATM   11 2H   HET A   1)    0.40040883  *  -3.73960189  *  -2.08813893  *
    12       H(HETATM   12 3H   HET A   1)   -2.15863018  *  -0.05668356  *  -1.49917956  *
    13       S(HETATM   13  S   HET A   1)   -3.84560788  *  -2.23308400  *   1.69639433  *
    14       O(HETATM   14  O   HET A   1)   -2.34121687  *  -2.32935676  *   2.31481644  *
    15       O(HETATM   15  O   HET A   1)   -4.92175077  *  -2.14437489  *   2.64949290  *
    16       O(HETATM   16  O   HET A   1)   -3.85833354  *  -0.70103352  *   1.15708810  *
    17       O(HETATM   17  O   HET A   1)   -3.87222414  *  -3.28707693  *   0.72300086  *
    18       H(HETATM   18 4H   HET A   1)   -2.08379595  *  -3.18368499  *   2.75821145  *
    19       H(HETATM   19 5H   HET A   1)   -3.17425670  *  -0.32256673  *   0.62227444  *
 

                        After docking

                     Atoms that move a lot

                     Atom Label             GEO_REF Coordinates       Movement    Integral

            (HETATM    8  O   HET A   1)  -2.395  -3.245  -2.524        0.96         0.96
            (HETATM   17  O   HET A   1)  -3.865  -2.567   0.284        0.87         1.83
            (HETATM    9  O   HET A   1)  -1.434  -1.048  -2.182        0.83         2.67
            (HETATM   19 5H   HET A   1)  -3.927  -0.129   0.906        0.83         3.50
            (HETATM   10  O   HET A   1)  -0.943  -2.461  -4.336        0.77         4.26
            (HETATM   12 3H   HET A   1)  -2.225  -0.440  -2.125        0.74         5.00
            (HETATM   15  O   HET A   1)  -4.730  -2.807   2.563        0.65         5.66
            (HETATM   16  O   HET A   1)  -3.509  -0.633   1.621        0.56         6.21
            (HETATM    1  N   HET A   1)  -0.939   1.415  -0.210        0.48         6.70
            (HETATM    2  O   HET A   1)   0.262   1.318  -0.213        0.42         7.12
            (HETATM    3  O   HET A   1)  -1.613   2.419  -0.197        0.40         7.52
            (HETATM    5 1H   HET A   1)  -1.166  -0.598  -0.230        0.38         7.89
            (HETATM    4  O   HET A   1)  -1.717   0.259  -0.229        0.36         8.25
            (HETATM   18 4H   HET A   1)  -2.018  -3.366   2.561        0.26         8.51
            (HETATM    7  O   HET A   1)   0.087  -2.857  -2.095        0.14         8.65
            (HETATM   14  O   HET A   1)  -2.283  -2.452   2.351        0.12         8.77

     Residues that move a lot and their (Movement in Angstroms, per atom)


   Difference between GEO_DAT and GEO_REF: 8.984 = total,  0.4728 = Average,  0.5570 = RMS, in Angstroms

 General Reference for PM7:
 "Optimization of Parameters for Semiempirical Methods VI: More Modifications to the 
 NDDO Approximations and Re-optimization of Parameters", J. J. P. Stewart, J. Mol. Mod., 1:32, 19 (2013)
 https://link.springer.com/article/10.1007/s00894-012-1667-x

           Empirical Formula: H5 N O11 S2  =    19 atoms



      MOLECULAR POINT GROUP   :   C1  


      RHF CALCULATION, NO. OF DOUBLY OCCUPIED LEVELS = 44



  CARTESIAN GEOMETRY OF FIRST SYSTEM


   1    N          1.00849       2.76757       0.18379
   2    O          2.20930       2.67060       0.18046
   3    O          0.33454       3.77198       0.19620
   4    O          0.23005       1.61111       0.16408
   5    H          0.78121       0.75412       0.16402
   6    S          0.69255      -1.12791      -2.53732
   7    O          2.03420      -1.50432      -1.70162
   8    O         -0.44728      -1.89213      -2.13011
   9    O          0.51346       0.30417      -1.78805
  10    O          1.00439      -1.10811      -3.94268
  11    H          2.35904      -2.42935      -1.76894
  12    H         -0.27744       0.91303      -1.73111
  13    S         -1.79536      -0.89263       2.06466
  14    O         -0.33573      -1.09904       2.74410
  15    O         -2.78217      -1.45470       2.95639
  16    O         -1.56119       0.71964       2.01470
  17    O         -1.91763      -1.21413       0.67718
  18    H         -0.07034      -2.01304       2.95438
  19    H         -1.98009       1.22315       1.29988


  CARTESIAN GEOMETRY OF SECOND SYSTEM


   1    N         -0.65313       1.80435      -0.19379
   2    O          0.07477       0.94921      -0.28971
   3    O         -1.34085       2.69755      -0.10404
   4    O         -1.92332       0.05887      -0.44180
   5    H         -1.46165      -0.79495      -0.35895
   6    S         -1.29239      -2.45292      -2.96077
   7    O          0.13965      -2.76841      -2.19056
   8    O         -1.91585      -3.75805      -3.17717
   9    O         -2.02851      -1.60668      -2.00711
  10    O         -0.97061      -1.70901      -4.18393
  11    H          0.40166      -3.70980      -2.12767
  12    H         -2.18750      -0.05578      -1.49220
  13    S         -3.80716      -2.25911       1.71971
  14    O         -2.29342      -2.34132       2.31700
  15    O         -4.87088      -2.18452       2.68784
  16    O         -3.84343      -0.72572       1.18530
  17    O         -3.83617      -3.31050       0.74356
  18    H         -2.02094      -3.19417       2.75419
  19    H         -3.17083      -0.33851       0.64225


   "DISTANCE":    10.754284


  REACTION COORDINATE VECTOR


   1    N          1.66162       0.96322       0.37758
   2    O          2.13453       1.72139       0.47016
   3    O          1.67539       1.07443       0.30024
   4    O          2.15336       1.55223       0.60588
   5    H          2.24286       1.54907       0.52297
   6    S          1.98494       1.32501       0.42345
   7    O          1.89455       1.26409       0.48894
   8    O          1.46857       1.86592       1.04706
   9    O          2.54197       1.91086       0.21906
  10    O          1.97500       0.60089       0.24125
  11    H          1.95737       1.28045       0.35873
  12    H          1.91007       0.96881      -0.23891
  13    S          2.01179       1.36648       0.34495
  14    O          1.95770       1.24228       0.42710
  15    O          2.08871       0.72982       0.26855
  16    O          2.28223       1.44536       0.82939
  17    O          1.91855       2.09636      -0.06638
  18    H          1.95060       1.18114       0.20019
  19    H          1.19074       1.56166       0.65762
 *+*+*+*+*+*+*+*+*+*+*+*+*+*+*+*+*+*+*+*+*+*+*+*+*+*+*+*+*+*+*+*+*+*+*+*+*+*+*+*+
            BAR SHORTENED BY       0.000 PERCENT
 GRADIENT CRITERION IN FLEPO =     1.000
 

                    SINCE COS WAS JUST RESET,THE SEARCH IS BEING ENDED


          FOR POINT    1 SECOND STRUCTURE
 DISTANCE A - B     10.754284
 HEAT             -434.658743
 GRADIENT NORM      10.970962
 DIRECTION COSINE   -0.000001
 EPS=78.4 HTML GEO-OK
 Locate the TS

  N(HETATM    1  N   HET A   1)   0.00000000 +1    0.0000000 +1    0.0000000 +1
  O(HETATM    2  O   HET A   1)   1.21181284 +1    0.0000000 +1    0.0000000 +1     1     0     0
  O(HETATM    3  O   HET A   1)   1.20784297 +1  128.7490673 +1    0.0000000 +1     1     2     0
  O(HETATM    4  O   HET A   1)   1.37279992 +1  117.5952746 +1 -179.2089437 +1     1     2     3
  H(HETATM    5 1H   HET A   1)   1.02534951 +1  109.0029571 +1  -13.5795017 +1     4     1     2
  S(HETATM    6  S   HET A   1)   3.26487851 +1  127.5204027 +1 -108.5872087 +1     5     4     1
  O(HETATM    7  O   HET A   1)   1.62062650 +1   73.3891812 +1  170.2598213 +1     6     5     4
  O(HETATM    8  O   HET A   1)   1.43543555 +1   98.6037433 +1  -80.0291886 +1     6     5     4
  O(HETATM    9  O   HET A   1)   1.63003479 +1   30.2820082 +1   35.7661804 +1     6     5     4
  O(HETATM   10  O   HET A   1)   1.44772656 +1  135.3528065 +1   68.3819018 +1     6     5     4
  H(HETATM   11 2H   HET A   1)   0.98681292 +1  117.3433057 +1  150.9324589 +1     7     6     5
  H(HETATM   12 3H   HET A   1)   0.99479932 +1  115.0143384 +1 -125.9104986 +1     9     6     5
  S(HETATM   13  S   HET A   1)   3.62180428 +1   82.0170858 +1  158.1065587 +1     5     4     1
  O(HETATM   14  O   HET A   1)   1.62290287 +1   68.1468699 +1 -125.3175137 +1    13     5     4
  O(HETATM   15  O   HET A   1)   1.44785741 +1  167.7752844 +1  -49.1627014 +1    13     5     4
  O(HETATM   16  O   HET A   1)   1.63041558 +1   61.6908007 +1  -13.7192434 +1    13     5     4
  O(HETATM   17  O   HET A   1)   1.43299297 +1   69.5831266 +1  111.4732388 +1    13     5     4
  H(HETATM   18 4H   HET A   1)   0.98964312 +1  116.9278428 +1 -138.6400215 +1    14    13     5
  H(HETATM   19 5H   HET A   1)   0.98351821 +1  116.2365432 +1   71.7426727 +1    16    13     5
 
 TIME=     0.97
  REACTANTS AND PRODUCTS SWAPPED AROUND
 *+*+*+*+*+*+*+*+*+*+*+*+*+*+*+*+*+*+*+*+*+*+*+*+*+*+*+*+*+*+*+*+*+*+*+*+*+*+*+*+
            BAR SHORTENED BY       1.000 PERCENT
 GRADIENT CRITERION IN FLEPO =     7.971


          FOR POINT    2 FIRST  STRUCTURE
 DISTANCE A - B     10.646741
 HEAT             -434.431751
 GRADIENT NORM      15.431560
 DIRECTION COSINE   -0.201503
 EPS=78.4 HTML GEO-OK
 Locate the TS

  N(HETATM    1  N   HET A   1)   0.00000000 +1    0.0000000 +1    0.0000000 +1
  O(HETATM    2  O   HET A   1)   1.13200803 +1    0.0000000 +1    0.0000000 +1     1     0     0
  O(HETATM    3  O   HET A   1)   1.13072491 +1  179.5589442 +1    0.0000000 +1     1     2     0
  O(HETATM    4  O   HET A   1)   2.31918339 +1   87.8555838 +1  154.4110505 +1     1     2     3
  H(HETATM    5 1H   HET A   1)   0.99546123 +1  110.8775584 +1   -3.0968428 +1     4     1     2
  S(HETATM    6  S   HET A   1)   3.11071631 +1  125.2859577 +1 -113.8255844 +1     5     4     1
  O(HETATM    7  O   HET A   1)   1.66731665 +1   75.4447118 +1  151.0686760 +1     6     5     4
  O(HETATM    8  O   HET A   1)   1.47943091 +1  130.8092368 +1 -112.4556698 +1     6     5     4
  O(HETATM    9  O   HET A   1)   1.47198765 +1   29.2128938 +1  -44.7336368 +1     6     5     4
  O(HETATM   10  O   HET A   1)   1.48087385 +1  112.7216984 +1   51.1403947 +1     6     5     4
  H(HETATM   11 2H   HET A   1)   0.97280824 +1  115.4122668 +1  130.2542374 +1     7     6     5
  H(HETATM   12 3H   HET A   1)   0.99861556 +1  113.9024286 +1 -113.8404231 +1     4     1     2
  S(HETATM   13  S   HET A   1)   3.57370844 +1   89.3948223 +1  136.1720689 +1     5     4     1
  O(HETATM   14  O   HET A   1)   1.62330440 +1   68.7807548 +1 -115.3672853 +1    13     5     4
  O(HETATM   15  O   HET A   1)   1.45368570 +1  156.5562321 +1  -27.0898189 +1    13     5     4
  O(HETATM   16  O   HET A   1)   1.60342167 +1   52.3492999 +1    4.5374483 +1    13     5     4
  O(HETATM   17  O   HET A   1)   1.43935831 +1   80.6626056 +1  129.7500045 +1    13     5     4
  H(HETATM   18 4H   HET A   1)   0.99158179 +1  118.1438022 +1 -122.1741140 +1    14    13     5
  H(HETATM   19 5H   HET A   1)   1.02317693 +1  120.0879917 +1   -1.1629688 +1    16    13     5
 
 TIME=     0.78
  REACTANTS AND PRODUCTS SWAPPED AROUND
 *+*+*+*+*+*+*+*+*+*+*+*+*+*+*+*+*+*+*+*+*+*+*+*+*+*+*+*+*+*+*+*+*+*+*+*+*+*+*+*+
            BAR SHORTENED BY       1.000 PERCENT
 GRADIENT CRITERION IN FLEPO =    10.000


          FOR POINT    3 SECOND STRUCTURE
 DISTANCE A - B     10.540274
 HEAT             -434.751097
 GRADIENT NORM      11.669755
 DIRECTION COSINE    0.109690
 EPS=78.4 HTML GEO-OK
 Locate the TS

  N(HETATM    1  N   HET A   1)   0.00000000 +1    0.0000000 +1    0.0000000 +1
  O(HETATM    2  O   HET A   1)   1.20976070 +1    0.0000000 +1    0.0000000 +1     1     0     0
  O(HETATM    3  O   HET A   1)   1.21026365 +1  128.5463013 +1    0.0000000 +1     1     2     0
  O(HETATM    4  O   HET A   1)   1.37051851 +1  117.8839034 +1 -178.4713054 +1     1     2     3
  H(HETATM    5 1H   HET A   1)   1.02483479 +1  109.0747730 +1  -13.5865017 +1     4     1     2
  S(HETATM    6  S   HET A   1)   3.26447700 +1  127.6926486 +1 -108.4801739 +1     5     4     1
  O(HETATM    7  O   HET A   1)   1.61988023 +1   73.4241038 +1  169.9309995 +1     6     5     4
  O(HETATM    8  O   HET A   1)   1.43589443 +1   98.8420911 +1  -80.5981482 +1     6     5     4
  O(HETATM    9  O   HET A   1)   1.62901200 +1   29.9499941 +1   34.6677590 +1     6     5     4
  O(HETATM   10  O   HET A   1)   1.44555620 +1  135.1807522 +1   68.0583115 +1     6     5     4
  H(HETATM   11 2H   HET A   1)   0.98855146 +1  117.3285224 +1  150.6776044 +1     7     6     5
  H(HETATM   12 3H   HET A   1)   0.99059216 +1  115.9893636 +1 -127.0958646 +1     9     6     5
  S(HETATM   13  S   HET A   1)   3.62213488 +1   82.2370819 +1  157.9077698 +1     5     4     1
  O(HETATM   14  O   HET A   1)   1.62276871 +1   68.1667362 +1 -125.1534032 +1    13     5     4
  O(HETATM   15  O   HET A   1)   1.44513525 +1  167.7690073 +1  -49.2221170 +1    13     5     4
  O(HETATM   16  O   HET A   1)   1.62697928 +1   61.6163151 +1  -13.5418159 +1    13     5     4
  O(HETATM   17  O   HET A   1)   1.43563728 +1   70.1186566 +1  111.4584396 +1    13     5     4
  H(HETATM   18 4H   HET A   1)   0.98759893 +1  116.9195806 +1 -138.4836111 +1    14    13     5
  H(HETATM   19 5H   HET A   1)   0.98652237 +1  116.4768019 +1   70.9683039 +1    16    13     5
 
 *+*+*+*+*+*+*+*+*+*+*+*+*+*+*+*+*+*+*+*+*+*+*+*+*+*+*+*+*+*+*+*+*+*+*+*+*+*+*+*+
            BAR SHORTENED BY       1.000 PERCENT
 GRADIENT CRITERION IN FLEPO =     8.670


          FOR POINT    4 SECOND STRUCTURE
 DISTANCE A - B     10.434871
 HEAT             -434.854493
 GRADIENT NORM      11.190868
 DIRECTION COSINE   -0.168290
 EPS=78.4 HTML GEO-OK
 Locate the TS

  N(HETATM    1  N   HET A   1)   0.00000000 +1    0.0000000 +1    0.0000000 +1
  O(HETATM    2  O   HET A   1)   1.21126434 +1    0.0000000 +1    0.0000000 +1     1     0     0
  O(HETATM    3  O   HET A   1)   1.20410685 +1  129.0609569 +1    0.0000000 +1     1     2     0
  O(HETATM    4  O   HET A   1)   1.37582257 +1  117.4369702 +1 -178.8721949 +1     1     2     3
  H(HETATM    5 1H   HET A   1)   1.02411843 +1  109.3206836 +1  -13.5293649 +1     4     1     2
  S(HETATM    6  S   HET A   1)   3.26258434 +1  128.1123246 +1 -108.3848367 +1     5     4     1
  O(HETATM    7  O   HET A   1)   1.61849629 +1   73.5523728 +1  169.8550606 +1     6     5     4
  O(HETATM    8  O   HET A   1)   1.43855992 +1   99.0354712 +1  -80.9846641 +1     6     5     4
  O(HETATM    9  O   HET A   1)   1.62707480 +1   29.6954417 +1   33.8314961 +1     6     5     4
  O(HETATM   10  O   HET A   1)   1.44581776 +1  134.8981975 +1   67.8673193 +1     6     5     4
  H(HETATM   11 2H   HET A   1)   0.98322641 +1  116.7084697 +1  149.6490449 +1     7     6     5
  H(HETATM   12 3H   HET A   1)   0.99050796 +1  116.7914768 +1 -127.9691996 +1     9     6     5
  S(HETATM   13  S   HET A   1)   3.62429646 +1   82.3452347 +1  157.8500710 +1     5     4     1
  O(HETATM   14  O   HET A   1)   1.62478141 +1   68.0360699 +1 -124.6495537 +1    13     5     4
  O(HETATM   15  O   HET A   1)   1.44724424 +1  167.5844222 +1  -48.7194076 +1    13     5     4
  O(HETATM   16  O   HET A   1)   1.62909330 +1   61.5789395 +1  -13.1341006 +1    13     5     4
  O(HETATM   17  O   HET A   1)   1.43604755 +1   70.1294316 +1  111.8944227 +1    13     5     4
  H(HETATM   18 4H   HET A   1)   0.99045747 +1  116.7360277 +1 -138.3376295 +1    14    13     5
  H(HETATM   19 5H   HET A   1)   0.98392336 +1  116.6066909 +1   69.8997980 +1    16    13     5
 
 TIME=     0.31
  REACTANTS AND PRODUCTS SWAPPED AROUND
 *+*+*+*+*+*+*+*+*+*+*+*+*+*+*+*+*+*+*+*+*+*+*+*+*+*+*+*+*+*+*+*+*+*+*+*+*+*+*+*+
            BAR SHORTENED BY       1.000 PERCENT
 GRADIENT CRITERION IN FLEPO =     8.191


          FOR POINT    5 FIRST  STRUCTURE
 DISTANCE A - B     10.330522
 HEAT             -434.743759
 GRADIENT NORM      14.729707
 DIRECTION COSINE    0.319504
 EPS=78.4 HTML GEO-OK
 Locate the TS

  N(HETATM    1  N   HET A   1)   0.00000000 +1    0.0000000 +1    0.0000000 +1
  O(HETATM    2  O   HET A   1)   1.13050265 +1    0.0000000 +1    0.0000000 +1     1     0     0
  O(HETATM    3  O   HET A   1)   1.13160351 +1  178.6945729 +1    0.0000000 +1     1     2     0
  O(HETATM    4  O   HET A   1)   2.30496001 +1   88.0388440 +1  155.5149551 +1     1     2     3
  H(HETATM    5 1H   HET A   1)   0.98359754 +1  112.3443888 +1   -6.2134805 +1     4     1     2
  S(HETATM    6  S   HET A   1)   3.06170761 +1  129.2037180 +1 -113.4061851 +1     5     4     1
  O(HETATM    7  O   HET A   1)   1.66866268 +1   76.1285865 +1  151.7151004 +1     6     5     4
  O(HETATM    8  O   HET A   1)   1.47684945 +1  131.2655394 +1 -111.4516808 +1     6     5     4
  O(HETATM    9  O   HET A   1)   1.47113546 +1   28.9099845 +1  -44.7628358 +1     6     5     4
  O(HETATM   10  O   HET A   1)   1.47973503 +1  112.7090582 +1   52.0463343 +1     6     5     4
  H(HETATM   11 2H   HET A   1)   0.97498431 +1  115.7293702 +1  128.6846874 +1     7     6     5
  H(HETATM   12 3H   HET A   1)   1.00077214 +1  113.8781717 +1 -114.8200469 +1     4     1     2
  S(HETATM   13  S   HET A   1)   3.60903152 +1   87.9104604 +1  136.5818016 +1     5     4     1
  O(HETATM   14  O   HET A   1)   1.62542501 +1   69.4779586 +1 -112.4970417 +1    13     5     4
  O(HETATM   15  O   HET A   1)   1.45245446 +1  157.4683484 +1  -22.8863607 +1    13     5     4
  O(HETATM   16  O   HET A   1)   1.60442173 +1   52.7514004 +1    6.6757142 +1    13     5     4
  O(HETATM   17  O   HET A   1)   1.44109333 +1   80.1007398 +1  132.6898041 +1    13     5     4
  H(HETATM   18 4H   HET A   1)   0.98750017 +1  117.8911464 +1 -121.9062846 +1    14    13     5
  H(HETATM   19 5H   HET A   1)   1.03037644 +1  119.8175491 +1   -2.0202641 +1    16    13     5
 
 TIME=     0.18
  REACTANTS AND PRODUCTS SWAPPED AROUND
 *+*+*+*+*+*+*+*+*+*+*+*+*+*+*+*+*+*+*+*+*+*+*+*+*+*+*+*+*+*+*+*+*+*+*+*+*+*+*+*+
            BAR SHORTENED BY       1.000 PERCENT
 GRADIENT CRITERION IN FLEPO =    10.000


          FOR POINT    6 SECOND STRUCTURE
 DISTANCE A - B     10.227217
 HEAT             -434.928377
 GRADIENT NORM      11.720489
 DIRECTION COSINE    0.200809
 EPS=78.4 HTML GEO-OK
 Locate the TS

  N(HETATM    1  N   HET A   1)   0.00000000 +1    0.0000000 +1    0.0000000 +1
  O(HETATM    2  O   HET A   1)   1.21169203 +1    0.0000000 +1    0.0000000 +1     1     0     0
  O(HETATM    3  O   HET A   1)   1.20445220 +1  128.8834368 +1    0.0000000 +1     1     2     0
  O(HETATM    4  O   HET A   1)   1.37643630 +1  117.4292997 +1 -179.1369798 +1     1     2     3
  H(HETATM    5 1H   HET A   1)   1.02467236 +1  109.4246432 +1  -13.5117385 +1     4     1     2
  S(HETATM    6  S   HET A   1)   3.26132487 +1  128.3421762 +1 -108.4976819 +1     5     4     1
  O(HETATM    7  O   HET A   1)   1.62095286 +1   73.3987575 +1  170.0236961 +1     6     5     4
  O(HETATM    8  O   HET A   1)   1.43874802 +1   99.5823151 +1  -81.3877440 +1     6     5     4
  O(HETATM    9  O   HET A   1)   1.62557066 +1   29.4279288 +1   33.2248288 +1     6     5     4
  O(HETATM   10  O   HET A   1)   1.44556297 +1  134.4445016 +1   68.1630345 +1     6     5     4
  H(HETATM   11 2H   HET A   1)   0.98779569 +1  116.8667884 +1  149.5709206 +1     7     6     5
  H(HETATM   12 3H   HET A   1)   0.98963053 +1  117.4644530 +1 -129.0222253 +1     9     6     5
  S(HETATM   13  S   HET A   1)   3.62970927 +1   82.1988067 +1  157.7925683 +1     5     4     1
  O(HETATM   14  O   HET A   1)   1.62283399 +1   67.9875957 +1 -124.5004261 +1    13     5     4
  O(HETATM   15  O   HET A   1)   1.44762710 +1  167.6395331 +1  -49.4415295 +1    13     5     4
  O(HETATM   16  O   HET A   1)   1.62413233 +1   61.5635044 +1  -12.7326933 +1    13     5     4
  O(HETATM   17  O   HET A   1)   1.43800600 +1   70.3891809 +1  112.0115562 +1    13     5     4
  H(HETATM   18 4H   HET A   1)   0.98714070 +1  116.9654824 +1 -138.4370929 +1    14    13     5
  H(HETATM   19 5H   HET A   1)   0.98318722 +1  117.0183735 +1   68.8716022 +1    16    13     5
 
 *+*+*+*+*+*+*+*+*+*+*+*+*+*+*+*+*+*+*+*+*+*+*+*+*+*+*+*+*+*+*+*+*+*+*+*+*+*+*+*+
            BAR SHORTENED BY       1.000 PERCENT
 GRADIENT CRITERION IN FLEPO =     8.720


          FOR POINT    7 SECOND STRUCTURE
 DISTANCE A - B     10.124945
 HEAT             -435.032303
 GRADIENT NORM      11.766496
 DIRECTION COSINE    0.439631
 EPS=78.4 HTML GEO-OK
 Locate the TS

  N(HETATM    1  N   HET A   1)   0.00000000 +1    0.0000000 +1    0.0000000 +1
  O(HETATM    2  O   HET A   1)   1.21180410 +1    0.0000000 +1    0.0000000 +1     1     0     0
  O(HETATM    3  O   HET A   1)   1.20484109 +1  128.8927444 +1    0.0000000 +1     1     2     0
  O(HETATM    4  O   HET A   1)   1.37775958 +1  117.2904521 +1 -178.4147622 +1     1     2     3
  H(HETATM    5 1H   HET A   1)   1.02628693 +1  109.3637917 +1  -14.2830759 +1     4     1     2
  S(HETATM    6  S   HET A   1)   3.26067963 +1  128.9250869 +1 -108.4204615 +1     5     4     1
  O(HETATM    7  O   HET A   1)   1.62093618 +1   73.2962861 +1  170.3373710 +1     6     5     4
  O(HETATM    8  O   HET A   1)   1.43619436 +1  100.0510311 +1  -81.3555489 +1     6     5     4
  O(HETATM    9  O   HET A   1)   1.62740195 +1   29.1199243 +1   32.9090041 +1     6     5     4
  O(HETATM   10  O   HET A   1)   1.44501977 +1  133.8638999 +1   68.6639300 +1     6     5     4
  H(HETATM   11 2H   HET A   1)   0.99008127 +1  116.8124167 +1  149.1015762 +1     7     6     5
  H(HETATM   12 3H   HET A   1)   0.99140663 +1  117.6648981 +1 -130.7393489 +1     9     6     5
  S(HETATM   13  S   HET A   1)   3.63721294 +1   81.9104816 +1  158.2181073 +1     5     4     1
  O(HETATM   14  O   HET A   1)   1.62253226 +1   67.9460962 +1 -123.8937143 +1    13     5     4
  O(HETATM   15  O   HET A   1)   1.44388670 +1  167.3600645 +1  -50.3624892 +1    13     5     4
  O(HETATM   16  O   HET A   1)   1.62691871 +1   61.5485916 +1  -12.1570140 +1    13     5     4
  O(HETATM   17  O   HET A   1)   1.43219205 +1   70.4203803 +1  112.6746464 +1    13     5     4
  H(HETATM   18 4H   HET A   1)   0.98943645 +1  116.9305496 +1 -138.3672126 +1    14    13     5
  H(HETATM   19 5H   HET A   1)   0.98120589 +1  117.0926932 +1   67.7843844 +1    16    13     5
 
 *+*+*+*+*+*+*+*+*+*+*+*+*+*+*+*+*+*+*+*+*+*+*+*+*+*+*+*+*+*+*+*+*+*+*+*+*+*+*+*+
            BAR SHORTENED BY       1.000 PERCENT
 GRADIENT CRITERION IN FLEPO =     8.766


          FOR POINT    8 SECOND STRUCTURE
 DISTANCE A - B     10.023695
 HEAT             -434.918063
 GRADIENT NORM      10.858105
 DIRECTION COSINE    0.419670
 EPS=78.4 HTML GEO-OK
 Locate the TS

  N(HETATM    1  N   HET A   1)   0.00000000 +1    0.0000000 +1    0.0000000 +1
  O(HETATM    2  O   HET A   1)   1.21002206 +1    0.0000000 +1    0.0000000 +1     1     0     0
  O(HETATM    3  O   HET A   1)   1.20591015 +1  128.9003036 +1    0.0000000 +1     1     2     0
  O(HETATM    4  O   HET A   1)   1.37882686 +1  117.2948750 +1 -179.0220306 +1     1     2     3
  H(HETATM    5 1H   HET A   1)   1.02539133 +1  109.5862742 +1  -14.0443223 +1     4     1     2
  S(HETATM    6  S   HET A   1)   3.25606091 +1  129.3462607 +1 -108.3903072 +1     5     4     1
  O(HETATM    7  O   HET A   1)   1.62035337 +1   73.5615823 +1  170.1246177 +1     6     5     4
  O(HETATM    8  O   HET A   1)   1.43797992 +1  100.3983018 +1  -81.6581910 +1     6     5     4
  O(HETATM    9  O   HET A   1)   1.62499929 +1   28.8932725 +1   32.0691155 +1     6     5     4
  O(HETATM   10  O   HET A   1)   1.44747090 +1  133.6065896 +1   68.3183557 +1     6     5     4
  H(HETATM   11 2H   HET A   1)   0.98532986 +1  117.0094691 +1  148.5158191 +1     7     6     5
  H(HETATM   12 3H   HET A   1)   0.98842078 +1  118.4775288 +1 -131.8460349 +1     9     6     5
  S(HETATM   13  S   HET A   1)   3.63723362 +1   82.0156364 +1  158.0290669 +1     5     4     1
  O(HETATM   14  O   HET A   1)   1.62129166 +1   67.9665143 +1 -123.6693039 +1    13     5     4
  O(HETATM   15  O   HET A   1)   1.44720568 +1  167.4776826 +1  -49.2351683 +1    13     5     4
  O(HETATM   16  O   HET A   1)   1.62593910 +1   61.6286807 +1  -11.6415193 +1    13     5     4
  O(HETATM   17  O   HET A   1)   1.43566031 +1   70.5951808 +1  113.1996044 +1    13     5     4
  H(HETATM   18 4H   HET A   1)   0.98577425 +1  116.9044704 +1 -138.5564768 +1    14    13     5
  H(HETATM   19 5H   HET A   1)   0.98126400 +1  117.2704167 +1   66.5797324 +1    16    13     5
 
 TIME=     0.48
  REACTANTS AND PRODUCTS SWAPPED AROUND
 *+*+*+*+*+*+*+*+*+*+*+*+*+*+*+*+*+*+*+*+*+*+*+*+*+*+*+*+*+*+*+*+*+*+*+*+*+*+*+*+
            BAR SHORTENED BY       0.000 PERCENT
 GRADIENT CRITERION IN FLEPO =     7.858


          FOR POINT    9 FIRST  STRUCTURE
 DISTANCE A - B     10.023695
 HEAT             -434.945375
 GRADIENT NORM      12.642532
 DIRECTION COSINE    0.154775
 EPS=78.4 HTML GEO-OK
 Locate the TS

  N(HETATM    1  N   HET A   1)   0.00000000 +1    0.0000000 +1    0.0000000 +1
  O(HETATM    2  O   HET A   1)   1.13063614 +1    0.0000000 +1    0.0000000 +1     1     0     0
  O(HETATM    3  O   HET A   1)   1.12769629 +1  178.7254247 +1    0.0000000 +1     1     2     0
  O(HETATM    4  O   HET A   1)   2.30508542 +1   88.1161194 +1  169.1300289 +1     1     2     3
  H(HETATM    5 1H   HET A   1)   0.98905914 +1  112.1097310 +1   -5.5156456 +1     4     1     2
  S(HETATM    6  S   HET A   1)   3.06914769 +1  128.3073981 +1 -113.6346885 +1     5     4     1
  O(HETATM    7  O   HET A   1)   1.66602769 +1   75.9558265 +1  151.3217475 +1     6     5     4
  O(HETATM    8  O   HET A   1)   1.47798082 +1  131.1247144 +1 -111.5314023 +1     6     5     4
  O(HETATM    9  O   HET A   1)   1.46918817 +1   29.1743076 +1  -44.7376864 +1     6     5     4
  O(HETATM   10  O   HET A   1)   1.47637906 +1  113.2480097 +1   51.9887093 +1     6     5     4
  H(HETATM   11 2H   HET A   1)   0.97413962 +1  115.4916477 +1  128.0297085 +1     7     6     5
  H(HETATM   12 3H   HET A   1)   0.99625741 +1  113.5924252 +1 -115.7286565 +1     4     1     2
  S(HETATM   13  S   HET A   1)   3.60682708 +1   88.2352671 +1  136.3064779 +1     5     4     1
  O(HETATM   14  O   HET A   1)   1.62543609 +1   69.0141831 +1 -113.1331720 +1    13     5     4
  O(HETATM   15  O   HET A   1)   1.44870654 +1  157.6306347 +1  -24.0143341 +1    13     5     4
  O(HETATM   16  O   HET A   1)   1.60852515 +1   52.6817045 +1    6.0675162 +1    13     5     4
  O(HETATM   17  O   HET A   1)   1.43728800 +1   80.3401097 +1  132.3037951 +1    13     5     4
  H(HETATM   18 4H   HET A   1)   0.98983348 +1  117.4584185 +1 -122.2521980 +1    14    13     5
  H(HETATM   19 5H   HET A   1)   1.02331706 +1  119.8465754 +1   -1.9372789 +1    16    13     5
 
 *+*+*+*+*+*+*+*+*+*+*+*+*+*+*+*+*+*+*+*+*+*+*+*+*+*+*+*+*+*+*+*+*+*+*+*+*+*+*+*+
            BAR SHORTENED BY       1.000 PERCENT
 GRADIENT CRITERION IN FLEPO =     9.643


          FOR POINT   10 FIRST  STRUCTURE
 DISTANCE A - B      9.923458
 HEAT             -434.872567
 GRADIENT NORM      14.798871
 DIRECTION COSINE    0.333945
 EPS=78.4 HTML GEO-OK
 Locate the TS

  N(HETATM    1  N   HET A   1)   0.00000000 +1    0.0000000 +1    0.0000000 +1
  O(HETATM    2  O   HET A   1)   1.13466410 +1    0.0000000 +1    0.0000000 +1     1     0     0
  O(HETATM    3  O   HET A   1)   1.12928050 +1  178.3350518 +1    0.0000000 +1     1     2     0
  O(HETATM    4  O   HET A   1)   2.30105871 +1   88.3405960 +1  166.4194886 +1     1     2     3
  H(HETATM    5 1H   HET A   1)   0.99364794 +1  111.8414250 +1   -5.3666160 +1     4     1     2
  S(HETATM    6  S   HET A   1)   3.06529265 +1  128.1316651 +1 -113.9152511 +1     5     4     1
  O(HETATM    7  O   HET A   1)   1.66547162 +1   75.8338666 +1  151.6161184 +1     6     5     4
  O(HETATM    8  O   HET A   1)   1.47847248 +1  130.8571223 +1 -110.9163842 +1     6     5     4
  O(HETATM    9  O   HET A   1)   1.47156730 +1   29.1152334 +1  -43.7353934 +1     6     5     4
  O(HETATM   10  O   HET A   1)   1.47927104 +1  113.4168604 +1   52.3247102 +1     6     5     4
  H(HETATM   11 2H   HET A   1)   0.97567251 +1  115.2572569 +1  127.9688937 +1     7     6     5
  H(HETATM   12 3H   HET A   1)   0.99671457 +1  112.6965283 +1 -115.7596288 +1     4     1     2
  S(HETATM   13  S   HET A   1)   3.60734466 +1   87.9616974 +1  136.2241836 +1     5     4     1
  O(HETATM   14  O   HET A   1)   1.62519614 +1   69.0305472 +1 -113.4986662 +1    13     5     4
  O(HETATM   15  O   HET A   1)   1.44958801 +1  157.8347926 +1  -24.2295031 +1    13     5     4
  O(HETATM   16  O   HET A   1)   1.60850538 +1   53.0462217 +1    5.7064582 +1    13     5     4
  O(HETATM   17  O   HET A   1)   1.44093051 +1   80.1234077 +1  131.9388384 +1    13     5     4
  H(HETATM   18 4H   HET A   1)   0.98734789 +1  117.4015126 +1 -122.2323257 +1    14    13     5
  H(HETATM   19 5H   HET A   1)   1.02653379 +1  119.9769239 +1   -2.1120364 +1    16    13     5
 
 TIME=     0.30
  REACTANTS AND PRODUCTS SWAPPED AROUND
 *+*+*+*+*+*+*+*+*+*+*+*+*+*+*+*+*+*+*+*+*+*+*+*+*+*+*+*+*+*+*+*+*+*+*+*+*+*+*+*+
            BAR SHORTENED BY       1.000 PERCENT
 GRADIENT CRITERION IN FLEPO =    10.000


          FOR POINT   11 SECOND STRUCTURE
 DISTANCE A - B      9.824224
 HEAT             -434.517860
 GRADIENT NORM      14.127816
 DIRECTION COSINE    0.300308
 EPS=78.4 HTML GEO-OK
 Locate the TS

  N(HETATM    1  N   HET A   1)   0.00000000 +1    0.0000000 +1    0.0000000 +1
  O(HETATM    2  O   HET A   1)   1.20822877 +1    0.0000000 +1    0.0000000 +1     1     0     0
  O(HETATM    3  O   HET A   1)   1.20807479 +1  129.0423492 +1    0.0000000 +1     1     2     0
  O(HETATM    4  O   HET A   1)   1.37650948 +1  117.3731058 +1 -178.4440874 +1     1     2     3
  H(HETATM    5 1H   HET A   1)   1.02411701 +1  109.2003314 +1  -15.4479448 +1     4     1     2
  S(HETATM    6  S   HET A   1)   3.24506022 +1  130.9114994 +1 -108.9444292 +1     5     4     1
  O(HETATM    7  O   HET A   1)   1.62307592 +1   73.5113328 +1  171.4004862 +1     6     5     4
  O(HETATM    8  O   HET A   1)   1.43426408 +1  101.0083146 +1  -80.4783580 +1     6     5     4
  O(HETATM    9  O   HET A   1)   1.62810086 +1   28.2959030 +1   32.2946209 +1     6     5     4
  O(HETATM   10  O   HET A   1)   1.44690702 +1  132.6845607 +1   69.3653310 +1     6     5     4
  H(HETATM   11 2H   HET A   1)   0.98791004 +1  116.5584083 +1  148.8752786 +1     7     6     5
  H(HETATM   12 3H   HET A   1)   0.98399310 +1  118.2596190 +1 -133.3073271 +1     9     6     5
  S(HETATM   13  S   HET A   1)   3.64578988 +1  155.9266647 +1  100.9102188 +1     4     1     2
  O(HETATM   14  O   HET A   1)   1.62127569 +1   77.1750078 +1  -68.0076550 +1    13     4     1
  O(HETATM   15  O   HET A   1)   1.45181552 +1  154.1544187 +1   36.9759739 +1    13     4     1
  O(HETATM   16  O   HET A   1)   1.62643857 +1   45.7821462 +1   45.5514561 +1    13     4     1
  O(HETATM   17  O   HET A   1)   1.43947883 +1   77.5754523 +1  177.2758207 +1    13     4     1
  H(HETATM   18 4H   HET A   1)   0.98930337 +1  116.9039129 +1 -152.6436441 +1    14    13     4
  H(HETATM   19 5H   HET A   1)   0.98429940 +1  117.2455569 +1   61.1243677 +1    16    13     4
 
 TIME=     0.22
  REACTANTS AND PRODUCTS SWAPPED AROUND
 *+*+*+*+*+*+*+*+*+*+*+*+*+*+*+*+*+*+*+*+*+*+*+*+*+*+*+*+*+*+*+*+*+*+*+*+*+*+*+*+
            BAR SHORTENED BY       1.000 PERCENT
 GRADIENT CRITERION IN FLEPO =    10.000


          FOR POINT   12 FIRST  STRUCTURE
 DISTANCE A - B      9.725982
 HEAT             -434.807306
 GRADIENT NORM      13.603550
 DIRECTION COSINE   -0.182325
 EPS=78.4 HTML GEO-OK
 Locate the TS

  N(HETATM    1  N   HET A   1)   0.00000000 +1    0.0000000 +1    0.0000000 +1
  O(HETATM    2  O   HET A   1)   1.12822853 +1    0.0000000 +1    0.0000000 +1     1     0     0
  O(HETATM    3  O   HET A   1)   1.13063798 +1  177.9946569 +1    0.0000000 +1     1     2     0
  O(HETATM    4  O   HET A   1)   2.29465625 +1   88.7291992 +1  162.6334070 +1     1     2     3
  H(HETATM    5 1H   HET A   1)   0.99102649 +1  111.6206081 +1   -5.2384222 +1     4     1     2
  S(HETATM    6  S   HET A   1)   3.06368281 +1  128.2476192 +1 -114.0658324 +1     5     4     1
  O(HETATM    7  O   HET A   1)   1.66387556 +1   76.0685122 +1  151.9836678 +1     6     5     4
  O(HETATM    8  O   HET A   1)   1.48029156 +1  130.6601349 +1 -110.2374978 +1     6     5     4
  O(HETATM    9  O   HET A   1)   1.47024774 +1   29.0863967 +1  -42.8466268 +1     6     5     4
  O(HETATM   10  O   HET A   1)   1.48107645 +1  113.6495396 +1   52.5568567 +1     6     5     4
  H(HETATM   11 2H   HET A   1)   0.97192472 +1  115.3969668 +1  127.7492273 +1     7     6     5
  H(HETATM   12 3H   HET A   1)   1.00335580 +1  112.6893079 +1 -114.9205792 +1     4     1     2
  S(HETATM   13  S   HET A   1)   3.60550985 +1   87.7918564 +1  136.2607835 +1     5     4     1
  O(HETATM   14  O   HET A   1)   1.62640498 +1   69.1622272 +1 -113.5968082 +1    13     5     4
  O(HETATM   15  O   HET A   1)   1.45125484 +1  158.0578076 +1  -24.6823977 +1    13     5     4
  O(HETATM   16  O   HET A   1)   1.60803865 +1   53.4429041 +1    5.7169517 +1    13     5     4
  O(HETATM   17  O   HET A   1)   1.44202397 +1   80.0796252 +1  131.8120675 +1    13     5     4
  H(HETATM   18 4H   HET A   1)   0.98920169 +1  117.2349651 +1 -122.0725105 +1    14    13     5
  H(HETATM   19 5H   HET A   1)   1.02781260 +1  119.3107536 +1   -2.2510881 +1    16    13     5
 
 TIME=     0.16
  REACTANTS AND PRODUCTS SWAPPED AROUND
 *+*+*+*+*+*+*+*+*+*+*+*+*+*+*+*+*+*+*+*+*+*+*+*+*+*+*+*+*+*+*+*+*+*+*+*+*+*+*+*+
            BAR SHORTENED BY       1.000 PERCENT
 GRADIENT CRITERION IN FLEPO =    10.000


          FOR POINT   13 SECOND STRUCTURE
 DISTANCE A - B      9.628722
 HEAT             -434.565047
 GRADIENT NORM      10.827151
 DIRECTION COSINE   -0.037323
 EPS=78.4 HTML GEO-OK
 Locate the TS

  N(HETATM    1  N   HET A   1)   0.00000000 +1    0.0000000 +1    0.0000000 +1
  O(HETATM    2  O   HET A   1)   1.20872375 +1    0.0000000 +1    0.0000000 +1     1     0     0
  O(HETATM    3  O   HET A   1)   1.20820569 +1  128.8229857 +1    0.0000000 +1     1     2     0
  O(HETATM    4  O   HET A   1)   1.37615240 +1  117.6062286 +1 -178.8565219 +1     1     2     3
  H(HETATM    5 1H   HET A   1)   1.02454849 +1  109.1291092 +1  -15.3116120 +1     4     1     2
  S(HETATM    6  S   HET A   1)   3.24294799 +1  131.1360487 +1 -109.1231582 +1     5     4     1
  O(HETATM    7  O   HET A   1)   1.62010047 +1   73.5193420 +1  171.4688756 +1     6     5     4
  O(HETATM    8  O   HET A   1)   1.43764079 +1  101.2493209 +1  -80.6212618 +1     6     5     4
  O(HETATM    9  O   HET A   1)   1.62684721 +1   28.0551519 +1   31.8209425 +1     6     5     4
  O(HETATM   10  O   HET A   1)   1.44290680 +1  132.4146239 +1   69.4099045 +1     6     5     4
  H(HETATM   11 2H   HET A   1)   0.99071089 +1  116.6772068 +1  148.4354175 +1     7     6     5
  H(HETATM   12 3H   HET A   1)   0.98695571 +1  118.8040798 +1 -134.0066648 +1     9     6     5
  S(HETATM   13  S   HET A   1)   3.64945851 +1  155.8043584 +1  100.8702145 +1     4     1     2
  O(HETATM   14  O   HET A   1)   1.62424605 +1   77.0265762 +1  -67.6072672 +1    13     4     1
  O(HETATM   15  O   HET A   1)   1.44735992 +1  153.8660726 +1   37.0817788 +1    13     4     1
  O(HETATM   16  O   HET A   1)   1.62888867 +1   45.7722732 +1   46.0706809 +1    13     4     1
  O(HETATM   17  O   HET A   1)   1.43336131 +1   77.7123192 +1  177.7159031 +1    13     4     1
  H(HETATM   18 4H   HET A   1)   0.98513800 +1  116.7516275 +1 -152.7708889 +1    14    13     4
  H(HETATM   19 5H   HET A   1)   0.98249759 +1  117.3222213 +1   60.2375990 +1    16    13     4
 
 TIME=     0.16
  REACTANTS AND PRODUCTS SWAPPED AROUND
 *+*+*+*+*+*+*+*+*+*+*+*+*+*+*+*+*+*+*+*+*+*+*+*+*+*+*+*+*+*+*+*+*+*+*+*+*+*+*+*+
            BAR SHORTENED BY       1.000 PERCENT
 GRADIENT CRITERION IN FLEPO =     7.827


          FOR POINT   14 FIRST  STRUCTURE
 DISTANCE A - B      9.532435
 HEAT             -434.810451
 GRADIENT NORM      15.874538
 DIRECTION COSINE   -0.173892
 EPS=78.4 HTML GEO-OK
 Locate the TS

  N(HETATM    1  N   HET A   1)   0.00000000 +1    0.0000000 +1    0.0000000 +1
  O(HETATM    2  O   HET A   1)   1.13213927 +1    0.0000000 +1    0.0000000 +1     1     0     0
  O(HETATM    3  O   HET A   1)   1.13343392 +1  177.9152908 +1    0.0000000 +1     1     2     0
  O(HETATM    4  O   HET A   1)   2.28613350 +1   89.0275020 +1  171.3878818 +1     1     2     3
  H(HETATM    5 1H   HET A   1)   0.99222833 +1  111.8488875 +1   -5.3157036 +1     4     1     2
  S(HETATM    6  S   HET A   1)   3.06343882 +1  128.3117999 +1 -113.8275003 +1     5     4     1
  O(HETATM    7  O   HET A   1)   1.66616722 +1   76.1269591 +1  151.6912971 +1     6     5     4
  O(HETATM    8  O   HET A   1)   1.47732036 +1  130.2223522 +1 -110.7253059 +1     6     5     4
  O(HETATM    9  O   HET A   1)   1.47189795 +1   28.8091687 +1  -42.6656627 +1     6     5     4
  O(HETATM   10  O   HET A   1)   1.48024839 +1  113.8913656 +1   52.4084425 +1     6     5     4
  H(HETATM   11 2H   HET A   1)   0.97577088 +1  115.4614420 +1  127.5417535 +1     7     6     5
  H(HETATM   12 3H   HET A   1)   1.00680629 +1  112.6212005 +1 -114.5217260 +1     4     1     2
  S(HETATM   13  S   HET A   1)   3.60564802 +1   87.9836216 +1  136.2561310 +1     5     4     1
  O(HETATM   14  O   HET A   1)   1.62692946 +1   68.9366615 +1 -113.4350463 +1    13     5     4
  O(HETATM   15  O   HET A   1)   1.45195943 +1  158.1497357 +1  -25.0956529 +1    13     5     4
  O(HETATM   16  O   HET A   1)   1.61104163 +1   53.3548554 +1    5.5730770 +1    13     5     4
  O(HETATM   17  O   HET A   1)   1.44074004 +1   79.9596841 +1  131.9842982 +1    13     5     4
  H(HETATM   18 4H   HET A   1)   0.98744303 +1  116.7225431 +1 -121.4721683 +1    14    13     5
  H(HETATM   19 5H   HET A   1)   1.02337822 +1  119.6068349 +1   -2.2686047 +1    16    13     5
 
 TIME=     0.22
  REACTANTS AND PRODUCTS SWAPPED AROUND
 *+*+*+*+*+*+*+*+*+*+*+*+*+*+*+*+*+*+*+*+*+*+*+*+*+*+*+*+*+*+*+*+*+*+*+*+*+*+*+*+
            BAR SHORTENED BY       1.000 PERCENT
 GRADIENT CRITERION IN FLEPO =    10.000


          FOR POINT   15 SECOND STRUCTURE
 DISTANCE A - B      9.437110
 HEAT             -434.810163
 GRADIENT NORM      20.023965
 DIRECTION COSINE    0.159164
 EPS=78.4 HTML GEO-OK
 Locate the TS

  N(HETATM    1  N   HET A   1)   0.00000000 +1    0.0000000 +1    0.0000000 +1
  O(HETATM    2  O   HET A   1)   1.20597794 +1    0.0000000 +1    0.0000000 +1     1     0     0
  O(HETATM    3  O   HET A   1)   1.20521783 +1  129.4766163 +1    0.0000000 +1     1     2     0
  O(HETATM    4  O   HET A   1)   1.38803368 +1  117.1970724 +1 -179.1264498 +1     1     2     3
  H(HETATM    5 1H   HET A   1)   1.02495555 +1  109.3143802 +1  -15.0111796 +1     4     1     2
  S(HETATM    6  S   HET A   1)   3.24041193 +1  131.0464709 +1 -109.1383509 +1     5     4     1
  O(HETATM    7  O   HET A   1)   1.62040394 +1   73.5152113 +1  171.0818841 +1     6     5     4
  O(HETATM    8  O   HET A   1)   1.43332215 +1  101.4385069 +1  -81.0812001 +1     6     5     4
  O(HETATM    9  O   HET A   1)   1.62199942 +1   28.0398417 +1   31.1182510 +1     6     5     4
  O(HETATM   10  O   HET A   1)   1.44181341 +1  132.2982718 +1   69.0310793 +1     6     5     4
  H(HETATM   11 2H   HET A   1)   0.99074576 +1  116.6210469 +1  148.3134747 +1     7     6     5
  H(HETATM   12 3H   HET A   1)   0.98972687 +1  120.2426606 +1 -134.4463451 +1     9     6     5
  S(HETATM   13  S   HET A   1)   3.64905020 +1  155.5124173 +1  100.7755113 +1     4     1     2
  O(HETATM   14  O   HET A   1)   1.62414944 +1   77.0293185 +1  -67.3140697 +1    13     4     1
  O(HETATM   15  O   HET A   1)   1.44673118 +1  153.7619327 +1   37.4775804 +1    13     4     1
  O(HETATM   16  O   HET A   1)   1.62759624 +1   45.6723179 +1   46.4281611 +1    13     4     1
  O(HETATM   17  O   HET A   1)   1.43153235 +1   77.7586449 +1  178.1437184 +1    13     4     1
  H(HETATM   18 4H   HET A   1)   0.98439140 +1  116.7472193 +1 -152.5633119 +1    14    13     4
  H(HETATM   19 5H   HET A   1)   0.97729232 +1  117.6392103 +1   59.8754010 +1    16    13     4
 
 TIME=     0.21
  REACTANTS AND PRODUCTS SWAPPED AROUND
 *+*+*+*+*+*+*+*+*+*+*+*+*+*+*+*+*+*+*+*+*+*+*+*+*+*+*+*+*+*+*+*+*+*+*+*+*+*+*+*+
            BAR SHORTENED BY       1.000 PERCENT
 GRADIENT CRITERION IN FLEPO =    10.000


          FOR POINT   16 FIRST  STRUCTURE
 DISTANCE A - B      9.342739
 HEAT             -434.773475
 GRADIENT NORM      17.884130
 DIRECTION COSINE   -0.062492
 EPS=78.4 HTML GEO-OK
 Locate the TS

  N(HETATM    1  N   HET A   1)   0.00000000 +1    0.0000000 +1    0.0000000 +1
  O(HETATM    2  O   HET A   1)   1.13074504 +1    0.0000000 +1    0.0000000 +1     1     0     0
  O(HETATM    3  O   HET A   1)   1.13209266 +1  177.4691262 +1    0.0000000 +1     1     2     0
  O(HETATM    4  O   HET A   1)   2.29128538 +1   89.1644989 +1  169.7493998 +1     1     2     3
  H(HETATM    5 1H   HET A   1)   0.98328846 +1  111.3575321 +1   -5.2569833 +1     4     1     2
  S(HETATM    6  S   HET A   1)   3.06469833 +1  128.0761638 +1 -114.2563276 +1     5     4     1
  O(HETATM    7  O   HET A   1)   1.66580226 +1   76.1073999 +1  152.5610336 +1     6     5     4
  O(HETATM    8  O   HET A   1)   1.47560123 +1  129.9232824 +1 -109.7209127 +1     6     5     4
  O(HETATM    9  O   HET A   1)   1.46997385 +1   28.7378235 +1  -41.4574196 +1     6     5     4
  O(HETATM   10  O   HET A   1)   1.48000836 +1  114.1167487 +1   53.1772251 +1     6     5     4
  H(HETATM   11 2H   HET A   1)   0.97480965 +1  115.4475865 +1  127.6985711 +1     7     6     5
  H(HETATM   12 3H   HET A   1)   1.01013884 +1  110.7931524 +1 -114.9740952 +1     4     1     2
  S(HETATM   13  S   HET A   1)   3.60546054 +1   87.5005637 +1  136.3166641 +1     5     4     1
  O(HETATM   14  O   HET A   1)   1.62626628 +1   68.9245323 +1 -113.9922607 +1    13     5     4
  O(HETATM   15  O   HET A   1)   1.45095830 +1  158.2794900 +1  -25.6191237 +1    13     5     4
  O(HETATM   16  O   HET A   1)   1.60949813 +1   53.4659294 +1    4.9542428 +1    13     5     4
  O(HETATM   17  O   HET A   1)   1.44004265 +1   79.8393562 +1  131.3825266 +1    13     5     4
  H(HETATM   18 4H   HET A   1)   0.98775031 +1  116.7816032 +1 -121.6578952 +1    14    13     5
  H(HETATM   19 5H   HET A   1)   1.02022251 +1  119.7981912 +1   -1.9171502 +1    16    13     5
 
 TIME=     0.18
  REACTANTS AND PRODUCTS SWAPPED AROUND
 *+*+*+*+*+*+*+*+*+*+*+*+*+*+*+*+*+*+*+*+*+*+*+*+*+*+*+*+*+*+*+*+*+*+*+*+*+*+*+*+
            BAR SHORTENED BY       1.000 PERCENT
 GRADIENT CRITERION IN FLEPO =    10.000


          FOR POINT   17 SECOND STRUCTURE
 DISTANCE A - B      9.249312
 HEAT             -434.918557
 GRADIENT NORM      16.225200
 DIRECTION COSINE   -0.216316
 EPS=78.4 HTML GEO-OK
 Locate the TS

  N(HETATM    1  N   HET A   1)   0.00000000 +1    0.0000000 +1    0.0000000 +1
  O(HETATM    2  O   HET A   1)   1.20672505 +1    0.0000000 +1    0.0000000 +1     1     0     0
  O(HETATM    3  O   HET A   1)   1.20912211 +1  129.1403845 +1    0.0000000 +1     1     2     0
  O(HETATM    4  O   HET A   1)   1.38196837 +1  117.5736758 +1 -179.3387972 +1     1     2     3
  H(HETATM    5 1H   HET A   1)   1.02437544 +1  109.3945707 +1  -14.7848576 +1     4     1     2
  S(HETATM    6  S   HET A   1)   3.23878818 +1  131.2505727 +1 -108.9864040 +1     5     4     1
  O(HETATM    7  O   HET A   1)   1.62173338 +1   73.6797816 +1  170.6732766 +1     6     5     4
  O(HETATM    8  O   HET A   1)   1.43604338 +1  101.7388729 +1  -81.6318946 +1     6     5     4
  O(HETATM    9  O   HET A   1)   1.62837260 +1   27.3548853 +1   29.7988545 +1     6     5     4
  O(HETATM   10  O   HET A   1)   1.44522033 +1  132.1185752 +1   68.4925057 +1     6     5     4
  H(HETATM   11 2H   HET A   1)   0.98580440 +1  116.7862079 +1  147.7426375 +1     7     6     5
  H(HETATM   12 3H   HET A   1)   0.99044359 +1  119.9852822 +1 -136.9719195 +1     9     6     5
  S(HETATM   13  S   HET A   1)   3.65327111 +1  155.4292056 +1  100.4226407 +1     4     1     2
  O(HETATM   14  O   HET A   1)   1.62233937 +1   76.8874947 +1  -66.6976565 +1    13     4     1
  O(HETATM   15  O   HET A   1)   1.44677901 +1  153.8041883 +1   37.7593523 +1    13     4     1
  O(HETATM   16  O   HET A   1)   1.62306605 +1   45.6413263 +1   47.2766834 +1    13     4     1
  O(HETATM   17  O   HET A   1)   1.43559044 +1   78.2034245 +1  178.6479662 +1    13     4     1
  H(HETATM   18 4H   HET A   1)   0.98934752 +1  116.9011993 +1 -152.6001370 +1    14    13     4
  H(HETATM   19 5H   HET A   1)   0.97891546 +1  117.9472297 +1   59.0068372 +1    16    13     4
 
 TIME=     0.16
  REACTANTS AND PRODUCTS SWAPPED AROUND
 *+*+*+*+*+*+*+*+*+*+*+*+*+*+*+*+*+*+*+*+*+*+*+*+*+*+*+*+*+*+*+*+*+*+*+*+*+*+*+*+
            BAR SHORTENED BY       1.000 PERCENT
 GRADIENT CRITERION IN FLEPO =    10.000


          FOR POINT   18 FIRST  STRUCTURE
 DISTANCE A - B      9.156819
 HEAT             -434.711920
 GRADIENT NORM      17.502934
 DIRECTION COSINE    0.152833
 EPS=78.4 HTML GEO-OK
 Locate the TS

  N(HETATM    1  N   HET A   1)   0.00000000 +1    0.0000000 +1    0.0000000 +1
  O(HETATM    2  O   HET A   1)   1.13103933 +1    0.0000000 +1    0.0000000 +1     1     0     0
  O(HETATM    3  O   HET A   1)   1.13002600 +1  177.0832136 +1    0.0000000 +1     1     2     0
  O(HETATM    4  O   HET A   1)   2.28394001 +1   89.5553462 +1  168.1883051 +1     1     2     3
  H(HETATM    5 1H   HET A   1)   0.99361186 +1  111.1736134 +1   -5.1764726 +1     4     1     2
  S(HETATM    6  S   HET A   1)   3.05395655 +1  128.1881818 +1 -114.5934106 +1     5     4     1
  O(HETATM    7  O   HET A   1)   1.66602898 +1   76.1535917 +1  152.8640378 +1     6     5     4
  O(HETATM    8  O   HET A   1)   1.47819411 +1  129.8526350 +1 -109.1970595 +1     6     5     4
  O(HETATM    9  O   HET A   1)   1.46849956 +1   28.8942041 +1  -40.8465140 +1     6     5     4
  O(HETATM   10  O   HET A   1)   1.48640000 +1  114.3062956 +1   53.5964689 +1     6     5     4
  H(HETATM   11 2H   HET A   1)   0.97306817 +1  115.3206424 +1  127.7782133 +1     7     6     5
  H(HETATM   12 3H   HET A   1)   0.99752131 +1  111.6596783 +1 -114.0190957 +1     4     1     2
  S(HETATM   13  S   HET A   1)   3.61167554 +1   87.2988420 +1  136.0011560 +1     5     4     1
  O(HETATM   14  O   HET A   1)   1.62783212 +1   68.9598320 +1 -114.0568112 +1    13     5     4
  O(HETATM   15  O   HET A   1)   1.44246163 +1  158.4783712 +1  -26.6486113 +1    13     5     4
  O(HETATM   16  O   HET A   1)   1.60956718 +1   53.7552715 +1    4.6762859 +1    13     5     4
  O(HETATM   17  O   HET A   1)   1.44104665 +1   79.5981980 +1  131.2306122 +1    13     5     4
  H(HETATM   18 4H   HET A   1)   0.98813202 +1  116.7453079 +1 -121.7027631 +1    14    13     5
  H(HETATM   19 5H   HET A   1)   1.02293223 +1  119.6495125 +1   -1.7654846 +1    16    13     5
 
 TIME=     0.14
  REACTANTS AND PRODUCTS SWAPPED AROUND
 *+*+*+*+*+*+*+*+*+*+*+*+*+*+*+*+*+*+*+*+*+*+*+*+*+*+*+*+*+*+*+*+*+*+*+*+*+*+*+*+
            BAR SHORTENED BY       1.000 PERCENT
 GRADIENT CRITERION IN FLEPO =    10.000


          FOR POINT   19 SECOND STRUCTURE
 DISTANCE A - B      9.065250
 HEAT             -435.271070
 GRADIENT NORM      14.090285
 DIRECTION COSINE    0.144132
 EPS=78.4 HTML GEO-OK
 Locate the TS

  N(HETATM    1  N   HET A   1)   0.00000000 +1    0.0000000 +1    0.0000000 +1
  O(HETATM    2  O   HET A   1)   1.21193025 +1    0.0000000 +1    0.0000000 +1     1     0     0
  O(HETATM    3  O   HET A   1)   1.20243426 +1  129.3186034 +1    0.0000000 +1     1     2     0
  O(HETATM    4  O   HET A   1)   1.37408138 +1  117.3798702 +1 -177.6490560 +1     1     2     3
  H(HETATM    5 1H   HET A   1)   1.03294849 +1  108.9623164 +1  -14.9645290 +1     4     1     2
  S(HETATM    6  S   HET A   1)   3.23699984 +1  133.5895912 +1 -107.6352718 +1     5     4     1
  O(HETATM    7  O   HET A   1)   1.61837107 +1   73.9523014 +1  171.7617223 +1     6     5     4
  O(HETATM    8  O   HET A   1)   1.43583697 +1  102.9238463 +1  -80.4619526 +1     6     5     4
  O(HETATM    9  O   HET A   1)   1.62837269 +1   26.7612457 +1   29.8007332 +1     6     5     4
  O(HETATM   10  O   HET A   1)   1.44523417 +1  130.3234552 +1   69.0773356 +1     6     5     4
  H(HETATM   11 2H   HET A   1)   0.98844418 +1  116.8657978 +1  145.5868593 +1     7     6     5
  H(HETATM   12 3H   HET A   1)   0.99119689 +1  117.8898613 +1 -141.3099328 +1     9     6     5
  S(HETATM   13  S   HET A   1)   3.65948404 +1  157.4775449 +1  104.6213566 +1     4     1     2
  O(HETATM   14  O   HET A   1)   1.62262034 +1   75.6845367 +1  -68.8208622 +1    13     4     1
  O(HETATM   15  O   HET A   1)   1.44793500 +1  153.5349139 +1   33.6457806 +1    13     4     1
  O(HETATM   16  O   HET A   1)   1.63181309 +1   46.6835384 +1   47.2903065 +1    13     4     1
  O(HETATM   17  O   HET A   1)   1.43390503 +1   78.3852730 +1  176.4318345 +1    13     4     1
  H(HETATM   18 4H   HET A   1)   0.99086360 +1  116.9812044 +1 -154.8386897 +1    14    13     4
  H(HETATM   19 5H   HET A   1)   0.98244416 +1  116.6205811 +1   53.5023553 +1    16    13     4
 
 *+*+*+*+*+*+*+*+*+*+*+*+*+*+*+*+*+*+*+*+*+*+*+*+*+*+*+*+*+*+*+*+*+*+*+*+*+*+*+*+
            BAR SHORTENED BY       1.000 PERCENT
 GRADIENT CRITERION IN FLEPO =    10.000


          FOR POINT   20 SECOND STRUCTURE
 DISTANCE A - B      8.974598
 HEAT             -435.534012
 GRADIENT NORM      11.842042
 DIRECTION COSINE    0.481283
 EPS=78.4 HTML GEO-OK
 Locate the TS

  N(HETATM    1  N   HET A   1)   0.00000000 +1    0.0000000 +1    0.0000000 +1
  O(HETATM    2  O   HET A   1)   1.21117298 +1    0.0000000 +1    0.0000000 +1     1     0     0
  O(HETATM    3  O   HET A   1)   1.20570596 +1  129.3625048 +1    0.0000000 +1     1     2     0
  O(HETATM    4  O   HET A   1)   1.37159376 +1  117.4836307 +1  179.9264924 +1     1     2     3
  H(HETATM    5 1H   HET A   1)   1.02926398 +1  109.6063897 +1  -12.6496238 +1     4     1     2
  S(HETATM    6  S   HET A   1)   3.23903378 +1  133.6609216 +1 -108.1662255 +1     5     4     1
  O(HETATM    7  O   HET A   1)   1.62036272 +1   74.0473028 +1  170.9853233 +1     6     5     4
  O(HETATM    8  O   HET A   1)   1.43668771 +1  103.1252006 +1  -81.3541499 +1     6     5     4
  O(HETATM    9  O   HET A   1)   1.62843582 +1   26.5198260 +1   28.4065575 +1     6     5     4
  O(HETATM   10  O   HET A   1)   1.44727429 +1  129.9523320 +1   68.2422709 +1     6     5     4
  H(HETATM   11 2H   HET A   1)   0.98760899 +1  116.6930801 +1  144.8785830 +1     7     6     5
  H(HETATM   12 3H   HET A   1)   0.98962987 +1  118.1084476 +1 -142.8145947 +1     9     6     5
  S(HETATM   13  S   HET A   1)   3.67285519 +1  156.5007061 +1  105.9436773 +1     4     1     2
  O(HETATM   14  O   HET A   1)   1.62692258 +1   75.3323422 +1  -68.4104560 +1    13     4     1
  O(HETATM   15  O   HET A   1)   1.44713080 +1  153.7856562 +1   32.7325797 +1    13     4     1
  O(HETATM   16  O   HET A   1)   1.62997643 +1   46.4128525 +1   47.6983637 +1    13     4     1
  O(HETATM   17  O   HET A   1)   1.43714142 +1   79.2409686 +1  176.0891244 +1    13     4     1
  H(HETATM   18 4H   HET A   1)   0.99059122 +1  116.9686170 +1 -155.0671910 +1    14    13     4
  H(HETATM   19 5H   HET A   1)   0.98326915 +1  116.7446579 +1   52.4637562 +1    16    13     4
 
 *+*+*+*+*+*+*+*+*+*+*+*+*+*+*+*+*+*+*+*+*+*+*+*+*+*+*+*+*+*+*+*+*+*+*+*+*+*+*+*+
            BAR SHORTENED BY       1.000 PERCENT
 GRADIENT CRITERION IN FLEPO =     8.842


          FOR POINT   21 SECOND STRUCTURE
 DISTANCE A - B      8.884852
 HEAT             -435.688793
 GRADIENT NORM       9.899640
 DIRECTION COSINE    0.144070
 EPS=78.4 HTML GEO-OK
 Locate the TS

  N(HETATM    1  N   HET A   1)   0.00000000 +1    0.0000000 +1    0.0000000 +1
  O(HETATM    2  O   HET A   1)   1.20849677 +1    0.0000000 +1    0.0000000 +1     1     0     0
  O(HETATM    3  O   HET A   1)   1.20488386 +1  128.8337239 +1    0.0000000 +1     1     2     0
  O(HETATM    4  O   HET A   1)   1.37603952 +1  117.5368135 +1 -178.2488205 +1     1     2     3
  H(HETATM    5 1H   HET A   1)   1.02651883 +1  109.4610436 +1  -13.1904386 +1     4     1     2
  S(HETATM    6  S   HET A   1)   3.23964464 +1  133.8581955 +1 -108.1964829 +1     5     4     1
  O(HETATM    7  O   HET A   1)   1.61962615 +1   74.1425943 +1  171.1054617 +1     6     5     4
  O(HETATM    8  O   HET A   1)   1.43670595 +1  103.4423398 +1  -81.3480786 +1     6     5     4
  O(HETATM    9  O   HET A   1)   1.63241974 +1   25.9333547 +1   27.5917717 +1     6     5     4
  O(HETATM   10  O   HET A   1)   1.44509069 +1  129.7629445 +1   68.3150405 +1     6     5     4
  H(HETATM   11 2H   HET A   1)   0.98891169 +1  116.7808840 +1  144.4808962 +1     7     6     5
  H(HETATM   12 3H   HET A   1)   0.99140248 +1  118.0484139 +1 -144.9779594 +1     9     6     5
  S(HETATM   13  S   HET A   1)   3.67560489 +1  156.5456452 +1  105.4574423 +1     4     1     2
  O(HETATM   14  O   HET A   1)   1.61916746 +1   75.0099297 +1  -68.5128570 +1    13     4     1
  O(HETATM   15  O   HET A   1)   1.44709427 +1  153.6273992 +1   32.6366553 +1    13     4     1
  O(HETATM   16  O   HET A   1)   1.63001653 +1   46.4619153 +1   48.1790705 +1    13     4     1
  O(HETATM   17  O   HET A   1)   1.43446185 +1   79.0709728 +1  176.5169448 +1    13     4     1
  H(HETATM   18 4H   HET A   1)   0.99301835 +1  117.1316802 +1 -155.7941054 +1    14    13     4
  H(HETATM   19 5H   HET A   1)   0.98284343 +1  116.9154149 +1   51.2911488 +1    16    13     4
 
 TIME=     0.71
  REACTANTS AND PRODUCTS SWAPPED AROUND
 *+*+*+*+*+*+*+*+*+*+*+*+*+*+*+*+*+*+*+*+*+*+*+*+*+*+*+*+*+*+*+*+*+*+*+*+*+*+*+*+
            BAR SHORTENED BY       0.000 PERCENT
 GRADIENT CRITERION IN FLEPO =     6.900


          FOR POINT   22 FIRST  STRUCTURE
 DISTANCE A - B      8.884852
 HEAT             -434.757366
 GRADIENT NORM       9.819018
 DIRECTION COSINE    0.217070
 EPS=78.4 HTML GEO-OK
 Locate the TS

  N(HETATM    1  N   HET A   1)   0.00000000 +1    0.0000000 +1    0.0000000 +1
  O(HETATM    2  O   HET A   1)   1.13080704 +1    0.0000000 +1    0.0000000 +1     1     0     0
  O(HETATM    3  O   HET A   1)   1.12921143 +1  177.7474517 +1    0.0000000 +1     1     2     0
  O(HETATM    4  O   HET A   1)   2.28282273 +1   89.2720214 +1  167.2690408 +1     1     2     3
  H(HETATM    5 1H   HET A   1)   0.99369250 +1  111.4335589 +1   -5.4398626 +1     4     1     2
  S(HETATM    6  S   HET A   1)   3.05415829 +1  128.5376093 +1 -114.3083161 +1     5     4     1
  O(HETATM    7  O   HET A   1)   1.66264454 +1   76.1836411 +1  152.6473221 +1     6     5     4
  O(HETATM    8  O   HET A   1)   1.48097752 +1  129.6709940 +1 -109.5856733 +1     6     5     4
  O(HETATM    9  O   HET A   1)   1.47050129 +1   28.9523734 +1  -41.1492040 +1     6     5     4
  O(HETATM   10  O   HET A   1)   1.48006495 +1  114.3853424 +1   53.1997173 +1     6     5     4
  H(HETATM   11 2H   HET A   1)   0.97838427 +1  115.5818802 +1  127.6956464 +1     7     6     5
  H(HETATM   12 3H   HET A   1)   0.99863859 +1  111.8793055 +1 -114.2160101 +1     4     1     2
  S(HETATM   13  S   HET A   1)   3.60899949 +1   87.3910846 +1  136.0496635 +1     5     4     1
  O(HETATM   14  O   HET A   1)   1.62772622 +1   69.0015944 +1 -113.7208170 +1    13     5     4
  O(HETATM   15  O   HET A   1)   1.44843468 +1  158.6076343 +1  -26.2269285 +1    13     5     4
  O(HETATM   16  O   HET A   1)   1.60954279 +1   53.7222697 +1    4.9960428 +1    13     5     4
  O(HETATM   17  O   HET A   1)   1.44073169 +1   79.8648725 +1  131.6140371 +1    13     5     4
  H(HETATM   18 4H   HET A   1)   0.98853975 +1  116.7940784 +1 -121.7028789 +1    14    13     5
  H(HETATM   19 5H   HET A   1)   1.01943072 +1  119.4300616 +1   -1.9465255 +1    16    13     5
 
 TIME=     0.18
  REACTANTS AND PRODUCTS SWAPPED AROUND
 *+*+*+*+*+*+*+*+*+*+*+*+*+*+*+*+*+*+*+*+*+*+*+*+*+*+*+*+*+*+*+*+*+*+*+*+*+*+*+*+
            BAR SHORTENED BY       1.000 PERCENT
 GRADIENT CRITERION IN FLEPO =     6.819
 

                    SINCE COS WAS JUST RESET,THE SEARCH IS BEING ENDED


          FOR POINT   23 SECOND STRUCTURE
 DISTANCE A - B      8.796003
 HEAT             -435.899088
 GRADIENT NORM      13.126774
 DIRECTION COSINE   -0.205078
 EPS=78.4 HTML GEO-OK
 Locate the TS

  N(HETATM    1  N   HET A   1)   0.00000000 +1    0.0000000 +1    0.0000000 +1
  O(HETATM    2  O   HET A   1)   1.21035534 +1    0.0000000 +1    0.0000000 +1     1     0     0
  O(HETATM    3  O   HET A   1)   1.20691944 +1  129.1481951 +1    0.0000000 +1     1     2     0
  O(HETATM    4  O   HET A   1)   1.37903615 +1  117.2788733 +1 -178.6817899 +1     1     2     3
  H(HETATM    5 1H   HET A   1)   1.02717974 +1  109.5075490 +1  -13.0489437 +1     4     1     2
  S(HETATM    6  S   HET A   1)   3.23450704 +1  134.0282603 +1 -108.3720889 +1     5     4     1
  O(HETATM    7  O   HET A   1)   1.61797858 +1   74.2739638 +1  171.0202120 +1     6     5     4
  O(HETATM    8  O   HET A   1)   1.43930794 +1  103.9134199 +1  -81.3582381 +1     6     5     4
  O(HETATM    9  O   HET A   1)   1.62416217 +1   25.9380000 +1   26.8216468 +1     6     5     4
  O(HETATM   10  O   HET A   1)   1.44849650 +1  129.6079656 +1   68.2667028 +1     6     5     4
  H(HETATM   11 2H   HET A   1)   0.99150742 +1  116.7121988 +1  143.8837794 +1     7     6     5
  H(HETATM   12 3H   HET A   1)   0.98947609 +1  119.3312488 +1 -146.0863777 +1     9     6     5
  S(HETATM   13  S   HET A   1)   3.68048387 +1  156.3339447 +1  105.5472695 +1     4     1     2
  O(HETATM   14  O   HET A   1)   1.62263145 +1   74.9307460 +1  -68.2992017 +1    13     4     1
  O(HETATM   15  O   HET A   1)   1.44415972 +1  153.5267408 +1   32.6106707 +1    13     4     1
  O(HETATM   16  O   HET A   1)   1.63268818 +1   46.3678002 +1   48.5202226 +1    13     4     1
  O(HETATM   17  O   HET A   1)   1.43694561 +1   79.1605603 +1  176.8069747 +1    13     4     1
  H(HETATM   18 4H   HET A   1)   0.98694631 +1  116.9164429 +1 -155.5649118 +1    14    13     4
  H(HETATM   19 5H   HET A   1)   0.98139070 +1  116.8343810 +1   50.6397584 +1    16    13     4
 
 TIME=     0.27
  REACTANTS AND PRODUCTS SWAPPED AROUND
 *+*+*+*+*+*+*+*+*+*+*+*+*+*+*+*+*+*+*+*+*+*+*+*+*+*+*+*+*+*+*+*+*+*+*+*+*+*+*+*+
            BAR SHORTENED BY       1.000 PERCENT
 GRADIENT CRITERION IN FLEPO =    10.000


          FOR POINT   24 FIRST  STRUCTURE
 DISTANCE A - B      8.708043
 HEAT             -434.889868
 GRADIENT NORM      18.792771
 DIRECTION COSINE    0.266259
 EPS=78.4 HTML GEO-OK
 Locate the TS

  N(HETATM    1  N   HET A   1)   0.00000000 +1    0.0000000 +1    0.0000000 +1
  O(HETATM    2  O   HET A   1)   1.12843556 +1    0.0000000 +1    0.0000000 +1     1     0     0
  O(HETATM    3  O   HET A   1)   1.13152693 +1  178.2768961 +1    0.0000000 +1     1     2     0
  O(HETATM    4  O   HET A   1)   2.28420426 +1   89.2710491 +1  163.9352638 +1     1     2     3
  H(HETATM    5 1H   HET A   1)   0.99188074 +1  111.8318458 +1   -5.0755199 +1     4     1     2
  S(HETATM    6  S   HET A   1)   3.06903699 +1  128.5918009 +1 -113.6136202 +1     5     4     1
  O(HETATM    7  O   HET A   1)   1.67107698 +1   75.9951649 +1  151.8426886 +1     6     5     4
  O(HETATM    8  O   HET A   1)   1.48187341 +1  129.3760947 +1 -110.8997133 +1     6     5     4
  O(HETATM    9  O   HET A   1)   1.46909673 +1   28.6147130 +1  -41.1301124 +1     6     5     4
  O(HETATM   10  O   HET A   1)   1.47069861 +1  114.4186876 +1   52.3109789 +1     6     5     4
  H(HETATM   11 2H   HET A   1)   0.97487468 +1  115.3928428 +1  127.7645438 +1     7     6     5
  H(HETATM   12 3H   HET A   1)   0.99743004 +1  111.7631579 +1 -113.6728874 +1     4     1     2
  S(HETATM   13  S   HET A   1)   3.59818507 +1   88.1368763 +1  135.7986741 +1     5     4     1
  O(HETATM   14  O   HET A   1)   1.62236709 +1   68.8181536 +1 -113.8134068 +1    13     5     4
  O(HETATM   15  O   HET A   1)   1.45035732 +1  158.6031835 +1  -25.5743240 +1    13     5     4
  O(HETATM   16  O   HET A   1)   1.60893832 +1   53.7708986 +1    5.0102921 +1    13     5     4
  O(HETATM   17  O   HET A   1)   1.44013664 +1   79.8531318 +1  131.5104044 +1    13     5     4
  H(HETATM   18 4H   HET A   1)   0.98779631 +1  117.3824033 +1 -122.5830318 +1    14    13     5
  H(HETATM   19 5H   HET A   1)   1.02136560 +1  119.4709761 +1   -1.8594685 +1    16    13     5
 
 TIME=     0.21
  REACTANTS AND PRODUCTS SWAPPED AROUND
 *+*+*+*+*+*+*+*+*+*+*+*+*+*+*+*+*+*+*+*+*+*+*+*+*+*+*+*+*+*+*+*+*+*+*+*+*+*+*+*+
            BAR SHORTENED BY       1.000 PERCENT
 GRADIENT CRITERION IN FLEPO =    10.000


          FOR POINT   25 SECOND STRUCTURE
 DISTANCE A - B      8.620963
 HEAT             -436.846727
 GRADIENT NORM      10.899098
 DIRECTION COSINE    0.131810
 EPS=78.4 HTML GEO-OK
 Locate the TS

  N(HETATM    1  N   HET A   1)   0.00000000 +1    0.0000000 +1    0.0000000 +1
  O(HETATM    2  O   HET A   1)   1.20941965 +1    0.0000000 +1    0.0000000 +1     1     0     0
  O(HETATM    3  O   HET A   1)   1.20412352 +1  129.1267167 +1    0.0000000 +1     1     2     0
  O(HETATM    4  O   HET A   1)   1.37847561 +1  116.7223690 +1 -178.2344681 +1     1     2     3
  H(HETATM    5 1H   HET A   1)   1.03173163 +1  109.4072907 +1  -18.4440201 +1     4     1     2
  S(HETATM    6  S   HET A   1)   3.17865507 +1  139.9302936 +1 -110.3332280 +1     5     4     1
  O(HETATM    7  O   HET A   1)   1.61797263 +1   75.0764405 +1  175.6650455 +1     6     5     4
  O(HETATM    8  O   HET A   1)   1.43637200 +1  105.2958278 +1  -77.1777843 +1     6     5     4
  O(HETATM    9  O   HET A   1)   1.63002130 +1   24.4178414 +1   28.6272502 +1     6     5     4
  O(HETATM   10  O   HET A   1)   1.44420146 +1  127.1228338 +1   71.5946831 +1     6     5     4
  H(HETATM   11 2H   HET A   1)   0.98955550 +1  116.9890644 +1  142.6108851 +1     7     6     5
  H(HETATM   12 3H   HET A   1)   0.98779644 +1  116.8024142 +1 -152.1275142 +1     9     6     5
  S(HETATM   13  S   HET A   1)   3.68659831 +1  156.1087121 +1  107.9081176 +1     4     1     2
  O(HETATM   14  O   HET A   1)   1.62236319 +1   74.1690369 +1  -70.5391048 +1    13     4     1
  O(HETATM   15  O   HET A   1)   1.44610358 +1  153.6644758 +1   28.7888457 +1    13     4     1
  O(HETATM   16  O   HET A   1)   1.63252746 +1   46.0043053 +1   47.4496897 +1    13     4     1
  O(HETATM   17  O   HET A   1)   1.43789899 +1   79.6915154 +1  174.6366690 +1    13     4     1
  H(HETATM   18 4H   HET A   1)   0.98508631 +1  117.2078826 +1 -155.5841728 +1    14    13     4
  H(HETATM   19 5H   HET A   1)   0.98340779 +1  114.5561499 +1   29.0238337 +1    16    13     4
 
 *+*+*+*+*+*+*+*+*+*+*+*+*+*+*+*+*+*+*+*+*+*+*+*+*+*+*+*+*+*+*+*+*+*+*+*+*+*+*+*+
            BAR SHORTENED BY       1.000 PERCENT
 GRADIENT CRITERION IN FLEPO =     7.899


          FOR POINT   26 SECOND STRUCTURE
 DISTANCE A - B      8.534753
 HEAT             -437.112056
 GRADIENT NORM      14.247417
 DIRECTION COSINE    0.567205
 EPS=78.4 HTML GEO-OK
 Locate the TS

  N(HETATM    1  N   HET A   1)   0.00000000 +1    0.0000000 +1    0.0000000 +1
  O(HETATM    2  O   HET A   1)   1.20687379 +1    0.0000000 +1    0.0000000 +1     1     0     0
  O(HETATM    3  O   HET A   1)   1.20225895 +1  129.5686734 +1    0.0000000 +1     1     2     0
  O(HETATM    4  O   HET A   1)   1.38799803 +1  116.4347332 +1 -178.4577313 +1     1     2     3
  H(HETATM    5 1H   HET A   1)   1.03069195 +1  109.4845415 +1  -18.2344114 +1     4     1     2
  S(HETATM    6  S   HET A   1)   3.17707253 +1  139.8499749 +1 -110.4181699 +1     5     4     1
  O(HETATM    7  O   HET A   1)   1.61803601 +1   75.0745075 +1  175.4398701 +1     6     5     4
  O(HETATM    8  O   HET A   1)   1.43430497 +1  105.5371187 +1  -77.4859405 +1     6     5     4
  O(HETATM    9  O   HET A   1)   1.62686040 +1   24.3838340 +1   28.0191481 +1     6     5     4
  O(HETATM   10  O   HET A   1)   1.44355030 +1  126.9942194 +1   71.3966554 +1     6     5     4
  H(HETATM   11 2H   HET A   1)   0.98933408 +1  116.9659784 +1  142.5800616 +1     7     6     5
  H(HETATM   12 3H   HET A   1)   0.98795096 +1  117.9075729 +1 -152.6740575 +1     9     6     5
  S(HETATM   13  S   HET A   1)   3.68530979 +1  155.8503492 +1  107.6674807 +1     4     1     2
  O(HETATM   14  O   HET A   1)   1.62149802 +1   74.1972127 +1  -70.1488515 +1    13     4     1
  O(HETATM   15  O   HET A   1)   1.44613686 +1  153.5988114 +1   29.3490459 +1    13     4     1
  O(HETATM   16  O   HET A   1)   1.63141494 +1   45.9596517 +1   47.9092407 +1    13     4     1
  O(HETATM   17  O   HET A   1)   1.43681050 +1   79.7976683 +1  175.0559290 +1    13     4     1
  H(HETATM   18 4H   HET A   1)   0.98458742 +1  117.2258601 +1 -155.3808164 +1    14    13     4
  H(HETATM   19 5H   HET A   1)   0.98228581 +1  114.6509901 +1   28.7377545 +1    16    13     4
 
 *+*+*+*+*+*+*+*+*+*+*+*+*+*+*+*+*+*+*+*+*+*+*+*+*+*+*+*+*+*+*+*+*+*+*+*+*+*+*+*+
            BAR SHORTENED BY       1.000 PERCENT
 GRADIENT CRITERION IN FLEPO =    10.000


          FOR POINT   27 SECOND STRUCTURE
 DISTANCE A - B      8.449406
 HEAT             -437.223652
 GRADIENT NORM      15.556781
 DIRECTION COSINE    0.556465
 EPS=78.4 HTML GEO-OK
 Locate the TS

  N(HETATM    1  N   HET A   1)   0.00000000 +1    0.0000000 +1    0.0000000 +1
  O(HETATM    2  O   HET A   1)   1.20802943 +1    0.0000000 +1    0.0000000 +1     1     0     0
  O(HETATM    3  O   HET A   1)   1.20442381 +1  129.6742350 +1    0.0000000 +1     1     2     0
  O(HETATM    4  O   HET A   1)   1.38753438 +1  116.4735902 +1 -178.9864744 +1     1     2     3
  H(HETATM    5 1H   HET A   1)   1.02941864 +1  109.9014867 +1  -17.5319912 +1     4     1     2
  S(HETATM    6  S   HET A   1)   3.17899666 +1  139.7655743 +1 -110.1504512 +1     5     4     1
  O(HETATM    7  O   HET A   1)   1.62041301 +1   75.0243862 +1  174.5672715 +1     6     5     4
  O(HETATM    8  O   HET A   1)   1.43859761 +1  105.6058341 +1  -78.5443189 +1     6     5     4
  O(HETATM    9  O   HET A   1)   1.62616028 +1   24.2922544 +1   26.4744738 +1     6     5     4
  O(HETATM   10  O   HET A   1)   1.44357272 +1  126.9149287 +1   70.4691146 +1     6     5     4
  H(HETATM   11 2H   HET A   1)   0.99194471 +1  116.7858769 +1  142.0694107 +1     7     6     5
  H(HETATM   12 3H   HET A   1)   0.98843491 +1  118.6150383 +1 -153.5971578 +1     9     6     5
  S(HETATM   13  S   HET A   1)   3.69603194 +1  155.5606830 +1  107.6173873 +1     4     1     2
  O(HETATM   14  O   HET A   1)   1.62600115 +1   73.9426823 +1  -69.6275460 +1    13     4     1
  O(HETATM   15  O   HET A   1)   1.44353462 +1  153.2641876 +1   29.2358361 +1    13     4     1
  O(HETATM   16  O   HET A   1)   1.63046424 +1   45.6829768 +1   48.0658453 +1    13     4     1
  O(HETATM   17  O   HET A   1)   1.44029942 +1   79.6764056 +1  175.8811457 +1    13     4     1
  H(HETATM   18 4H   HET A   1)   0.98886012 +1  117.1917265 +1 -155.1020429 +1    14    13     4
  H(HETATM   19 5H   HET A   1)   0.98625424 +1  114.9502569 +1   28.5708858 +1    16    13     4
 
 TIME=     1.02
  REACTANTS AND PRODUCTS SWAPPED AROUND
 *+*+*+*+*+*+*+*+*+*+*+*+*+*+*+*+*+*+*+*+*+*+*+*+*+*+*+*+*+*+*+*+*+*+*+*+*+*+*+*+
            BAR SHORTENED BY       0.000 PERCENT
 GRADIENT CRITERION IN FLEPO =    10.000


          FOR POINT   28 FIRST  STRUCTURE
 DISTANCE A - B      8.449406
 HEAT             -434.956566
 GRADIENT NORM       7.475200
 DIRECTION COSINE    0.058890
 EPS=78.4 HTML GEO-OK
 Locate the TS

  N(HETATM    1  N   HET A   1)   0.00000000 +1    0.0000000 +1    0.0000000 +1
  O(HETATM    2  O   HET A   1)   1.13068127 +1    0.0000000 +1    0.0000000 +1     1     0     0
  O(HETATM    3  O   HET A   1)   1.12977919 +1  178.3139263 +1    0.0000000 +1     1     2     0
  O(HETATM    4  O   HET A   1)   2.28385396 +1   89.2167926 +1  166.0189901 +1     1     2     3
  H(HETATM    5 1H   HET A   1)   0.99330254 +1  112.0071644 +1   -4.9811658 +1     4     1     2
  S(HETATM    6  S   HET A   1)   3.06480138 +1  128.5980575 +1 -113.5885671 +1     5     4     1
  O(HETATM    7  O   HET A   1)   1.66547709 +1   76.1400213 +1  151.5180304 +1     6     5     4
  O(HETATM    8  O   HET A   1)   1.47767288 +1  129.5384391 +1 -111.0591691 +1     6     5     4
  O(HETATM    9  O   HET A   1)   1.46933268 +1   28.7214857 +1  -41.1331334 +1     6     5     4
  O(HETATM   10  O   HET A   1)   1.48150571 +1  114.3711547 +1   52.1578474 +1     6     5     4
  H(HETATM   11 2H   HET A   1)   0.97416893 +1  115.4050432 +1  127.4964422 +1     7     6     5
  H(HETATM   12 3H   HET A   1)   0.99094337 +1  111.8740768 +1 -114.2194067 +1     4     1     2
  S(HETATM   13  S   HET A   1)   3.59825024 +1   88.2640235 +1  135.7056669 +1     5     4     1
  O(HETATM   14  O   HET A   1)   1.62528097 +1   68.7519531 +1 -113.7599280 +1    13     5     4
  O(HETATM   15  O   HET A   1)   1.44943596 +1  158.5641597 +1  -25.7567645 +1    13     5     4
  O(HETATM   16  O   HET A   1)   1.61101435 +1   53.7228045 +1    5.1384562 +1    13     5     4
  O(HETATM   17  O   HET A   1)   1.44104812 +1   79.7889519 +1  131.5313462 +1    13     5     4
  H(HETATM   18 4H   HET A   1)   0.98835600 +1  117.2532064 +1 -122.5072268 +1    14    13     5
  H(HETATM   19 5H   HET A   1)   1.02010355 +1  119.4719571 +1   -2.1576539 +1    16    13     5
 
 TIME=     0.14
  REACTANTS AND PRODUCTS SWAPPED AROUND
 *+*+*+*+*+*+*+*+*+*+*+*+*+*+*+*+*+*+*+*+*+*+*+*+*+*+*+*+*+*+*+*+*+*+*+*+*+*+*+*+
            BAR SHORTENED BY       1.000 PERCENT
 GRADIENT CRITERION IN FLEPO =     4.475
           THERE HAVE BEEN 3 ATTEMPTS TO REDUCE THE GRADIENT.
           DURING THESE ATTEMPTS THE ENERGY DROPPED BY LESS THAN 0.3 KCAL/MOLE
           FURTHER CALCULATION IS NOT JUSTIFIED AT THIS TIME.
           TO CONTINUE, START AGAIN WITH THE WORD "PRECISE"


          FOR POINT   29 SECOND STRUCTURE
 DISTANCE A - B      8.364912
 HEAT             -437.416557
 GRADIENT NORM      11.069453
 DIRECTION COSINE   -0.155598
 EPS=78.4 HTML GEO-OK
 Locate the TS

  N(HETATM    1  N   HET A   1)   0.00000000 +1    0.0000000 +1    0.0000000 +1
  O(HETATM    2  O   HET A   1)   1.20735693 +1    0.0000000 +1    0.0000000 +1     1     0     0
  O(HETATM    3  O   HET A   1)   1.20790607 +1  129.0385704 +1    0.0000000 +1     1     2     0
  O(HETATM    4  O   HET A   1)   1.37859692 +1  117.1180994 +1 -178.3464419 +1     1     2     3
  H(HETATM    5 1H   HET A   1)   1.02840813 +1  109.4860965 +1  -17.4842835 +1     4     1     2
  S(HETATM    6  S   HET A   1)   3.18903865 +1  139.4986746 +1 -110.3338303 +1     5     4     1
  O(HETATM    7  O   HET A   1)   1.61887680 +1   75.0404858 +1  174.5704231 +1     6     5     4
  O(HETATM    8  O   HET A   1)   1.43623968 +1  106.2888817 +1  -78.8386730 +1     6     5     4
  O(HETATM    9  O   HET A   1)   1.62649650 +1   24.1666025 +1   25.8041916 +1     6     5     4
  O(HETATM   10  O   HET A   1)   1.44598452 +1  126.5959830 +1   70.5886596 +1     6     5     4
  H(HETATM   11 2H   HET A   1)   0.98949516 +1  116.8756702 +1  141.5581311 +1     7     6     5
  H(HETATM   12 3H   HET A   1)   0.98772380 +1  118.3653094 +1 -154.3910791 +1     9     6     5
  S(HETATM   13  S   HET A   1)   3.69973808 +1  155.8500144 +1  106.6372751 +1     4     1     2
  O(HETATM   14  O   HET A   1)   1.62078283 +1   73.8372571 +1  -68.8033694 +1    13     4     1
  O(HETATM   15  O   HET A   1)   1.44621462 +1  152.8269584 +1   30.2739057 +1    13     4     1
  O(HETATM   16  O   HET A   1)   1.63065733 +1   45.3651361 +1   49.0221365 +1    13     4     1
  O(HETATM   17  O   HET A   1)   1.43503605 +1   79.9283411 +1  176.6096389 +1    13     4     1
  H(HETATM   18 4H   HET A   1)   0.98735371 +1  117.2411913 +1 -155.3670301 +1    14    13     4
  H(HETATM   19 5H   HET A   1)   0.98406787 +1  115.7361417 +1   28.5803615 +1    16    13     4
 
 TIME=     0.59
  REACTANTS AND PRODUCTS SWAPPED AROUND
 *+*+*+*+*+*+*+*+*+*+*+*+*+*+*+*+*+*+*+*+*+*+*+*+*+*+*+*+*+*+*+*+*+*+*+*+*+*+*+*+
            BAR SHORTENED BY       1.000 PERCENT
 GRADIENT CRITERION IN FLEPO =     8.069


          FOR POINT   30 FIRST  STRUCTURE
 DISTANCE A - B      8.281263
 HEAT             -434.928210
 GRADIENT NORM      11.833690
 DIRECTION COSINE   -0.379307
 EPS=78.4 HTML GEO-OK
 Locate the TS

  N(HETATM    1  N   HET A   1)   0.00000000 +1    0.0000000 +1    0.0000000 +1
  O(HETATM    2  O   HET A   1)   1.12992973 +1    0.0000000 +1    0.0000000 +1     1     0     0
  O(HETATM    3  O   HET A   1)   1.13122362 +1  177.8885391 +1    0.0000000 +1     1     2     0
  O(HETATM    4  O   HET A   1)   2.27543573 +1   89.5224525 +1  176.2747638 +1     1     2     3
  H(HETATM    5 1H   HET A   1)   0.99194209 +1  112.1520515 +1   -5.4366612 +1     4     1     2
  S(HETATM    6  S   HET A   1)   3.06363256 +1  128.9568540 +1 -113.4368132 +1     5     4     1
  O(HETATM    7  O   HET A   1)   1.66508312 +1   76.1666136 +1  151.5872965 +1     6     5     4
  O(HETATM    8  O   HET A   1)   1.47594162 +1  129.3010755 +1 -110.8202059 +1     6     5     4
  O(HETATM    9  O   HET A   1)   1.46979244 +1   28.5412482 +1  -40.7703864 +1     6     5     4
  O(HETATM   10  O   HET A   1)   1.48270700 +1  114.5704445 +1   52.1794462 +1     6     5     4
  H(HETATM   11 2H   HET A   1)   0.97498252 +1  115.3728698 +1  127.5403980 +1     7     6     5
  H(HETATM   12 3H   HET A   1)   1.00255328 +1  111.8607160 +1 -113.9659402 +1     4     1     2
  S(HETATM   13  S   HET A   1)   3.59934947 +1   88.1801641 +1  135.8610058 +1     5     4     1
  O(HETATM   14  O   HET A   1)   1.62572221 +1   68.7027223 +1 -113.4947918 +1    13     5     4
  O(HETATM   15  O   HET A   1)   1.45009638 +1  158.6390937 +1  -25.6208767 +1    13     5     4
  O(HETATM   16  O   HET A   1)   1.61044382 +1   53.7791160 +1    5.2403597 +1    13     5     4
  O(HETATM   17  O   HET A   1)   1.44006982 +1   79.6744256 +1  131.6179315 +1    13     5     4
  H(HETATM   18 4H   HET A   1)   0.99005870 +1  117.0314390 +1 -122.5944258 +1    14    13     5
  H(HETATM   19 5H   HET A   1)   1.01928467 +1  119.5189046 +1   -2.0673547 +1    16    13     5
 
 TIME=     0.17
  REACTANTS AND PRODUCTS SWAPPED AROUND
 *+*+*+*+*+*+*+*+*+*+*+*+*+*+*+*+*+*+*+*+*+*+*+*+*+*+*+*+*+*+*+*+*+*+*+*+*+*+*+*+
            BAR SHORTENED BY       1.000 PERCENT
 GRADIENT CRITERION IN FLEPO =     8.834


          FOR POINT   31 SECOND STRUCTURE
 DISTANCE A - B      8.198450
 HEAT             -437.304398
 GRADIENT NORM      13.416613
 DIRECTION COSINE   -0.231062
 EPS=78.4 HTML GEO-OK
 Locate the TS

  N(HETATM    1  N   HET A   1)   0.00000000 +1    0.0000000 +1    0.0000000 +1
  O(HETATM    2  O   HET A   1)   1.20503542 +1    0.0000000 +1    0.0000000 +1     1     0     0
  O(HETATM    3  O   HET A   1)   1.20626329 +1  129.4614810 +1    0.0000000 +1     1     2     0
  O(HETATM    4  O   HET A   1)   1.38628266 +1  116.9080082 +1 -178.5477761 +1     1     2     3
  H(HETATM    5 1H   HET A   1)   1.02825718 +1  109.5222481 +1  -17.2001095 +1     4     1     2
  S(HETATM    6  S   HET A   1)   3.18834015 +1  139.3831489 +1 -110.4457667 +1     5     4     1
  O(HETATM    7  O   HET A   1)   1.61998387 +1   75.0420109 +1  174.3060676 +1     6     5     4
  O(HETATM    8  O   HET A   1)   1.43478200 +1  106.5315934 +1  -79.1668112 +1     6     5     4
  O(HETATM    9  O   HET A   1)   1.62398196 +1   24.0885190 +1   25.0635323 +1     6     5     4
[...]
  S(HETATM   13  S   HET A   1)   3.32279826 +1   93.8795094 +1  141.8015186 +1     5     4     1
  O(HETATM   14  O   HET A   1)   1.62618014 +1   43.7257371 +1 -166.9435697 +1    13     5     4
  O(HETATM   15  O   HET A   1)   1.45027776 +1  136.3629458 +1 -101.0135640 +1    13     5     4
  O(HETATM   16  O   HET A   1)   1.60621282 +1   57.8069574 +1  -16.0983924 +1    13     5     4
  O(HETATM   17  O   HET A   1)   1.44467769 +1  103.9631221 +1   89.8698775 +1    13     5     4
  H(HETATM   18 4H   HET A   1)   0.98765150 +1  118.0166695 +1 -150.8240596 +1    14    13     5
  H(HETATM   19 5H   HET A   1)   1.05031625 +1  117.3423488 +1    4.7234064 +1    16    13     5
 
 TIME=     0.06
  REACTANTS AND PRODUCTS SWAPPED AROUND
 *+*+*+*+*+*+*+*+*+*+*+*+*+*+*+*+*+*+*+*+*+*+*+*+*+*+*+*+*+*+*+*+*+*+*+*+*+*+*+*+
            BAR SHORTENED BY       1.000 PERCENT
 GRADIENT CRITERION IN FLEPO =     4.860


          FOR POINT  694 SECOND STRUCTURE
 DISTANCE A - B      0.026656
 HEAT             -430.101233
 GRADIENT NORM      12.422623
 DIRECTION COSINE   -0.771621
 EPS=78.4 HTML GEO-OK
 Locate the TS

  N(HETATM    1  N   HET A   1)   0.00000000 +1    0.0000000 +1    0.0000000 +1
  O(HETATM    2  O   HET A   1)   1.15454194 +1    0.0000000 +1    0.0000000 +1     1     0     0
  O(HETATM    3  O   HET A   1)   1.15186863 +1  152.3105036 +1    0.0000000 +1     1     2     0
  O(HETATM    4  O   HET A   1)   1.73012470 +1  103.6590193 +1 -178.7922519 +1     1     2     3
  H(HETATM    5 1H   HET A   1)   0.96913523 +1  108.3653084 +1   22.2717982 +1     4     1     2
  S(HETATM    6  S   HET A   1)   3.66619830 +1   83.7053753 +1 -122.2974249 +1     5     4     1
  O(HETATM    7  O   HET A   1)   1.62412379 +1   54.6029325 +1  147.4231776 +1     6     5     4
  O(HETATM    8  O   HET A   1)   1.44975754 +1  123.6239013 +1 -122.9928298 +1     6     5     4
  O(HETATM    9  O   HET A   1)   1.59226109 +1   45.4063600 +1  -36.5550497 +1     6     5     4
  O(HETATM   10  O   HET A   1)   1.45098818 +1  116.9966180 +1   53.6756199 +1     6     5     4
  H(HETATM   11 2H   HET A   1)   0.99216940 +1  116.9526796 +1  128.4480355 +1     7     6     5
  H(HETATM   12 3H   HET A   1)   1.06211312 +1  122.0723372 +1   23.2821880 +1     9     6     5
  S(HETATM   13  S   HET A   1)   3.32391962 +1   94.4515092 +1  141.8339688 +1     5     4     1
  O(HETATM   14  O   HET A   1)   1.62605315 +1   43.5975977 +1 -166.6725810 +1    13     5     4
  O(HETATM   15  O   HET A   1)   1.44994748 +1  136.2407531 +1 -100.5513654 +1    13     5     4
  O(HETATM   16  O   HET A   1)   1.60873472 +1   57.7951479 +1  -15.6567721 +1    13     5     4
  O(HETATM   17  O   HET A   1)   1.44421509 +1  103.9840051 +1   90.1973030 +1    13     5     4
  H(HETATM   18 4H   HET A   1)   0.98768053 +1  117.9332471 +1 -151.0900715 +1    14    13     5
  H(HETATM   19 5H   HET A   1)   1.04447442 +1  117.3352024 +1    4.6531053 +1    16    13     5
 
 TIME=     0.08
  REACTANTS AND PRODUCTS SWAPPED AROUND
 *+*+*+*+*+*+*+*+*+*+*+*+*+*+*+*+*+*+*+*+*+*+*+*+*+*+*+*+*+*+*+*+*+*+*+*+*+*+*+*+
            BAR SHORTENED BY       1.000 PERCENT
 GRADIENT CRITERION IN FLEPO =     9.423


          FOR POINT  695 FIRST  STRUCTURE
 DISTANCE A - B      0.026389
 HEAT             -429.985991
 GRADIENT NORM       7.884452
 DIRECTION COSINE   -0.778165
 EPS=78.4 HTML GEO-OK
 Locate the TS

  N(HETATM    1  N   HET A   1)   0.00000000 +1    0.0000000 +1    0.0000000 +1
  O(HETATM    2  O   HET A   1)   1.15164942 +1    0.0000000 +1    0.0000000 +1     1     0     0
  O(HETATM    3  O   HET A   1)   1.14792409 +1  154.1126049 +1    0.0000000 +1     1     2     0
  O(HETATM    4  O   HET A   1)   1.76257975 +1  102.6876791 +1 -178.5725182 +1     1     2     3
  H(HETATM    5 1H   HET A   1)   0.96643524 +1  107.6086979 +1   22.2174376 +1     4     1     2
  S(HETATM    6  S   HET A   1)   3.66311431 +1   83.4027361 +1 -122.2390242 +1     5     4     1
  O(HETATM    7  O   HET A   1)   1.62392933 +1   54.7215943 +1  148.0285971 +1     6     5     4
  O(HETATM    8  O   HET A   1)   1.45027098 +1  123.7121375 +1 -122.4647437 +1     6     5     4
  O(HETATM    9  O   HET A   1)   1.58879309 +1   45.4064822 +1  -35.9060516 +1     6     5     4
  O(HETATM   10  O   HET A   1)   1.45171385 +1  116.9822842 +1   54.3365331 +1     6     5     4
  H(HETATM   11 2H   HET A   1)   0.99132281 +1  116.9419286 +1  128.3403127 +1     7     6     5
  H(HETATM   12 3H   HET A   1)   1.07036519 +1  122.2636715 +1   23.0756475 +1     9     6     5
  S(HETATM   13  S   HET A   1)   3.32280946 +1   93.8852435 +1  141.8018575 +1     5     4     1
  O(HETATM   14  O   HET A   1)   1.62617884 +1   43.7244549 +1 -166.9408444 +1    13     5     4
  O(HETATM   15  O   HET A   1)   1.45027443 +1  136.3617242 +1 -101.0089281 +1    13     5     4
  O(HETATM   16  O   HET A   1)   1.60623804 +1   57.8068387 +1  -16.0939634 +1    13     5     4
  O(HETATM   17  O   HET A   1)   1.44467305 +1  103.9633311 +1   89.8731643 +1    13     5     4
  H(HETATM   18 4H   HET A   1)   0.98765178 +1  118.0158380 +1 -150.8267188 +1    14    13     5
  H(HETATM   19 5H   HET A   1)   1.05025781 +1  117.3422798 +1    4.7227104 +1    16    13     5
 
 TIME=     0.08
  REACTANTS AND PRODUCTS SWAPPED AROUND
 *+*+*+*+*+*+*+*+*+*+*+*+*+*+*+*+*+*+*+*+*+*+*+*+*+*+*+*+*+*+*+*+*+*+*+*+*+*+*+*+
            BAR SHORTENED BY       1.000 PERCENT
 GRADIENT CRITERION IN FLEPO =     4.884


          FOR POINT  696 SECOND STRUCTURE
 DISTANCE A - B      0.026125
 HEAT             -430.098086
 GRADIENT NORM      12.361574
 DIRECTION COSINE   -0.780662
 EPS=78.4 HTML GEO-OK
 Locate the TS

  N(HETATM    1  N   HET A   1)   0.00000000 +1    0.0000000 +1    0.0000000 +1
  O(HETATM    2  O   HET A   1)   1.15451119 +1    0.0000000 +1    0.0000000 +1     1     0     0
  O(HETATM    3  O   HET A   1)   1.15182812 +1  152.3284750 +1    0.0000000 +1     1     2     0
  O(HETATM    4  O   HET A   1)   1.73044923 +1  103.6493416 +1 -178.7902480 +1     1     2     3
  H(HETATM    5 1H   HET A   1)   0.96910754 +1  108.3577480 +1   22.2712733 +1     4     1     2
  S(HETATM    6  S   HET A   1)   3.66616746 +1   83.7023534 +1 -122.2968621 +1     5     4     1
  O(HETATM    7  O   HET A   1)   1.62412182 +1   54.6041189 +1  147.4292107 +1     6     5     4
  O(HETATM    8  O   HET A   1)   1.44976265 +1  123.6247841 +1 -122.9875696 +1     6     5     4
  O(HETATM    9  O   HET A   1)   1.59222641 +1   45.4063611 +1  -36.5485814 +1     6     5     4
  O(HETATM   10  O   HET A   1)   1.45099543 +1  116.9964746 +1   53.6822083 +1     6     5     4
  H(HETATM   11 2H   HET A   1)   0.99216092 +1  116.9525740 +1  128.4469579 +1     7     6     5
  H(HETATM   12 3H   HET A   1)   1.06219553 +1  122.0742682 +1   23.2801121 +1     9     6     5
  S(HETATM   13  S   HET A   1)   3.32390850 +1   94.4458607 +1  141.8336615 +1     5     4     1
  O(HETATM   14  O   HET A   1)   1.62605438 +1   43.5988656 +1 -166.6752485 +1    13     5     4
  O(HETATM   15  O   HET A   1)   1.44995073 +1  136.2419631 +1 -100.5559274 +1    13     5     4
  O(HETATM   16  O   HET A   1)   1.60870975 +1   57.7952642 +1  -15.6611315 +1    13     5     4
  O(HETATM   17  O   HET A   1)   1.44421966 +1  103.9837985 +1   90.1940739 +1    13     5     4
  H(HETATM   18 4H   HET A   1)   0.98768022 +1  117.9340756 +1 -151.0874371 +1    14    13     5
  H(HETATM   19 5H   HET A   1)   1.04453224 +1  117.3352756 +1    4.6538082 +1    16    13     5
 
 TIME=     0.08
  REACTANTS AND PRODUCTS SWAPPED AROUND
 *+*+*+*+*+*+*+*+*+*+*+*+*+*+*+*+*+*+*+*+*+*+*+*+*+*+*+*+*+*+*+*+*+*+*+*+*+*+*+*+
            BAR SHORTENED BY       1.000 PERCENT
 GRADIENT CRITERION IN FLEPO =     9.362


          FOR POINT  697 FIRST  STRUCTURE
 DISTANCE A - B      0.025864
 HEAT             -429.987202
 GRADIENT NORM       7.902389
 DIRECTION COSINE   -0.786686
 EPS=78.4 HTML GEO-OK
 Locate the TS

  N(HETATM    1  N   HET A   1)   0.00000000 +1    0.0000000 +1    0.0000000 +1
  O(HETATM    2  O   HET A   1)   1.15167625 +1    0.0000000 +1    0.0000000 +1     1     0     0
  O(HETATM    3  O   HET A   1)   1.14796209 +1  154.0947165 +1    0.0000000 +1     1     2     0
  O(HETATM    4  O   HET A   1)   1.76225843 +1  102.6973296 +1 -178.5748975 +1     1     2     3
  H(HETATM    5 1H   HET A   1)   0.96646128 +1  107.6161939 +1   22.2179940 +1     4     1     2
  S(HETATM    6  S   HET A   1)   3.66314484 +1   83.4057365 +1 -122.2396232 +1     5     4     1
  O(HETATM    7  O   HET A   1)   1.62393122 +1   54.7204194 +1  148.0225827 +1     6     5     4
  O(HETATM    8  O   HET A   1)   1.45026586 +1  123.7112644 +1 -122.4699921 +1     6     5     4
  O(HETATM    9  O   HET A   1)   1.58882742 +1   45.4064808 +1  -35.9124981 +1     6     5     4
  O(HETATM   10  O   HET A   1)   1.45170666 +1  116.9824261 +1   54.3299698 +1     6     5     4
  H(HETATM   11 2H   HET A   1)   0.99133118 +1  116.9420369 +1  128.3413788 +1     7     6     5
  H(HETATM   12 3H   HET A   1)   1.07028339 +1  122.2617947 +1   23.0776818 +1     9     6     5
  S(HETATM   13  S   HET A   1)   3.32282044 +1   93.8908632 +1  141.8021893 +1     5     4     1
  O(HETATM   14  O   HET A   1)   1.62617756 +1   43.7231983 +1 -166.9381735 +1    13     5     4
  O(HETATM   15  O   HET A   1)   1.45027118 +1  136.3605269 +1 -101.0043848 +1    13     5     4
  O(HETATM   16  O   HET A   1)   1.60626275 +1   57.8067224 +1  -16.0896229 +1    13     5     4
  O(HETATM   17  O   HET A   1)   1.44466851 +1  103.9635360 +1   89.8763854 +1    13     5     4
  H(HETATM   18 4H   HET A   1)   0.98765205 +1  118.0150229 +1 -150.8293252 +1    14    13     5
  H(HETATM   19 5H   HET A   1)   1.05020054 +1  117.3422122 +1    4.7220281 +1    16    13     5
 
 TIME=     0.09
  REACTANTS AND PRODUCTS SWAPPED AROUND
 *+*+*+*+*+*+*+*+*+*+*+*+*+*+*+*+*+*+*+*+*+*+*+*+*+*+*+*+*+*+*+*+*+*+*+*+*+*+*+*+
            BAR SHORTENED BY       1.000 PERCENT
 GRADIENT CRITERION IN FLEPO =     4.902


          FOR POINT  698 SECOND STRUCTURE
 DISTANCE A - B      0.025606
 HEAT             -430.095020
 GRADIENT NORM      12.301903
 DIRECTION COSINE   -0.789116
 EPS=78.4 HTML GEO-OK
 Locate the TS

  N(HETATM    1  N   HET A   1)   0.00000000 +1    0.0000000 +1    0.0000000 +1
  O(HETATM    2  O   HET A   1)   1.15448109 +1    0.0000000 +1    0.0000000 +1     1     0     0
  O(HETATM    3  O   HET A   1)   1.15178844 +1  152.3460897 +1    0.0000000 +1     1     2     0
  O(HETATM    4  O   HET A   1)   1.73076731 +1  103.6398557 +1 -178.7882805 +1     1     2     3
  H(HETATM    5 1H   HET A   1)   0.96908042 +1  108.3503379 +1   22.2707586 +1     4     1     2
  S(HETATM    6  S   HET A   1)   3.66613723 +1   83.6993915 +1 -122.2963101 +1     5     4     1
  O(HETATM    7  O   HET A   1)   1.62411989 +1   54.6052817 +1  147.4351241 +1     6     5     4
  O(HETATM    8  O   HET A   1)   1.44976765 +1  123.6256493 +1 -122.9824138 +1     6     5     4
  O(HETATM    9  O   HET A   1)   1.59219242 +1   45.4063620 +1  -36.5422415 +1     6     5     4
  O(HETATM   10  O   HET A   1)   1.45100254 +1  116.9963341 +1   53.6886661 +1     6     5     4
  H(HETATM   11 2H   HET A   1)   0.99215261 +1  116.9524704 +1  128.4459018 +1     7     6     5
  H(HETATM   12 3H   HET A   1)   1.06227630 +1  122.0761604 +1   23.2780776 +1     9     6     5
  S(HETATM   13  S   HET A   1)   3.32389761 +1   94.4403242 +1  141.8333600 +1     5     4     1
  O(HETATM   14  O   HET A   1)   1.62605558 +1   43.6001082 +1 -166.6778631 +1    13     5     4
  O(HETATM   15  O   HET A   1)   1.44995391 +1  136.2431491 +1 -100.5603989 +1    13     5     4
  O(HETATM   16  O   HET A   1)   1.60868528 +1   57.7953782 +1  -15.6654044 +1    13     5     4
  O(HETATM   17  O   HET A   1)   1.44422414 +1  103.9835961 +1   90.1909088 +1    13     5     4
  H(HETATM   18 4H   HET A   1)   0.98767993 +1  117.9348876 +1 -151.0848551 +1    14    13     5
  H(HETATM   19 5H   HET A   1)   1.04458890 +1  117.3353474 +1    4.6544970 +1    16    13     5
 
 TIME=     0.08
  REACTANTS AND PRODUCTS SWAPPED AROUND
 *+*+*+*+*+*+*+*+*+*+*+*+*+*+*+*+*+*+*+*+*+*+*+*+*+*+*+*+*+*+*+*+*+*+*+*+*+*+*+*+
            BAR SHORTENED BY       1.000 PERCENT
 GRADIENT CRITERION IN FLEPO =     9.302


          FOR POINT  699 FIRST  STRUCTURE
 DISTANCE A - B      0.025349
 HEAT             -429.988252
 GRADIENT NORM       7.921413
 DIRECTION COSINE   -0.794932
 EPS=78.4 HTML GEO-OK
 Locate the TS

  N(HETATM    1  N   HET A   1)   0.00000000 +1    0.0000000 +1    0.0000000 +1
  O(HETATM    2  O   HET A   1)   1.15170258 +1    0.0000000 +1    0.0000000 +1     1     0     0
  O(HETATM    3  O   HET A   1)   1.14799934 +1  154.0771850 +1    0.0000000 +1     1     2     0
  O(HETATM    4  O   HET A   1)   1.76194350 +1  102.7067873 +1 -178.5772253 +1     1     2     3
  H(HETATM    5 1H   HET A   1)   0.96648682 +1  107.6235406 +1   22.2185390 +1     4     1     2
  S(HETATM    6  S   HET A   1)   3.66317476 +1   83.4086771 +1 -122.2402100 +1     5     4     1
  O(HETATM    7  O   HET A   1)   1.62393309 +1   54.7192678 +1  148.0166884 +1     6     5     4
  O(HETATM    8  O   HET A   1)   1.45026085 +1  123.7104086 +1 -122.4751357 +1     6     5     4
  O(HETATM    9  O   HET A   1)   1.58886107 +1   45.4064794 +1  -35.9188158 +1     6     5     4
  O(HETATM   10  O   HET A   1)   1.45169961 +1  116.9825651 +1   54.3235374 +1     6     5     4
  H(HETATM   11 2H   HET A   1)   0.99133938 +1  116.9421430 +1  128.3424237 +1     7     6     5
  H(HETATM   12 3H   HET A   1)   1.07020321 +1  122.2599549 +1   23.0796759 +1     9     6     5
  S(HETATM   13  S   HET A   1)   3.32283121 +1   93.8963708 +1  141.8025142 +1     5     4     1
  O(HETATM   14  O   HET A   1)   1.62617631 +1   43.7219667 +1 -166.9355562 +1    13     5     4
  O(HETATM   15  O   HET A   1)   1.45026799 +1  136.3593534 +1 -100.9999321 +1    13     5     4
  O(HETATM   16  O   HET A   1)   1.60628698 +1   57.8066084 +1  -16.0853689 +1    13     5     4
  O(HETATM   17  O   HET A   1)   1.44466406 +1  103.9637367 +1   89.8795421 +1    13     5     4
  H(HETATM   18 4H   HET A   1)   0.98765231 +1  118.0142240 +1 -150.8318797 +1    14    13     5
  H(HETATM   19 5H   HET A   1)   1.05014440 +1  117.3421458 +1    4.7213592 +1    16    13     5
 
 TIME=     0.06
  REACTANTS AND PRODUCTS SWAPPED AROUND
 *+*+*+*+*+*+*+*+*+*+*+*+*+*+*+*+*+*+*+*+*+*+*+*+*+*+*+*+*+*+*+*+*+*+*+*+*+*+*+*+
            BAR SHORTENED BY       1.000 PERCENT
 GRADIENT CRITERION IN FLEPO =     4.921


          FOR POINT  700 SECOND STRUCTURE
 DISTANCE A - B      0.025096
 HEAT             -430.092032
 GRADIENT NORM      12.243579
 DIRECTION COSINE   -0.797295
 EPS=78.4 HTML GEO-OK
 Locate the TS

  N(HETATM    1  N   HET A   1)   0.00000000 +1    0.0000000 +1    0.0000000 +1
  O(HETATM    2  O   HET A   1)   1.15445163 +1    0.0000000 +1    0.0000000 +1     1     0     0
  O(HETATM    3  O   HET A   1)   1.15174957 +1  152.3633548 +1    0.0000000 +1     1     2     0
  O(HETATM    4  O   HET A   1)   1.73107906 +1  103.6305580 +1 -178.7863487 +1     1     2     3
  H(HETATM    5 1H   HET A   1)   0.96905385 +1  108.3430751 +1   22.2702537 +1     4     1     2
  S(HETATM    6  S   HET A   1)   3.66610760 +1   83.6964885 +1 -122.2957687 +1     5     4     1
  O(HETATM    7  O   HET A   1)   1.62411799 +1   54.6064213 +1  147.4409202 +1     6     5     4
  O(HETATM    8  O   HET A   1)   1.44977255 +1  123.6264974 +1 -122.9773601 +1     6     5     4
  O(HETATM    9  O   HET A   1)   1.59215910 +1   45.4063630 +1  -36.5360273 +1     6     5     4
  O(HETATM   10  O   HET A   1)   1.45100950 +1  116.9961964 +1   53.6949957 +1     6     5     4
  H(HETATM   11 2H   HET A   1)   0.99214447 +1  116.9523688 +1  128.4448667 +1     7     6     5
  H(HETATM   12 3H   HET A   1)   1.06235547 +1  122.0780147 +1   23.2760839 +1     9     6     5
  S(HETATM   13  S   HET A   1)   3.32388694 +1   94.4348977 +1  141.8330643 +1     5     4     1
  O(HETATM   14  O   HET A   1)   1.62605676 +1   43.6013261 +1 -166.6804260 +1    13     5     4
  O(HETATM   15  O   HET A   1)   1.44995704 +1  136.2443114 +1 -100.5647816 +1    13     5     4
  O(HETATM   16  O   HET A   1)   1.60866129 +1   57.7954900 +1  -15.6695924 +1    13     5     4
  O(HETATM   17  O   HET A   1)   1.44422853 +1  103.9833977 +1   90.1878065 +1    13     5     4
  H(HETATM   18 4H   HET A   1)   0.98767964 +1  117.9356834 +1 -151.0823246 +1    14    13     5
  H(HETATM   19 5H   HET A   1)   1.04464443 +1  117.3354176 +1    4.6551719 +1    16    13     5
 
 TIME=     0.08
  REACTANTS AND PRODUCTS SWAPPED AROUND
 *+*+*+*+*+*+*+*+*+*+*+*+*+*+*+*+*+*+*+*+*+*+*+*+*+*+*+*+*+*+*+*+*+*+*+*+*+*+*+*+
            BAR SHORTENED BY       1.000 PERCENT
 GRADIENT CRITERION IN FLEPO =     9.244


          FOR POINT  701 FIRST  STRUCTURE
 DISTANCE A - B      0.024845
 HEAT             -429.989449
 GRADIENT NORM       7.940047
 DIRECTION COSINE   -0.802833
 EPS=78.4 HTML GEO-OK
 Locate the TS

  N(HETATM    1  N   HET A   1)   0.00000000 +1    0.0000000 +1    0.0000000 +1
  O(HETATM    2  O   HET A   1)   1.15172841 +1    0.0000000 +1    0.0000000 +1     1     0     0
  O(HETATM    3  O   HET A   1)   1.14803588 +1  154.0600032 +1    0.0000000 +1     1     2     0
  O(HETATM    4  O   HET A   1)   1.76163485 +1  102.7160562 +1 -178.5795027 +1     1     2     3
  H(HETATM    5 1H   HET A   1)   0.96651187 +1  107.6307411 +1   22.2190728 +1     4     1     2
  S(HETATM    6  S   HET A   1)   3.66320409 +1   83.4115591 +1 -122.2407847 +1     5     4     1
  O(HETATM    7  O   HET A   1)   1.62393491 +1   54.7181391 +1  148.0109117 +1     6     5     4
  O(HETATM    8  O   HET A   1)   1.45025594 +1  123.7095699 +1 -122.4801765 +1     6     5     4
  O(HETATM    9  O   HET A   1)   1.58889405 +1   45.4064780 +1  -35.9250075 +1     6     5     4
  O(HETATM   10  O   HET A   1)   1.45169271 +1  116.9827014 +1   54.3172334 +1     6     5     4
  H(HETATM   11 2H   HET A   1)   0.99134742 +1  116.9422469 +1  128.3434478 +1     7     6     5
  H(HETATM   12 3H   HET A   1)   1.07012464 +1  122.2581514 +1   23.0816305 +1     9     6     5
  S(HETATM   13  S   HET A   1)   3.32284175 +1   93.9017686 +1  141.8028325 +1     5     4     1
  O(HETATM   14  O   HET A   1)   1.62617508 +1   43.7207596 +1 -166.9329911 +1    13     5     4
  O(HETATM   15  O   HET A   1)   1.45026486 +1  136.3582032 +1 -100.9955682 +1    13     5     4
  O(HETATM   16  O   HET A   1)   1.60631072 +1   57.8064967 +1  -16.0811999 +1    13     5     4
  O(HETATM   17  O   HET A   1)   1.44465970 +1  103.9639335 +1   89.8826359 +1    13     5     4
  H(HETATM   18 4H   HET A   1)   0.98765257 +1  118.0134409 +1 -150.8343833 +1    14    13     5
  H(HETATM   19 5H   HET A   1)   1.05008938 +1  117.3420807 +1    4.7207035 +1    16    13     5
 

          BOTH SYSTEMS ARE ON THE SAME SIDE OF THE TRANSITION STATE.

 ******************************************************************************
 *                                                                            *
 *     Error and normal termination messages reported in this calculation     *
 *                                                                            *
 * BOTH SYSTEMS ARE ON THE SAME SIDE OF THE TRANSITION STATE.                 *
 * JOB ENDED NORMALLY                                                         *
 *                                                                            *
 ******************************************************************************



 TOTAL JOB TIME:           128.86 SECONDS

 == MOPAC DONE ==
