 *******************************************************************************
 ** Site#: 37037        For non-commercial use only           Version 21.165W **
 *******************************************************************************
 ** Cite this program as: MOPAC2016, Version: 21.165W, James J. P. Stewart,   **
 ** Stewart Computational Chemistry, web: HTTP://OpenMOPAC.net. Days left: 362**
 *******************************************************************************
 **                                                                           **
 **                                MOPAC2016                                  **
 **                                                                           **
 *******************************************************************************

                              PM7 CALCULATION RESULTS

 *******************************************************************************
 *  CALCULATION DONE:                                Thu Jun 17 12:10:00 2021  *
 *  SYMMETRY   - SYMMETRY CONDITIONS TO BE IMPOSED
 *  EPS=78.4   - USE ANDREAS KLAMT'S COSMO IMPLICIT SOLVATION MODEL
 *  STEP       - STEP-SIZE IN PATH =  -0.005
 *  POINT      - NUMBER OF POINTS IN PATH = 60
 *  LET        - OVERRIDE SOME SAFETY CHECKS
 *  LBFGS      - USE THE LBFGS GEOMETRY OPTIMIZER
 *  T=         - A TIME OF 172800.0 SECONDS REQUESTED
 *  DUMP=N     - RESTART FILE WRITTEN EVERY 7200.0 SECONDS REQUESTED
 *  DDMIN=     - MINIMUM TRUST RADIUS  0.000 ANG/RAD
 *  GNORM      - EXIT WHEN GRADIENT NORM DROPS BELOW 0.500
 *  HTML       - WRITE HTML SCRIPT TO GENERATE ANIMATION USING JSMOL
 *             - TO DISPLAY IN PDB FORMAT, ADD "PDBOUT"
 *  HTML(NORES)- SUPPRESS LIST OF RESIDUES IN HTML FILE
 *******************************************************************************



                    PARAMETER DEPENDENCE DATA

        REFERENCE ATOM      FUNCTION NO.    DEPENDENT ATOM(S)
        " XX   HET K   1"            1          "  C1  HET K   1"

             DESCRIPTIONS OF THE FUNCTIONS USED
   1      BOND LENGTH    IS SET EQUAL TO THE REFERENCE BOND LENGTH   
 
HTML(nores) symmetry  step=-0.005 points=60   gnorm=0.5 EPS=78.4 let(100) ddmin=0 lbfgs
 Using a a symmetry-defined dummy atom to locate the transition state for the reaction [CHO-CH-CH3]^(-) + [C5H5N-CH3]^(+) => CHO-CH=CH2 + C5H6N-CH3

  ATOM               CHEMICAL                 BOND LENGTH      BOND ANGLE     TWIST ANGLE 
 NUMBER               SYMBOL                  (ANGSTROMS)      (DEGREES)       (DEGREES) 
   (I)                                           NA:I           NB:NA:I       NC:NB:NA:I       NA    NB    NC 
     1       O(HETATM    1  O   HET A   1)   -1.92855612  *   -0.7583076  *   -0.2496616  *
     2       C(HETATM    2  C   HET B   2)    1.80894420  *   -1.1153332  *    0.0050757  *
     3       C(HETATM    3  C   HET C   1)   -1.98966483  *    0.4410587  *    0.0010132  *
     4       C(HETATM    4  C1  HET D   2)    0.81392136  *    0.5329764  *    1.4470062  *
     5       N(HETATM    5  N   HET D   2)    1.16788615  *   -0.7865787  *    1.1953957  *
     6       C(HETATM    6  C2  HET D   2)    1.11834047  *    1.5234048  *    0.5687942  *
     7       C(HETATM    7  C3  HET D   2)    1.66432925  *    1.2141708  *   -0.7520805  *
     8       C(HETATM    8  C4  HET D   2)    2.13419040  *   -0.1634813  *   -0.9044412  *
     9       H(HETATM    9  H   HET E   1)   -2.43083388  *    0.7389968  *    0.9652548  *
    10       C(HETATM   10  C   HET F   2)    0.58185638  *   -1.8481640  *    2.0156284  *
    11      XX(HETATM   11 XX   HET K   1)    1.44000000  *  103.9574041  *   99.7119483  *     7     6     4
    12       H(HETATM   11 1H1  HET K   1)    0.20000000  +  180.0000000       0.0000000       11     7     6
    13       H(HETATM   12 2H1  HET K   1)   -0.64482114  *    0.1534795  *   -2.3431653  *
    14       H(HETATM   13 3H1  HET K   1)   -0.61480900  *    1.9317825  *   -2.7878373  *
    15       H(HETATM   14  H2  HET K   1)   -1.79466719  *    2.4904071  *   -0.6454156  *
    16       H(HETATM   15  H1  HET D   2)    0.33448968  *    0.7232801  *    2.4150905  *
    17       H(HETATM   16  H2  HET D   2)    0.92669549  *    2.5642607  *    0.8059299  *
    18       H(HETATM   17  H3  HET D   2)    2.29004938  *    1.9896576  *   -1.2097163  *
    19       H(HETATM   18  H4  HET D   2)    2.72454739  *   -0.3998536  *   -1.7834026  *
    20       H(HETATM   19 1H   HET F   2)    0.63129878  *   -1.5848040  *    3.0884999  *
    21       H(HETATM   20 2H   HET F   2)    1.12677711  *   -2.8006099  *    1.8823074  *
    22       H(HETATM   21 3H   HET F   2)   -0.47862784  *   -2.0213981  *    1.7495109  *
    23       C(HETATM   22  C1  HET K   1)    1.44000000     157.4568170  *  -35.9377026  *    11     7     6
    24       C(HETATM   23  C2  HET K   1)   -1.54401765  *    1.4658193  *   -0.9013172  *
    25       H(HETATM   24  H   HET B   2)    2.07446105  *   -2.1721104  *   -0.1183151  *
 

 General Reference for PM7:
 "Optimization of Parameters for Semiempirical Methods VI: More Modifications to the 
 NDDO Approximations and Re-optimization of Parameters", J. J. P. Stewart, J. Mol. Mod., 1:32, 19 (2013)
 https://link.springer.com/article/10.1007/s00894-012-1667-x

           Empirical Formula: C9 H13 N O  =    24 atoms



      MOLECULAR POINT GROUP   :   C1  


      RHF CALCULATION, NO. OF DOUBLY OCCUPIED LEVELS = 30


          ABOUT TO ENTER L-BFGS FROM PATHK

          Geometry optimization using L-BFGS

          Keyword "LET" re-set the number of cycles used in identifying the lowest-energy geometry to 100
 CYCLE:     1 TIME:   0.031 TIME LEFT:  2.00D  GRAD.:   391.824 HEAT:  44.26746
 CYCLE:     2 TIME:   0.031 TIME LEFT:  2.00D  GRAD.:   303.615 HEAT:  42.91042
 CYCLE:     3 TIME:   0.031 TIME LEFT:  2.00D  GRAD.:   225.673 HEAT:  38.79945
 CYCLE:     4 TIME:   0.016 TIME LEFT:  2.00D  GRAD.:   310.004 HEAT:  42.91023
 CYCLE:     5 TIME:   0.031 TIME LEFT:  2.00D  GRAD.:   227.630 HEAT:  38.75210
 CYCLE:     6 TIME:   0.031 TIME LEFT:  2.00D  GRAD.:   269.960 HEAT:  35.15948
 CYCLE:     7 TIME:   0.016 TIME LEFT:  2.00D  GRAD.:   314.926 HEAT:  29.75972
 CYCLE:     8 TIME:   0.031 TIME LEFT:  2.00D  GRAD.:   349.573 HEAT:  29.80678
 CYCLE:     9 TIME:   0.016 TIME LEFT:  2.00D  GRAD.:   122.751 HEAT:  26.89910
 CYCLE:    10 TIME:   0.031 TIME LEFT:  2.00D  GRAD.:    56.318 HEAT:  26.27486
 CYCLE:    11 TIME:   0.016 TIME LEFT:  2.00D  GRAD.:    60.727 HEAT:  25.90153
 CYCLE:    12 TIME:   0.016 TIME LEFT:  2.00D  GRAD.:    96.008 HEAT:  25.37725
 CYCLE:    13 TIME:   0.031 TIME LEFT:  2.00D  GRAD.:   140.535 HEAT:  24.30829
 CYCLE:    14 TIME:   0.016 TIME LEFT:  2.00D  GRAD.:   116.800 HEAT:  22.91090
 CYCLE:    15 TIME:   0.031 TIME LEFT:  2.00D  GRAD.:    74.313 HEAT:  21.64620
 CYCLE:    16 TIME:   0.016 TIME LEFT:  2.00D  GRAD.:    29.346 HEAT:  21.07102
 CYCLE:    17 TIME:   0.031 TIME LEFT:  2.00D  GRAD.:    37.053 HEAT:  20.93305
 CYCLE:    18 TIME:   0.016 TIME LEFT:  2.00D  GRAD.:    41.450 HEAT:  20.73798
 CYCLE:    19 TIME:   0.031 TIME LEFT:  2.00D  GRAD.:    25.960 HEAT:  20.46237
 CYCLE:    20 TIME:   0.031 TIME LEFT:  2.00D  GRAD.:    30.398 HEAT:  20.28336
 CYCLE:    21 TIME:   0.031 TIME LEFT:  2.00D  GRAD.:    27.567 HEAT:  20.21385
 CYCLE:    22 TIME:   0.031 TIME LEFT:  2.00D  GRAD.:    25.833 HEAT:  19.98391
 CYCLE:    23 TIME:   0.016 TIME LEFT:  2.00D  GRAD.:    22.018 HEAT:  19.91493
 CYCLE:    24 TIME:   0.031 TIME LEFT:  2.00D  GRAD.:    11.308 HEAT:  19.82430
 CYCLE:    25 TIME:   0.016 TIME LEFT:  2.00D  GRAD.:    12.342 HEAT:  19.79770
 CYCLE:    26 TIME:   0.031 TIME LEFT:  2.00D  GRAD.:    70.360 HEAT:  20.03287
 CYCLE:    27 TIME:   0.016 TIME LEFT:  2.00D  GRAD.:    10.102 HEAT:  19.65334
 CYCLE:    28 TIME:   0.031 TIME LEFT:  2.00D  GRAD.:     9.053 HEAT:  19.63863
 CYCLE:    29 TIME:   0.016 TIME LEFT:  2.00D  GRAD.:    17.270 HEAT:  19.61611
 CYCLE:    30 TIME:   0.031 TIME LEFT:  2.00D  GRAD.:    49.214 HEAT:  19.69347
 CYCLE:    31 TIME:   0.016 TIME LEFT:  2.00D  GRAD.:     7.792 HEAT:  19.61636
 CYCLE:    32 TIME:   0.031 TIME LEFT:  2.00D  GRAD.:     4.973 HEAT:  19.59723
 CYCLE:    33 TIME:   0.016 TIME LEFT:  2.00D  GRAD.:     4.663 HEAT:  19.61854
 CYCLE:    34 TIME:   0.031 TIME LEFT:  2.00D  GRAD.:    11.934 HEAT:  19.61066
 CYCLE:    35 TIME:   0.016 TIME LEFT:  2.00D  GRAD.:     8.652 HEAT:  19.57960
 CYCLE:    36 TIME:   0.016 TIME LEFT:  2.00D  GRAD.:     6.984 HEAT:  19.56491
 CYCLE:    37 TIME:   0.031 TIME LEFT:  2.00D  GRAD.:     4.727 HEAT:  19.56514
 CYCLE:    38 TIME:   0.016 TIME LEFT:  2.00D  GRAD.:     5.069 HEAT:  19.56351
 CYCLE:    39 TIME:   0.031 TIME LEFT:  2.00D  GRAD.:     5.612 HEAT:  19.56665
 CYCLE:    40 TIME:   0.016 TIME LEFT:  2.00D  GRAD.:    16.624 HEAT:  19.58480
 CYCLE:    41 TIME:   0.031 TIME LEFT:  2.00D  GRAD.:     4.472 HEAT:  19.54281
 CYCLE:    42 TIME:   0.016 TIME LEFT:  2.00D  GRAD.:     2.719 HEAT:  19.54370
 CYCLE:    43 TIME:   0.016 TIME LEFT:  2.00D  GRAD.:     3.498 HEAT:  19.57545
 CYCLE:    44 TIME:   0.031 TIME LEFT:  2.00D  GRAD.:     4.672 HEAT:  19.57183
 CYCLE:    45 TIME:   0.031 TIME LEFT:  2.00D  GRAD.:    24.147 HEAT:  19.62480
 CYCLE:    46 TIME:   0.016 TIME LEFT:  2.00D  GRAD.:     7.306 HEAT:  19.57425
 CYCLE:    47 TIME:   0.016 TIME LEFT:  2.00D  GRAD.:     4.756 HEAT:  19.55736
 CYCLE:    48 TIME:   0.031 TIME LEFT:  2.00D  GRAD.:     6.280 HEAT:  19.53982
 CYCLE:    49 TIME:   0.031 TIME LEFT:  2.00D  GRAD.:     8.719 HEAT:  19.55811
 CYCLE:    50 TIME:   0.016 TIME LEFT:  2.00D  GRAD.:     5.036 HEAT:  19.54582
 CYCLE:    51 TIME:   0.031 TIME LEFT:  2.00D  GRAD.:     4.757 HEAT:  19.55021
 CYCLE:    52 TIME:   0.031 TIME LEFT:  2.00D  GRAD.:     5.148 HEAT:  19.55245
 CYCLE:    53 TIME:   0.031 TIME LEFT:  2.00D  GRAD.:     5.592 HEAT:  19.55078
 CYCLE:    54 TIME:   0.016 TIME LEFT:  2.00D  GRAD.:     6.031 HEAT:  19.55510
 CYCLE:    55 TIME:   0.031 TIME LEFT:  2.00D  GRAD.:     5.677 HEAT:  19.55601
 CYCLE:    56 TIME:   0.016 TIME LEFT:  2.00D  GRAD.:    18.844 HEAT:  19.60887
 CYCLE:    57 TIME:   0.016 TIME LEFT:  2.00D  GRAD.:     4.384 HEAT:  19.54640
 CYCLE:    58 TIME:   0.031 TIME LEFT:  2.00D  GRAD.:     3.372 HEAT:  19.55773
 CYCLE:    59 TIME:   0.016 TIME LEFT:  2.00D  GRAD.:    11.896 HEAT:  19.53943
 CYCLE:    60 TIME:   0.031 TIME LEFT:  2.00D  GRAD.:     4.018 HEAT:  19.53835
 CYCLE:    61 TIME:   0.016 TIME LEFT:  2.00D  GRAD.:     5.363 HEAT:  19.52879
 CYCLE:    62 TIME:   0.031 TIME LEFT:  2.00D  GRAD.:    10.220 HEAT:  19.62317
 CYCLE:    63 TIME:   0.016 TIME LEFT:  2.00D  GRAD.:     5.824 HEAT:  19.71192
 CYCLE:    64 TIME:   0.031 TIME LEFT:  2.00D  GRAD.:     3.451 HEAT:  19.66350
 CYCLE:    65 TIME:   0.016 TIME LEFT:  2.00D  GRAD.:     2.496 HEAT:  19.60286
 CYCLE:    66 TIME:   0.031 TIME LEFT:  2.00D  GRAD.:    21.977 HEAT:  19.65922
 CYCLE:    67 TIME:   0.016 TIME LEFT:  2.00D  GRAD.:     7.298 HEAT:  19.64590
 CYCLE:    68 TIME:   0.031 TIME LEFT:  2.00D  GRAD.:     3.707 HEAT:  19.64722
 CYCLE:    69 TIME:   0.016 TIME LEFT:  2.00D  GRAD.:     5.805 HEAT:  19.69317
 CYCLE:    70 TIME:   0.031 TIME LEFT:  2.00D  GRAD.:     6.960 HEAT:  19.71640
 CYCLE:    71 TIME:   0.016 TIME LEFT:  2.00D  GRAD.:     7.015 HEAT:  19.73522
 CYCLE:    72 TIME:   0.031 TIME LEFT:  2.00D  GRAD.:    10.229 HEAT:  19.72803
 CYCLE:    73 TIME:   0.031 TIME LEFT:  2.00D  GRAD.:    17.385 HEAT:  19.72874
 CYCLE:    74 TIME:   0.031 TIME LEFT:  2.00D  GRAD.:    64.884 HEAT:  19.80720
 CYCLE:    75 TIME:   0.016 TIME LEFT:  2.00D  GRAD.:     3.532 HEAT:  19.68643
 CYCLE:    76 TIME:   0.031 TIME LEFT:  2.00D  GRAD.:     3.624 HEAT:  19.73247
 CYCLE:    77 TIME:   0.031 TIME LEFT:  2.00D  GRAD.:     4.614 HEAT:  19.59603
 CYCLE:    78 TIME:   0.016 TIME LEFT:  2.00D  GRAD.:     3.973 HEAT:  19.77697
 CYCLE:    79 TIME:   0.031 TIME LEFT:  2.00D  GRAD.:     9.096 HEAT:  19.71164
 CYCLE:    80 TIME:   0.031 TIME LEFT:  2.00D  GRAD.:     7.169 HEAT:  19.71454
 CYCLE:    81 TIME:   0.016 TIME LEFT:  2.00D  GRAD.:     4.729 HEAT:  19.81181
 CYCLE:    82 TIME:   0.031 TIME LEFT:  2.00D  GRAD.:     4.199 HEAT:  19.77952
 CYCLE:    83 TIME:   0.031 TIME LEFT:  2.00D  GRAD.:     4.006 HEAT:  19.82516
 CYCLE:    84 TIME:   0.016 TIME LEFT:  2.00D  GRAD.:     8.550 HEAT:  19.74719
 CYCLE:    85 TIME:   0.031 TIME LEFT:  2.00D  GRAD.:     7.682 HEAT:  19.55742
 CYCLE:    86 TIME:   0.031 TIME LEFT:  2.00D  GRAD.:     6.075 HEAT:  19.64451
 CYCLE:    87 TIME:   0.031 TIME LEFT:  2.00D  GRAD.:     6.207 HEAT:  19.73483
 CYCLE:    88 TIME:   0.031 TIME LEFT:  2.00D  GRAD.:    64.563 HEAT:  19.81741
 CYCLE:    89 TIME:   0.016 TIME LEFT:  2.00D  GRAD.:    11.762 HEAT:  19.76186
 CYCLE:    90 TIME:   0.031 TIME LEFT:  2.00D  GRAD.:     7.142 HEAT:  19.72970
 CYCLE:    91 TIME:   0.031 TIME LEFT:  2.00D  GRAD.:     4.805 HEAT:  19.73629
 CYCLE:    92 TIME:   0.031 TIME LEFT:  2.00D  GRAD.:     6.850 HEAT:  19.74033
 CYCLE:    93 TIME:   0.031 TIME LEFT:  2.00D  GRAD.:     8.589 HEAT:  19.85194
 CYCLE:    94 TIME:   0.031 TIME LEFT:  2.00D  GRAD.:     5.251 HEAT:  20.02235
 CYCLE:    95 TIME:   0.031 TIME LEFT:  2.00D  GRAD.:     9.342 HEAT:  19.96900
 CYCLE:    96 TIME:   0.016 TIME LEFT:  2.00D  GRAD.:     9.179 HEAT:  19.71500
 CYCLE:    97 TIME:   0.031 TIME LEFT:  2.00D  GRAD.:     3.233 HEAT:  19.84149
 CYCLE:    98 TIME:   0.031 TIME LEFT:  2.00D  GRAD.:     5.181 HEAT:  19.84189
 CYCLE:    99 TIME:   0.031 TIME LEFT:  2.00D  GRAD.:     6.627 HEAT:  19.83973
 CYCLE:   100 TIME:   0.031 TIME LEFT:  2.00D  GRAD.:     6.460 HEAT:  19.85146
 CYCLE:   101 TIME:   0.031 TIME LEFT:  2.00D  GRAD.:     5.275 HEAT:  19.87973
 CYCLE:   102 TIME:   0.016 TIME LEFT:  2.00D  GRAD.:    12.089 HEAT:  19.89659
 CYCLE:   103 TIME:   0.031 TIME LEFT:  2.00D  GRAD.:     3.230 HEAT:  19.88243
 CYCLE:   104 TIME:   0.016 TIME LEFT:  2.00D  GRAD.:     3.424 HEAT:  19.86996
 CYCLE:   105 TIME:   0.031 TIME LEFT:  2.00D  GRAD.:     3.530 HEAT:  19.87032
 CYCLE:   106 TIME:   0.031 TIME LEFT:  2.00D  GRAD.:     8.436 HEAT:  19.75606
 CYCLE:   107 TIME:   0.016 TIME LEFT:  2.00D  GRAD.:    10.177 HEAT:  19.74725
 CYCLE:   108 TIME:   0.016 TIME LEFT:  2.00D  GRAD.:     6.292 HEAT:  19.73667
 CYCLE:   109 TIME:   0.031 TIME LEFT:  2.00D  GRAD.:     3.640 HEAT:  19.73929
 CYCLE:   110 TIME:   0.016 TIME LEFT:  2.00D  GRAD.:     3.599 HEAT:  19.72948
 CYCLE:   111 TIME:   0.031 TIME LEFT:  2.00D  GRAD.:     2.898 HEAT:  19.73913
 CYCLE:   112 TIME:   0.016 TIME LEFT:  2.00D  GRAD.:     4.174 HEAT:  19.74134
 CYCLE:   113 TIME:   0.031 TIME LEFT:  2.00D  GRAD.:     4.506 HEAT:  19.75521
 CYCLE:   114 TIME:   0.016 TIME LEFT:  2.00D  GRAD.:     3.747 HEAT:  19.87596
 CYCLE:   115 TIME:   0.031 TIME LEFT:  2.00D  GRAD.:     5.518 HEAT:  19.79535
 CYCLE:   116 TIME:   0.016 TIME LEFT:  2.00D  GRAD.:     4.028 HEAT:  19.82586
 CYCLE:   117 TIME:   0.016 TIME LEFT:  2.00D  GRAD.:     9.706 HEAT:  19.77551
 CYCLE:   118 TIME:   0.031 TIME LEFT:  2.00D  GRAD.:     3.124 HEAT:  19.78415
 CYCLE:   119 TIME:   0.016 TIME LEFT:  2.00D  GRAD.:     3.887 HEAT:  19.77966
 CYCLE:   120 TIME:   0.031 TIME LEFT:  2.00D  GRAD.:     3.681 HEAT:  19.77863
 CYCLE:   121 TIME:   0.016 TIME LEFT:  2.00D  GRAD.:     4.249 HEAT:  19.80719
 CYCLE:   122 TIME:   0.016 TIME LEFT:  2.00D  GRAD.:     5.594 HEAT:  19.84458
 CYCLE:   123 TIME:   0.031 TIME LEFT:  2.00D  GRAD.:     8.129 HEAT:  19.89635
 CYCLE:   124 TIME:   0.016 TIME LEFT:  2.00D  GRAD.:     6.221 HEAT:  19.93107
 CYCLE:   125 TIME:   0.031 TIME LEFT:  2.00D  GRAD.:     7.091 HEAT:  19.92726
 CYCLE:   126 TIME:   0.016 TIME LEFT:  2.00D  GRAD.:     5.534 HEAT:  19.87540
 CYCLE:   127 TIME:   0.031 TIME LEFT:  2.00D  GRAD.:     4.273 HEAT:  19.86844
 CYCLE:   128 TIME:   0.016 TIME LEFT:  2.00D  GRAD.:     7.260 HEAT:  19.90977
 CYCLE:   129 TIME:   0.031 TIME LEFT:  2.00D  GRAD.:     6.282 HEAT:  19.97629
 CYCLE:   130 TIME:   0.016 TIME LEFT:  2.00D  GRAD.:    19.595 HEAT:  19.93426
 CYCLE:   131 TIME:   0.031 TIME LEFT:  2.00D  GRAD.:    11.616 HEAT:  20.03535
 CYCLE:   132 TIME:   0.031 TIME LEFT:  2.00D  GRAD.:     4.197 HEAT:  19.97389
 CYCLE:   133 TIME:   0.016 TIME LEFT:  2.00D  GRAD.:     3.398 HEAT:  19.97301
 CYCLE:   134 TIME:   0.031 TIME LEFT:  2.00D  GRAD.:     8.182 HEAT:  19.96575
 CYCLE:   135 TIME:   0.031 TIME LEFT:  2.00D  GRAD.:     5.913 HEAT:  19.88917
 CYCLE:   136 TIME:   0.031 TIME LEFT:  2.00D  GRAD.:     4.245 HEAT:  19.88991
 CYCLE:   137 TIME:   0.016 TIME LEFT:  2.00D  GRAD.:     6.093 HEAT:  19.92319
 CYCLE:   138 TIME:   0.031 TIME LEFT:  2.00D  GRAD.:     8.165 HEAT:  19.88647
 CYCLE:   139 TIME:   0.031 TIME LEFT:  2.00D  GRAD.:    34.148 HEAT:  19.91878
 CYCLE:   140 TIME:   0.031 TIME LEFT:  2.00D  GRAD.:     6.587 HEAT:  19.83830
 CYCLE:   141 TIME:   0.016 TIME LEFT:  2.00D  GRAD.:     4.779 HEAT:  19.78987
 CYCLE:   142 TIME:   0.031 TIME LEFT:  2.00D  GRAD.:     3.936 HEAT:  19.73882
 CYCLE:   143 TIME:   0.031 TIME LEFT:  2.00D  GRAD.:     7.348 HEAT:  19.81249
 CYCLE:   144 TIME:   0.031 TIME LEFT:  2.00D  GRAD.:    31.157 HEAT:  19.83987
 CYCLE:   145 TIME:   0.016 TIME LEFT:  2.00D  GRAD.:     5.194 HEAT:  19.86394
 CYCLE:   146 TIME:   0.016 TIME LEFT:  2.00D  GRAD.:     4.680 HEAT:  19.88072
 CYCLE:   147 TIME:   0.031 TIME LEFT:  2.00D  GRAD.:    11.151 HEAT:  19.89213
 CYCLE:   148 TIME:   0.031 TIME LEFT:  2.00D  GRAD.:     7.640 HEAT:  19.92528
 CYCLE:   149 TIME:   0.016 TIME LEFT:  2.00D  GRAD.:     5.321 HEAT:  20.00014
 CYCLE:   150 TIME:   0.031 TIME LEFT:  2.00D  GRAD.:     7.662 HEAT:  19.95741
 CYCLE:   151 TIME:   0.031 TIME LEFT:  2.00D  GRAD.:     4.911 HEAT:  19.97995
 CYCLE:   152 TIME:   0.031 TIME LEFT:  2.00D  GRAD.:     5.538 HEAT:  19.96979
 CYCLE:   153 TIME:   0.031 TIME LEFT:  2.00D  GRAD.:     8.535 HEAT:  19.88704
 CYCLE:   154 TIME:   0.031 TIME LEFT:  2.00D  GRAD.:    37.514 HEAT:  19.90986
 CYCLE:   155 TIME:   0.031 TIME LEFT:  2.00D  GRAD.:     5.984 HEAT:  19.87541
 CYCLE:   156 TIME:   0.016 TIME LEFT:  2.00D  GRAD.:     3.962 HEAT:  19.86292
 CYCLE:   157 TIME:   0.031 TIME LEFT:  2.00D  GRAD.:     3.915 HEAT:  19.83768
 CYCLE:   158 TIME:   0.016 TIME LEFT:  2.00D  GRAD.:    21.120 HEAT:  19.87279
 CYCLE:   159 TIME:   0.031 TIME LEFT:  2.00D  GRAD.:     7.482 HEAT:  19.73467
 CYCLE:   160 TIME:   0.016 TIME LEFT:  2.00D  GRAD.:     6.449 HEAT:  19.72779
 CYCLE:   161 TIME:   0.031 TIME LEFT:  2.00D  GRAD.:     8.157 HEAT:  19.83480


           HEAT OF FORMATION IS ESSENTIALLY STATIONARY


          CURRENT BEST VALUE OF HEAT OF FORMATION =     19.528802
 
 HTML(nores) symmetry  step=-0.005 points=60   gnorm=0.5 EPS=78.4 let(100) ddmin=0 lbfgs
 Using a a symmetry-defined dummy atom to locate the transition state for the reaction [CHO-CH-CH3]^(-) + [C5H5N-CH3]^(+) => CHO-CH=CH2 + C5H6N-CH3

  O(HETATM    1  O   HET A   1)  -1.77649565 +1   -0.7486459 +1   -0.1165353 +1
  C(HETATM    2  C   HET B   2)   1.77454653 +1   -1.1313602 +1    0.0106301 +1
  C(HETATM    3  C   HET C   1)  -1.97279536 +1    0.4925632 +1   -0.0030097 +1
  C(HETATM    4  C1  HET D   2)   0.81596602 +1    0.5087440 +1    1.4328668 +1
  N(HETATM    5  N   HET D   2)   1.07888335 +1   -0.7956873 +1    1.1361409 +1
  C(HETATM    6  C2  HET D   2)   1.23019193 +1    1.5205610 +1    0.5757905 +1
  C(HETATM    7  C3  HET D   2)   1.84706732 +1    1.1969370 +1   -0.6433980 +1
  C(HETATM    8  C4  HET D   2)   2.19284817 +1   -0.1473772 +1   -0.8724867 +1
  H(HETATM    9  H   HET E   1)  -2.58169161 +1    0.7642944 +1    0.8759146 +1
  C(HETATM   10  C   HET F   2)   0.56875341 +1   -1.8495497 +1    2.0159960 +1
 XX(HETATM   11 XX   HET K   1)   1.44025981 +1   98.1524446 +1   95.6544516 +1 "  C3  HET D   2" "  C2  HET D   2" "  C1  HET D   2" =  7  6  4
  H(HETATM   11 1H1  HET K   1)   0.20000000 -1  180.0000000 +0    0.0000000 +0 " XX   HET K   1" "  C3  HET D   2" "  C2  HET D   2" = 11  7  6
  H(HETATM   12 2H1  HET K   1)  -0.73711848 +1    0.1757466 +1   -2.3730059 +1
  H(HETATM   13 3H1  HET K   1)  -0.75177559 +1    1.9069266 +1   -2.8244715 +1
  H(HETATM   14  H2  HET K   1)  -1.75369285 +1    2.5036610 +1   -0.6535203 +1
  H(HETATM   15  H1  HET D   2)   0.27283725 +1    0.7272164 +1    2.3670879 +1
  H(HETATM   16  H2  HET D   2)   1.02886233 +1    2.5635388 +1    0.8336421 +1
  H(HETATM   17  H3  HET D   2)   2.22838483 +1    1.9895627 +1   -1.3025736 +1
  H(HETATM   18  H4  HET D   2)   2.77089883 +1   -0.4253108 +1   -1.7590717 +1
  H(HETATM   19 1H   HET F   2)   0.64576030 +1   -1.5587951 +1    3.0820222 +1
  H(HETATM   20 2H   HET F   2)   1.12927073 +1   -2.7965024 +1    1.8924194 +1
  H(HETATM   21 3H   HET F   2)  -0.50227786 +1   -2.0508695 +1    1.7875399 +1
  C(HETATM   22  C1  HET K   1)   1.44025981 +0  164.1126699 +1  -34.0012672 +1 " XX   HET K   1" "  C3  HET D   2" "  C2  HET D   2" = 11  7  6
  C(HETATM   23  C2  HET K   1)  -1.53547038 +1    1.4717526 +1   -0.8547597 +1
  H(HETATM   24  H   HET B   2)   1.99883429 +1   -2.1987523 +1   -0.1630635 +1
 
 " XX   HET K   1"  1  "  C1  HET K   1"
 
 

          VARIABLE        FUNCTION
 :         0.20000       19.528802
 HTML(nores) symmetry  step=-0.005 points=60   gnorm=0.5 EPS=78.4 let(100) ddmin=0 lbfgs
 Using a a symmetry-defined dummy atom to locate the transition state for the reaction [CHO-CH-CH3]^(-) + [C5H5N-CH3]^(+) => CHO-CH=CH2 + C5H6N-CH3

  O(HETATM    1  O   HET A   1)  -1.77649565 +1   -0.7486459 +1   -0.1165353 +1
  C(HETATM    2  C   HET B   2)   1.77454653 +1   -1.1313602 +1    0.0106301 +1
  C(HETATM    3  C   HET C   1)  -1.97279536 +1    0.4925632 +1   -0.0030097 +1
  C(HETATM    4  C1  HET D   2)   0.81596602 +1    0.5087440 +1    1.4328668 +1
  N(HETATM    5  N   HET D   2)   1.07888335 +1   -0.7956873 +1    1.1361409 +1
  C(HETATM    6  C2  HET D   2)   1.23019193 +1    1.5205610 +1    0.5757905 +1
  C(HETATM    7  C3  HET D   2)   1.84706732 +1    1.1969370 +1   -0.6433980 +1
  C(HETATM    8  C4  HET D   2)   2.19284817 +1   -0.1473772 +1   -0.8724867 +1
  H(HETATM    9  H   HET E   1)  -2.58169161 +1    0.7642944 +1    0.8759146 +1
  C(HETATM   10  C   HET F   2)   0.56875341 +1   -1.8495497 +1    2.0159960 +1
 XX(HETATM   11 XX   HET K   1)   1.44025981 +1   98.1524446 +1   95.6544516 +1 "  C3  HET D   2" "  C2  HET D   2" "  C1  HET D   2" =  7  6  4
  H(HETATM   11 1H1  HET K   1)   0.20000000 -1  180.0000000 +0    0.0000000 +0 " XX   HET K   1" "  C3  HET D   2" "  C2  HET D   2" = 11  7  6
  H(HETATM   12 2H1  HET K   1)  -0.73711848 +1    0.1757466 +1   -2.3730059 +1
  H(HETATM   13 3H1  HET K   1)  -0.75177559 +1    1.9069266 +1   -2.8244715 +1
  H(HETATM   14  H2  HET K   1)  -1.75369285 +1    2.5036610 +1   -0.6535203 +1
  H(HETATM   15  H1  HET D   2)   0.27283725 +1    0.7272164 +1    2.3670879 +1
  H(HETATM   16  H2  HET D   2)   1.02886233 +1    2.5635388 +1    0.8336421 +1
  H(HETATM   17  H3  HET D   2)   2.22838483 +1    1.9895627 +1   -1.3025736 +1
  H(HETATM   18  H4  HET D   2)   2.77089883 +1   -0.4253108 +1   -1.7590717 +1
  H(HETATM   19 1H   HET F   2)   0.64576030 +1   -1.5587951 +1    3.0820222 +1
  H(HETATM   20 2H   HET F   2)   1.12927073 +1   -2.7965024 +1    1.8924194 +1
  H(HETATM   21 3H   HET F   2)  -0.50227786 +1   -2.0508695 +1    1.7875399 +1
  C(HETATM   22  C1  HET K   1)   1.44025981 +0  164.1126699 +1  -34.0012672 +1 " XX   HET K   1" "  C3  HET D   2" "  C2  HET D   2" = 11  7  6
  C(HETATM   23  C2  HET K   1)  -1.53547038 +1    1.4717526 +1   -0.8547597 +1
  H(HETATM   24  H   HET B   2)   1.99883429 +1   -2.1987523 +1   -0.1630635 +1
 
 " XX   HET K   1"  1  "  C1  HET K   1"
 

          Geometry optimization using L-BFGS

          Keyword "LET" re-set the number of cycles used in identifying the lowest-energy geometry to 100
 CYCLE:     1 TIME:   0.047 TIME LEFT:  2.00D  GRAD.:     4.408 HEAT:  19.95702
 CYCLE:     2 TIME:   0.016 TIME LEFT:  2.00D  GRAD.:     4.106 HEAT:  19.95729
 CYCLE:     3 TIME:   0.031 TIME LEFT:  2.00D  GRAD.:     4.101 HEAT:  19.95729
 CYCLE:     4 TIME:   0.016 TIME LEFT:  2.00D  GRAD.:     5.939 HEAT:  19.95525
 CYCLE:     5 TIME:   0.031 TIME LEFT:  2.00D  GRAD.:     6.315 HEAT:  19.95457
 CYCLE:     6 TIME:   0.016 TIME LEFT:  2.00D  GRAD.:     4.478 HEAT:  19.94821
 CYCLE:     7 TIME:   0.031 TIME LEFT:  2.00D  GRAD.:     5.968 HEAT:  19.94255
 CYCLE:     8 TIME:   0.016 TIME LEFT:  2.00D  GRAD.:     3.780 HEAT:  19.93177
 CYCLE:     9 TIME:   0.031 TIME LEFT:  2.00D  GRAD.:     2.927 HEAT:  19.93390
 CYCLE:    10 TIME:   0.016 TIME LEFT:  2.00D  GRAD.:     3.250 HEAT:  19.92593
 CYCLE:    11 TIME:   0.031 TIME LEFT:  2.00D  GRAD.:     3.732 HEAT:  19.92801
 CYCLE:    12 TIME:   0.016 TIME LEFT:  2.00D  GRAD.:     4.036 HEAT:  19.99968
 CYCLE:    13 TIME:   0.016 TIME LEFT:  2.00D  GRAD.:     2.618 HEAT:  20.01753
 CYCLE:    14 TIME:   0.031 TIME LEFT:  2.00D  GRAD.:     3.509 HEAT:  20.02704
 CYCLE:    15 TIME:   0.016 TIME LEFT:  2.00D  GRAD.:     3.516 HEAT:  20.04160
 CYCLE:    16 TIME:   0.031 TIME LEFT:  2.00D  GRAD.:     4.112 HEAT:  20.04583
 CYCLE:    17 TIME:   0.016 TIME LEFT:  2.00D  GRAD.:    18.992 HEAT:  20.04331
 CYCLE:    18 TIME:   0.031 TIME LEFT:  2.00D  GRAD.:    17.906 HEAT:  20.04862
 CYCLE:    19 TIME:   0.016 TIME LEFT:  2.00D  GRAD.:     2.490 HEAT:  20.03195
 CYCLE:    20 TIME:   0.031 TIME LEFT:  2.00D  GRAD.:     2.733 HEAT:  20.02948
 CYCLE:    21 TIME:   0.016 TIME LEFT:  2.00D  GRAD.:     3.487 HEAT:  20.03354
 CYCLE:    22 TIME:   0.031 TIME LEFT:  2.00D  GRAD.:     5.502 HEAT:  20.01411
 CYCLE:    23 TIME:   0.016 TIME LEFT:  2.00D  GRAD.:     3.923 HEAT:  20.03057
 CYCLE:    24 TIME:   0.016 TIME LEFT:  2.00D  GRAD.:     3.951 HEAT:  20.08088
 CYCLE:    25 TIME:   0.031 TIME LEFT:  2.00D  GRAD.:     3.635 HEAT:  20.09588
 CYCLE:    26 TIME:   0.016 TIME LEFT:  2.00D  GRAD.:     3.778 HEAT:  20.10748
 CYCLE:    27 TIME:   0.031 TIME LEFT:  2.00D  GRAD.:     7.074 HEAT:  20.11728
 CYCLE:    28 TIME:   0.016 TIME LEFT:  2.00D  GRAD.:     6.128 HEAT:  20.11388
 CYCLE:    29 TIME:   0.031 TIME LEFT:  2.00D  GRAD.:     5.062 HEAT:  20.12669
 CYCLE:    30 TIME:   0.016 TIME LEFT:  2.00D  GRAD.:     5.283 HEAT:  20.16000
 CYCLE:    31 TIME:   0.031 TIME LEFT:  2.00D  GRAD.:     6.925 HEAT:  20.23769
 CYCLE:    32 TIME:   0.016 TIME LEFT:  2.00D  GRAD.:    27.371 HEAT:  20.25672
 CYCLE:    33 TIME:   0.016 TIME LEFT:  2.00D  GRAD.:    99.553 HEAT:  20.59240
 CYCLE:    34 TIME:   0.031 TIME LEFT:  2.00D  GRAD.:    30.549 HEAT:  20.30478
 CYCLE:    35 TIME:   0.016 TIME LEFT:  2.00D  GRAD.:     8.237 HEAT:  20.35284
 CYCLE:    36 TIME:   0.031 TIME LEFT:  2.00D  GRAD.:    19.788 HEAT:  20.26409
 CYCLE:    37 TIME:   0.016 TIME LEFT:  2.00D  GRAD.:    30.672 HEAT:  20.26717
 CYCLE:    38 TIME:   0.031 TIME LEFT:  2.00D  GRAD.:    13.729 HEAT:  20.46253
 CYCLE:    39 TIME:   0.016 TIME LEFT:  2.00D  GRAD.:    22.467 HEAT:  20.37468
 CYCLE:    40 TIME:   0.031 TIME LEFT:  2.00D  GRAD.:    69.285 HEAT:  20.59416
 CYCLE:    41 TIME:   0.016 TIME LEFT:  2.00D  GRAD.:    32.711 HEAT:  20.27090
 CYCLE:    42 TIME:   0.031 TIME LEFT:  2.00D  GRAD.:     9.796 HEAT:  20.28202
 CYCLE:    43 TIME:   0.016 TIME LEFT:  2.00D  GRAD.:     5.679 HEAT:  20.24347
 CYCLE:    44 TIME:   0.031 TIME LEFT:  2.00D  GRAD.:     6.239 HEAT:  20.36683
 CYCLE:    45 TIME:   0.016 TIME LEFT:  2.00D  GRAD.:    17.899 HEAT:  20.37912
 CYCLE:    46 TIME:   0.031 TIME LEFT:  2.00D  GRAD.:     7.112 HEAT:  20.36073
 CYCLE:    47 TIME:   0.016 TIME LEFT:  2.00D  GRAD.:     5.010 HEAT:  20.34069
 CYCLE:    48 TIME:   0.031 TIME LEFT:  2.00D  GRAD.:     3.570 HEAT:  20.33491
 CYCLE:    49 TIME:   0.016 TIME LEFT:  2.00D  GRAD.:    15.250 HEAT:  20.48465
 CYCLE:    50 TIME:   0.031 TIME LEFT:  2.00D  GRAD.:     5.723 HEAT:  20.38050
 CYCLE:    51 TIME:   0.016 TIME LEFT:  2.00D  GRAD.:    19.820 HEAT:  20.35579
 CYCLE:    52 TIME:   0.031 TIME LEFT:  2.00D  GRAD.:     3.208 HEAT:  20.34473
 CYCLE:    53 TIME:   0.016 TIME LEFT:  2.00D  GRAD.:     2.829 HEAT:  20.37443
 CYCLE:    54 TIME:   0.031 TIME LEFT:  2.00D  GRAD.:     7.385 HEAT:  20.36798
 CYCLE:    55 TIME:   0.016 TIME LEFT:  2.00D  GRAD.:    82.493 HEAT:  20.53746
 CYCLE:    56 TIME:   0.031 TIME LEFT:  2.00D  GRAD.:     3.989 HEAT:  20.35972
 CYCLE:    57 TIME:   0.016 TIME LEFT:  2.00D  GRAD.:     4.597 HEAT:  20.41620
 CYCLE:    58 TIME:   0.031 TIME LEFT:  2.00D  GRAD.:    35.582 HEAT:  20.45224
 CYCLE:    59 TIME:   0.016 TIME LEFT:  2.00D  GRAD.:     4.543 HEAT:  20.46243
 CYCLE:    60 TIME:   0.031 TIME LEFT:  2.00D  GRAD.:     3.711 HEAT:  20.46802
 CYCLE:    61 TIME:   0.016 TIME LEFT:  2.00D  GRAD.:     2.760 HEAT:  20.48831
 CYCLE:    62 TIME:   0.031 TIME LEFT:  2.00D  GRAD.:     4.141 HEAT:  20.53480
 CYCLE:    63 TIME:   0.016 TIME LEFT:  2.00D  GRAD.:     4.500 HEAT:  20.36710
 CYCLE:    64 TIME:   0.031 TIME LEFT:  2.00D  GRAD.:     8.538 HEAT:  20.45932
 CYCLE:    65 TIME:   0.016 TIME LEFT:  2.00D  GRAD.:    12.988 HEAT:  20.33311
 CYCLE:    66 TIME:   0.031 TIME LEFT:  2.00D  GRAD.:     8.877 HEAT:  20.51408
 CYCLE:    67 TIME:   0.016 TIME LEFT:  2.00D  GRAD.:     3.256 HEAT:  20.36666
 CYCLE:    68 TIME:   0.031 TIME LEFT:  2.00D  GRAD.:     7.882 HEAT:  20.38411
 CYCLE:    69 TIME:   0.016 TIME LEFT:  2.00D  GRAD.:     7.090 HEAT:  20.24345
 CYCLE:    70 TIME:   0.031 TIME LEFT:  2.00D  GRAD.:    75.966 HEAT:  20.63431
 CYCLE:    71 TIME:   0.016 TIME LEFT:  2.00D  GRAD.:     2.583 HEAT:  20.36575
 CYCLE:    72 TIME:   0.016 TIME LEFT:  2.00D  GRAD.:     2.136 HEAT:  20.25004
 CYCLE:    73 TIME:   0.031 TIME LEFT:  2.00D  GRAD.:     2.849 HEAT:  20.25887
 CYCLE:    74 TIME:   0.016 TIME LEFT:  2.00D  GRAD.:    20.181 HEAT:  20.39036
 CYCLE:    75 TIME:   0.031 TIME LEFT:  2.00D  GRAD.:     5.063 HEAT:  20.36078
 CYCLE:    76 TIME:   0.016 TIME LEFT:  2.00D  GRAD.:     3.069 HEAT:  20.35235
 CYCLE:    77 TIME:   0.031 TIME LEFT:  2.00D  GRAD.:     3.538 HEAT:  20.21380
 CYCLE:    78 TIME:   0.016 TIME LEFT:  2.00D  GRAD.:     4.703 HEAT:  20.24826
 CYCLE:    79 TIME:   0.031 TIME LEFT:  2.00D  GRAD.:    18.355 HEAT:  20.46969
 CYCLE:    80 TIME:   0.016 TIME LEFT:  2.00D  GRAD.:     5.094 HEAT:  20.33786
 CYCLE:    81 TIME:   0.031 TIME LEFT:  2.00D  GRAD.:     3.474 HEAT:  20.28654
 CYCLE:    82 TIME:   0.016 TIME LEFT:  2.00D  GRAD.:     2.535 HEAT:  20.26551
 CYCLE:    83 TIME:   0.016 TIME LEFT:  2.00D  GRAD.:     6.457 HEAT:  20.30732
 CYCLE:    84 TIME:   0.031 TIME LEFT:  2.00D  GRAD.:    41.572 HEAT:  20.36206
 CYCLE:    85 TIME:   0.016 TIME LEFT:  2.00D  GRAD.:     5.722 HEAT:  20.32059
 CYCLE:    86 TIME:   0.031 TIME LEFT:  2.00D  GRAD.:     3.739 HEAT:  20.32296
 CYCLE:    87 TIME:   0.016 TIME LEFT:  2.00D  GRAD.:     2.895 HEAT:  20.31144
 CYCLE:    88 TIME:   0.031 TIME LEFT:  2.00D  GRAD.:     3.266 HEAT:  20.31781
 CYCLE:    89 TIME:   0.016 TIME LEFT:  2.00D  GRAD.:     6.607 HEAT:  20.28875
 CYCLE:    90 TIME:   0.031 TIME LEFT:  2.00D  GRAD.:     3.897 HEAT:  20.30551
 CYCLE:    91 TIME:   0.016 TIME LEFT:  2.00D  GRAD.:     3.533 HEAT:  20.31339
 CYCLE:    92 TIME:   0.031 TIME LEFT:  2.00D  GRAD.:     3.520 HEAT:  20.29641
 CYCLE:    93 TIME:   0.016 TIME LEFT:  2.00D  GRAD.:     7.610 HEAT:  20.32563
 CYCLE:    94 TIME:   0.031 TIME LEFT:  2.00D  GRAD.:     3.959 HEAT:  20.36213
 CYCLE:    95 TIME:   0.031 TIME LEFT:  2.00D  GRAD.:     2.837 HEAT:  20.36867
 CYCLE:    96 TIME:   0.016 TIME LEFT:  2.00D  GRAD.:     7.582 HEAT:  20.33324
 CYCLE:    97 TIME:   0.031 TIME LEFT:  2.00D  GRAD.:     4.677 HEAT:  20.32813
 CYCLE:    98 TIME:   0.016 TIME LEFT:  2.00D  GRAD.:     5.427 HEAT:  20.31040
 CYCLE:    99 TIME:   0.031 TIME LEFT:  2.00D  GRAD.:     7.382 HEAT:  20.30645
 CYCLE:   100 TIME:   0.016 TIME LEFT:  2.00D  GRAD.:     6.889 HEAT:  20.25368
 CYCLE:   101 TIME:   0.016 TIME LEFT:  2.00D  GRAD.:     6.722 HEAT:  20.23454
 CYCLE:   102 TIME:   0.031 TIME LEFT:  2.00D  GRAD.:     8.223 HEAT:  20.34802
 CYCLE:   103 TIME:   0.031 TIME LEFT:  2.00D  GRAD.:    10.580 HEAT:  20.33198
 CYCLE:   104 TIME:   0.031 TIME LEFT:  2.00D  GRAD.:    12.540 HEAT:  20.32113
 CYCLE:   105 TIME:   0.016 TIME LEFT:  2.00D  GRAD.:     4.849 HEAT:  20.31640
 CYCLE:   106 TIME:   0.031 TIME LEFT:  2.00D  GRAD.:     3.790 HEAT:  20.31373
 CYCLE:   107 TIME:   0.031 TIME LEFT:  2.00D  GRAD.:     4.487 HEAT:  20.31101
 CYCLE:   108 TIME:   0.031 TIME LEFT:  2.00D  GRAD.:     4.796 HEAT:  20.29868
 CYCLE:   109 TIME:   0.031 TIME LEFT:  2.00D  GRAD.:     5.753 HEAT:  20.27715
 CYCLE:   110 TIME:   0.016 TIME LEFT:  2.00D  GRAD.:     9.070 HEAT:  20.33568


           HEAT OF FORMATION IS ESSENTIALLY STATIONARY


          CURRENT BEST VALUE OF HEAT OF FORMATION =     19.925946
 
 HTML(nores) symmetry  step=-0.005 points=60   gnorm=0.5 EPS=78.4 let(100) ddmin=0 lbfgs
 Using a a symmetry-defined dummy atom to locate the transition state for the reaction [CHO-CH-CH3]^(-) + [C5H5N-CH3]^(+) => CHO-CH=CH2 + C5H6N-CH3

  O(HETATM    1  O   HET A   1)  -1.77404117 +1   -0.7471183 +1   -0.1151820 +1
  C(HETATM    2  C   HET B   2)   1.77634155 +1   -1.1316347 +1    0.0106634 +1
  C(HETATM    3  C   HET C   1)  -1.97211787 +1    0.4937974 +1   -0.0024188 +1
  C(HETATM    4  C1  HET D   2)   0.81633960 +1    0.5080785 +1    1.4331894 +1
  N(HETATM    5  N   HET D   2)   1.07963029 +1   -0.7961888 +1    1.1355327 +1
  C(HETATM    6  C2  HET D   2)   1.22853434 +1    1.5210641 +1    0.5758511 +1
  C(HETATM    7  C3  HET D   2)   1.84499453 +1    1.1954772 +1   -0.6444584 +1
  C(HETATM    8  C4  HET D   2)   2.19344485 +1   -0.1486500 +1   -0.8738005 +1
  H(HETATM    9  H   HET E   1)  -2.58029118 +1    0.7659424 +1    0.8760541 +1
  C(HETATM   10  C   HET F   2)   0.56826125 +1   -1.8492227 +1    2.0154035 +1
 XX(HETATM   11 XX   HET K   1)   1.43893954 +1   98.1408654 +1   95.6486759 +1 "  C3  HET D   2" "  C2  HET D   2" "  C1  HET D   2" =  7  6  4
  H(HETATM   11 1H1  HET K   1)   0.19500000 -1  180.0000000 +0    0.0000000 +0 " XX   HET K   1" "  C3  HET D   2" "  C2  HET D   2" = 11  7  6
  H(HETATM   12 2H1  HET K   1)  -0.74028349 +1    0.1728724 +1   -2.3756777 +1
  H(HETATM   13 3H1  HET K   1)  -0.74869956 +1    1.9048266 +1   -2.8216766 +1
  H(HETATM   14  H2  HET K   1)  -1.75460121 +1    2.5036902 +1   -0.6529788 +1
  H(HETATM   15  H1  HET D   2)   0.27365849 +1    0.7265678 +1    2.3683747 +1
  H(HETATM   16  H2  HET D   2)   1.02917164 +1    2.5662106 +1    0.8351391 +1
  H(HETATM   17  H3  HET D   2)   2.23027506 +1    1.9903089 +1   -1.3035231 +1
  H(HETATM   18  H4  HET D   2)   2.77069223 +1   -0.4257450 +1   -1.7607234 +1
  H(HETATM   19 1H   HET F   2)   0.64448001 +1   -1.5603735 +1    3.0828600 +1
  H(HETATM   20 2H   HET F   2)   1.12754800 +1   -2.7969411 +1    1.8933324 +1
  H(HETATM   21 3H   HET F   2)  -0.50210430 +1   -2.0492696 +1    1.7863332 +1
  C(HETATM   22  C1  HET K   1)   1.43893954 +0  164.2304008 +1  -34.0502099 +1 " XX   HET K   1" "  C3  HET D   2" "  C2  HET D   2" = 11  7  6
  C(HETATM   23  C2  HET K   1)  -1.53638133 +1    1.4719807 +1   -0.8559251 +1
  H(HETATM   24  H   HET B   2)   1.99693573 +1   -2.1970193 +1   -0.1622148 +1
 
 " XX   HET K   1"  1  "  C1  HET K   1"
 
 

          VARIABLE        FUNCTION
 :         0.19500       19.925946
 HTML(nores) symmetry  step=-0.005 points=60   gnorm=0.5 EPS=78.4 let(100) ddmin=0 lbfgs
 Using a a symmetry-defined dummy atom to locate the transition state for the reaction [CHO-CH-CH3]^(-) + [C5H5N-CH3]^(+) => CHO-CH=CH2 + C5H6N-CH3

  O(HETATM    1  O   HET A   1)  -1.77404117 +1   -0.7471183 +1   -0.1151820 +1
  C(HETATM    2  C   HET B   2)   1.77634155 +1   -1.1316347 +1    0.0106634 +1
  C(HETATM    3  C   HET C   1)  -1.97211787 +1    0.4937974 +1   -0.0024188 +1
  C(HETATM    4  C1  HET D   2)   0.81633960 +1    0.5080785 +1    1.4331894 +1
  N(HETATM    5  N   HET D   2)   1.07963029 +1   -0.7961888 +1    1.1355327 +1
  C(HETATM    6  C2  HET D   2)   1.22853434 +1    1.5210641 +1    0.5758511 +1
  C(HETATM    7  C3  HET D   2)   1.84499453 +1    1.1954772 +1   -0.6444584 +1
  C(HETATM    8  C4  HET D   2)   2.19344485 +1   -0.1486500 +1   -0.8738005 +1
  H(HETATM    9  H   HET E   1)  -2.58029118 +1    0.7659424 +1    0.8760541 +1
  C(HETATM   10  C   HET F   2)   0.56826125 +1   -1.8492227 +1    2.0154035 +1
 XX(HETATM   11 XX   HET K   1)   1.43893954 +1   98.1408654 +1   95.6486759 +1 "  C3  HET D   2" "  C2  HET D   2" "  C1  HET D   2" =  7  6  4
  H(HETATM   11 1H1  HET K   1)   0.19500000 -1  180.0000000 +0    0.0000000 +0 " XX   HET K   1" "  C3  HET D   2" "  C2  HET D   2" = 11  7  6
  H(HETATM   12 2H1  HET K   1)  -0.74028349 +1    0.1728724 +1   -2.3756777 +1
  H(HETATM   13 3H1  HET K   1)  -0.74869956 +1    1.9048266 +1   -2.8216766 +1
  H(HETATM   14  H2  HET K   1)  -1.75460121 +1    2.5036902 +1   -0.6529788 +1
  H(HETATM   15  H1  HET D   2)   0.27365849 +1    0.7265678 +1    2.3683747 +1
  H(HETATM   16  H2  HET D   2)   1.02917164 +1    2.5662106 +1    0.8351391 +1
  H(HETATM   17  H3  HET D   2)   2.23027506 +1    1.9903089 +1   -1.3035231 +1
  H(HETATM   18  H4  HET D   2)   2.77069223 +1   -0.4257450 +1   -1.7607234 +1
  H(HETATM   19 1H   HET F   2)   0.64448001 +1   -1.5603735 +1    3.0828600 +1
  H(HETATM   20 2H   HET F   2)   1.12754800 +1   -2.7969411 +1    1.8933324 +1
  H(HETATM   21 3H   HET F   2)  -0.50210430 +1   -2.0492696 +1    1.7863332 +1
  C(HETATM   22  C1  HET K   1)   1.43893954 +0  164.2304008 +1  -34.0502099 +1 " XX   HET K   1" "  C3  HET D   2" "  C2  HET D   2" = 11  7  6
  C(HETATM   23  C2  HET K   1)  -1.53638133 +1    1.4719807 +1   -0.8559251 +1
  H(HETATM   24  H   HET B   2)   1.99693573 +1   -2.1970193 +1   -0.1622148 +1
 
 " XX   HET K   1"  1  "  C1  HET K   1"
 

          Geometry optimization using L-BFGS

          Keyword "LET" re-set the number of cycles used in identifying the lowest-energy geometry to 100
 CYCLE:     1 TIME:   0.031 TIME LEFT:  2.00D  GRAD.:     4.310 HEAT:  20.35824
 CYCLE:     2 TIME:   0.031 TIME LEFT:  2.00D  GRAD.:     3.678 HEAT:  20.35852
 CYCLE:     3 TIME:   0.016 TIME LEFT:  2.00D  GRAD.:     3.670 HEAT:  20.35852
 CYCLE:     4 TIME:   0.031 TIME LEFT:  2.00D  GRAD.:     3.576 HEAT:  20.35840
 CYCLE:     5 TIME:   0.031 TIME LEFT:  2.00D  GRAD.:     5.030 HEAT:  20.35895
 CYCLE:     6 TIME:   0.031 TIME LEFT:  2.00D  GRAD.:     3.847 HEAT:  20.34885
 CYCLE:     7 TIME:   0.016 TIME LEFT:  2.00D  GRAD.:     2.368 HEAT:  20.38327
 CYCLE:     8 TIME:   0.031 TIME LEFT:  2.00D  GRAD.:     3.418 HEAT:  20.42541
 CYCLE:     9 TIME:   0.031 TIME LEFT:  2.00D  GRAD.:     3.669 HEAT:  20.42172
 CYCLE:    10 TIME:   0.031 TIME LEFT:  2.00D  GRAD.:     3.495 HEAT:  20.43958
 CYCLE:    11 TIME:   0.016 TIME LEFT:  2.00D  GRAD.:     3.358 HEAT:  20.44281
 CYCLE:    12 TIME:   0.031 TIME LEFT:  2.00D  GRAD.:     5.607 HEAT:  20.43946
 CYCLE:    13 TIME:   0.031 TIME LEFT:  2.00D  GRAD.:     5.110 HEAT:  20.43973
 CYCLE:    14 TIME:   0.016 TIME LEFT:  2.00D  GRAD.:     4.959 HEAT:  20.44195
 CYCLE:    15 TIME:   0.031 TIME LEFT:  2.00D  GRAD.:     3.629 HEAT:  20.44891
 CYCLE:    16 TIME:   0.031 TIME LEFT:  2.00D  GRAD.:     3.258 HEAT:  20.46101
 CYCLE:    17 TIME:   0.031 TIME LEFT:  2.00D  GRAD.:     9.846 HEAT:  20.46752
 CYCLE:    18 TIME:   0.031 TIME LEFT:  2.00D  GRAD.:     7.361 HEAT:  20.47387
 CYCLE:    19 TIME:   0.016 TIME LEFT:  2.00D  GRAD.:    29.270 HEAT:  20.50406
 CYCLE:    20 TIME:   0.031 TIME LEFT:  2.00D  GRAD.:    20.392 HEAT:  20.47448
 CYCLE:    21 TIME:   0.031 TIME LEFT:  2.00D  GRAD.:     9.773 HEAT:  20.47969
 CYCLE:    22 TIME:   0.031 TIME LEFT:  2.00D  GRAD.:     8.584 HEAT:  20.45173
 CYCLE:    23 TIME:   0.016 TIME LEFT:  2.00D  GRAD.:     8.789 HEAT:  20.51378
 CYCLE:    24 TIME:   0.031 TIME LEFT:  2.00D  GRAD.:     5.768 HEAT:  20.59420
 CYCLE:    25 TIME:   0.031 TIME LEFT:  2.00D  GRAD.:     5.916 HEAT:  20.53688
 CYCLE:    26 TIME:   0.031 TIME LEFT:  2.00D  GRAD.:    11.770 HEAT:  20.45906
 CYCLE:    27 TIME:   0.016 TIME LEFT:  2.00D  GRAD.:     2.471 HEAT:  20.51545
 CYCLE:    28 TIME:   0.031 TIME LEFT:  2.00D  GRAD.:     5.058 HEAT:  20.61323
 CYCLE:    29 TIME:   0.031 TIME LEFT:  2.00D  GRAD.:    10.104 HEAT:  20.59746
 CYCLE:    30 TIME:   0.016 TIME LEFT:  2.00D  GRAD.:     3.571 HEAT:  20.51780
 CYCLE:    31 TIME:   0.031 TIME LEFT:  2.00D  GRAD.:     5.016 HEAT:  20.53462
 CYCLE:    32 TIME:   0.031 TIME LEFT:  2.00D  GRAD.:    11.363 HEAT:  20.55402
 CYCLE:    33 TIME:   0.031 TIME LEFT:  2.00D  GRAD.:    17.334 HEAT:  20.57929
 CYCLE:    34 TIME:   0.031 TIME LEFT:  2.00D  GRAD.:     8.773 HEAT:  20.67222
 CYCLE:    35 TIME:   0.016 TIME LEFT:  2.00D  GRAD.:     5.162 HEAT:  20.67336
 CYCLE:    36 TIME:   0.031 TIME LEFT:  2.00D  GRAD.:     8.641 HEAT:  20.66421
 CYCLE:    37 TIME:   0.031 TIME LEFT:  2.00D  GRAD.:     7.307 HEAT:  20.67542
 CYCLE:    38 TIME:   0.031 TIME LEFT:  2.00D  GRAD.:     5.163 HEAT:  20.76817
 CYCLE:    39 TIME:   0.016 TIME LEFT:  2.00D  GRAD.:     5.316 HEAT:  20.82278
 CYCLE:    40 TIME:   0.031 TIME LEFT:  2.00D  GRAD.:    21.483 HEAT:  20.80998
 CYCLE:    41 TIME:   0.031 TIME LEFT:  2.00D  GRAD.:     5.751 HEAT:  20.82633
 CYCLE:    42 TIME:   0.031 TIME LEFT:  2.00D  GRAD.:     4.819 HEAT:  20.75255
 CYCLE:    43 TIME:   0.031 TIME LEFT:  2.00D  GRAD.:     4.604 HEAT:  20.67560
 CYCLE:    44 TIME:   0.016 TIME LEFT:  2.00D  GRAD.:    34.911 HEAT:  20.77043
 CYCLE:    45 TIME:   0.031 TIME LEFT:  2.00D  GRAD.:     5.891 HEAT:  20.75804
 CYCLE:    46 TIME:   0.016 TIME LEFT:  2.00D  GRAD.:     4.674 HEAT:  20.78751
 CYCLE:    47 TIME:   0.031 TIME LEFT:  2.00D  GRAD.:     9.623 HEAT:  20.87660
 CYCLE:    48 TIME:   0.031 TIME LEFT:  2.00D  GRAD.:     5.132 HEAT:  20.81557
 CYCLE:    49 TIME:   0.016 TIME LEFT:  2.00D  GRAD.:     6.088 HEAT:  20.74920
 CYCLE:    50 TIME:   0.031 TIME LEFT:  2.00D  GRAD.:    13.484 HEAT:  20.77852
 CYCLE:    51 TIME:   0.031 TIME LEFT:  2.00D  GRAD.:     5.265 HEAT:  20.84926
 CYCLE:    52 TIME:   0.031 TIME LEFT:  2.00D  GRAD.:     3.889 HEAT:  20.87104
 CYCLE:    53 TIME:   0.016 TIME LEFT:  2.00D  GRAD.:     3.847 HEAT:  20.92891
 CYCLE:    54 TIME:   0.031 TIME LEFT:  2.00D  GRAD.:    46.344 HEAT:  20.97425
 CYCLE:    55 TIME:   0.031 TIME LEFT:  2.00D  GRAD.:     4.279 HEAT:  20.93180
 CYCLE:    56 TIME:   0.031 TIME LEFT:  2.00D  GRAD.:     3.748 HEAT:  20.93519
 CYCLE:    57 TIME:   0.016 TIME LEFT:  2.00D  GRAD.:     5.899 HEAT:  20.95999
 CYCLE:    58 TIME:   0.031 TIME LEFT:  2.00D  GRAD.:     8.575 HEAT:  20.96663
 CYCLE:    59 TIME:   0.031 TIME LEFT:  2.00D  GRAD.:     3.851 HEAT:  20.96342
 CYCLE:    60 TIME:   0.016 TIME LEFT:  2.00D  GRAD.:     4.326 HEAT:  20.96151
 CYCLE:    61 TIME:   0.031 TIME LEFT:  2.00D  GRAD.:     5.302 HEAT:  20.96160
 CYCLE:    62 TIME:   0.031 TIME LEFT:  2.00D  GRAD.:     5.116 HEAT:  20.97357
 CYCLE:    63 TIME:   0.016 TIME LEFT:  2.00D  GRAD.:     5.061 HEAT:  20.82541
 CYCLE:    64 TIME:   0.031 TIME LEFT:  2.00D  GRAD.:     6.923 HEAT:  20.77138
 CYCLE:    65 TIME:   0.016 TIME LEFT:  2.00D  GRAD.:     3.752 HEAT:  20.76151
 CYCLE:    66 TIME:   0.031 TIME LEFT:  2.00D  GRAD.:     3.064 HEAT:  20.83945
 CYCLE:    67 TIME:   0.016 TIME LEFT:  2.00D  GRAD.:     3.310 HEAT:  20.75825
 CYCLE:    68 TIME:   0.031 TIME LEFT:  2.00D  GRAD.:     4.473 HEAT:  20.84522
 CYCLE:    69 TIME:   0.016 TIME LEFT:  2.00D  GRAD.:    31.458 HEAT:  20.93737
 CYCLE:    70 TIME:   0.031 TIME LEFT:  2.00D  GRAD.:    58.689 HEAT:  20.95706
 CYCLE:    71 TIME:   0.031 TIME LEFT:  2.00D  GRAD.:    40.510 HEAT:  20.97009
 CYCLE:    72 TIME:   0.016 TIME LEFT:  2.00D  GRAD.:     4.224 HEAT:  20.81914
 CYCLE:    73 TIME:   0.031 TIME LEFT:  2.00D  GRAD.:     8.250 HEAT:  20.96437
 CYCLE:    74 TIME:   0.031 TIME LEFT:  2.00D  GRAD.:    13.303 HEAT:  20.88462
 CYCLE:    75 TIME:   0.031 TIME LEFT:  2.00D  GRAD.:    58.781 HEAT:  20.85398
 CYCLE:    76 TIME:   0.016 TIME LEFT:  2.00D  GRAD.:     3.321 HEAT:  20.87329
 CYCLE:    77 TIME:   0.031 TIME LEFT:  2.00D  GRAD.:     3.123 HEAT:  20.88901
 CYCLE:    78 TIME:   0.031 TIME LEFT:  2.00D  GRAD.:     5.502 HEAT:  20.96760
 CYCLE:    79 TIME:   0.031 TIME LEFT:  2.00D  GRAD.:    20.623 HEAT:  20.94094
 CYCLE:    80 TIME:   0.031 TIME LEFT:  2.00D  GRAD.:     3.806 HEAT:  20.91873
 CYCLE:    81 TIME:   0.016 TIME LEFT:  2.00D  GRAD.:     2.539 HEAT:  20.92640
 CYCLE:    82 TIME:   0.031 TIME LEFT:  2.00D  GRAD.:     7.050 HEAT:  20.93306
 CYCLE:    83 TIME:   0.031 TIME LEFT:  2.00D  GRAD.:     5.963 HEAT:  20.89961
 CYCLE:    84 TIME:   0.031 TIME LEFT:  2.00D  GRAD.:     2.495 HEAT:  20.89818
 CYCLE:    85 TIME:   0.016 TIME LEFT:  2.00D  GRAD.:     7.837 HEAT:  20.75577
 CYCLE:    86 TIME:   0.031 TIME LEFT:  2.00D  GRAD.:     3.819 HEAT:  20.80985
 CYCLE:    87 TIME:   0.031 TIME LEFT:  2.00D  GRAD.:     3.023 HEAT:  20.85502
 CYCLE:    88 TIME:   0.016 TIME LEFT:  2.00D  GRAD.:     3.531 HEAT:  20.84915
 CYCLE:    89 TIME:   0.031 TIME LEFT:  2.00D  GRAD.:    13.264 HEAT:  20.78765
 CYCLE:    90 TIME:   0.031 TIME LEFT:  2.00D  GRAD.:    21.595 HEAT:  20.79440
 CYCLE:    91 TIME:   0.031 TIME LEFT:  2.00D  GRAD.:     4.601 HEAT:  20.82986
 CYCLE:    92 TIME:   0.031 TIME LEFT:  2.00D  GRAD.:     2.750 HEAT:  20.80432
 CYCLE:    93 TIME:   0.031 TIME LEFT:  2.00D  GRAD.:     4.813 HEAT:  20.82908
 CYCLE:    94 TIME:   0.016 TIME LEFT:  2.00D  GRAD.:     4.873 HEAT:  20.82506
 CYCLE:    95 TIME:   0.031 TIME LEFT:  2.00D  GRAD.:    11.250 HEAT:  20.80884
 CYCLE:    96 TIME:   0.016 TIME LEFT:  2.00D  GRAD.:     4.582 HEAT:  20.78322
 CYCLE:    97 TIME:   0.016 TIME LEFT:  2.00D  GRAD.:     4.168 HEAT:  20.76105
 CYCLE:    98 TIME:   0.031 TIME LEFT:  2.00D  GRAD.:     5.635 HEAT:  20.74579
 CYCLE:    99 TIME:   0.016 TIME LEFT:  2.00D  GRAD.:     8.297 HEAT:  20.72473
 CYCLE:   100 TIME:   0.031 TIME LEFT:  2.00D  GRAD.:     4.667 HEAT:  20.82266
 CYCLE:   101 TIME:   0.016 TIME LEFT:  2.00D  GRAD.:     3.909 HEAT:  20.77341
 CYCLE:   102 TIME:   0.031 TIME LEFT:  2.00D  GRAD.:     4.227 HEAT:  20.71029
 CYCLE:   103 TIME:   0.016 TIME LEFT:  2.00D  GRAD.:     5.538 HEAT:  20.82161
 CYCLE:   104 TIME:   0.016 TIME LEFT:  2.00D  GRAD.:    38.781 HEAT:  20.81302
 CYCLE:   105 TIME:   0.031 TIME LEFT:  2.00D  GRAD.:     6.165 HEAT:  20.80085
 CYCLE:   106 TIME:   0.016 TIME LEFT:  2.00D  GRAD.:     3.539 HEAT:  20.80214


           HEAT OF FORMATION IS ESSENTIALLY STATIONARY


          CURRENT BEST VALUE OF HEAT OF FORMATION =     20.348890
 
 HTML(nores) symmetry  step=-0.005 points=60   gnorm=0.5 EPS=78.4 let(100) ddmin=0 lbfgs
 Using a a symmetry-defined dummy atom to locate the transition state for the reaction [CHO-CH-CH3]^(-) + [C5H5N-CH3]^(+) => CHO-CH=CH2 + C5H6N-CH3

  O(HETATM    1  O   HET A   1)  -1.77371309 +1   -0.7473166 +1   -0.1149946 +1
  C(HETATM    2  C   HET B   2)   1.77625686 +1   -1.1314160 +1    0.0105342 +1
  C(HETATM    3  C   HET C   1)  -1.97214104 +1    0.4939853 +1   -0.0021946 +1
  C(HETATM    4  C1  HET D   2)   0.81645104 +1    0.5082840 +1    1.4331940 +1
  N(HETATM    5  N   HET D   2)   1.07962986 +1   -0.7959021 +1    1.1359136 +1
  C(HETATM    6  C2  HET D   2)   1.22831742 +1    1.5212706 +1    0.5760077 +1
  C(HETATM    7  C3  HET D   2)   1.84449558 +1    1.1957559 +1   -0.6452891 +1
  C(HETATM    8  C4  HET D   2)   2.19342273 +1   -0.1485330 +1   -0.8737248 +1
  H(HETATM    9  H   HET E   1)  -2.58020611 +1    0.7661496 +1    0.8762047 +1
  C(HETATM   10  C   HET F   2)   0.56831783 +1   -1.8492315 +1    2.0155020 +1
 XX(HETATM   11 XX   HET K   1)   1.43955892 +1   98.1399675 +1   95.6389400 +1 "  C3  HET D   2" "  C2  HET D   2" "  C1  HET D   2" =  7  6  4
  H(HETATM   11 1H1  HET K   1)   0.19000000 -1  180.0000000 +0    0.0000000 +0 " XX   HET K   1" "  C3  HET D   2" "  C2  HET D   2" = 11  7  6
  H(HETATM   12 2H1  HET K   1)  -0.74049116 +1    0.1729171 +1   -2.3756357 +1
  H(HETATM   13 3H1  HET K   1)  -0.74815708 +1    1.9046734 +1   -2.8215416 +1
  H(HETATM   14  H2  HET K   1)  -1.75466660 +1    2.5036748 +1   -0.6531056 +1
  H(HETATM   15  H1  HET D   2)   0.27387884 +1    0.7264222 +1    2.3683606 +1
  H(HETATM   16  H2  HET D   2)   1.02930149 +1    2.5657953 +1    0.8350708 +1
  H(HETATM   17  H3  HET D   2)   2.23019015 +1    1.9899583 +1   -1.3032034 +1
  H(HETATM   18  H4  HET D   2)   2.77065589 +1   -0.4258021 +1   -1.7608432 +1
  H(HETATM   19 1H   HET F   2)   0.64434409 +1   -1.5604726 +1    3.0827261 +1
  H(HETATM   20 2H   HET F   2)   1.12738704 +1   -2.7970229 +1    1.8933691 +1
  H(HETATM   21 3H   HET F   2)  -0.50229575 +1   -2.0491211 +1    1.7861638 +1
  C(HETATM   22  C1  HET K   1)   1.43955892 +0  164.2462234 +1  -34.0556075 +1 " XX   HET K   1" "  C3  HET D   2" "  C2  HET D   2" = 11  7  6
  C(HETATM   23  C2  HET K   1)  -1.53618209 +1    1.4720286 +1   -0.8561042 +1
  H(HETATM   24  H   HET B   2)   1.99699156 +1   -2.1974433 +1   -0.1622554 +1
 
 " XX   HET K   1"  1  "  C1  HET K   1"
 
 

          VARIABLE        FUNCTION
 :         0.19000       20.348890
 HTML(nores) symmetry  step=-0.005 points=60   gnorm=0.5 EPS=78.4 let(100) ddmin=0 lbfgs
 Using a a symmetry-defined dummy atom to locate the transition state for the reaction [CHO-CH-CH3]^(-) + [C5H5N-CH3]^(+) => CHO-CH=CH2 + C5H6N-CH3

  O(HETATM    1  O   HET A   1)  -1.77371309 +1   -0.7473166 +1   -0.1149946 +1
  C(HETATM    2  C   HET B   2)   1.77625686 +1   -1.1314160 +1    0.0105342 +1
  C(HETATM    3  C   HET C   1)  -1.97214104 +1    0.4939853 +1   -0.0021946 +1
  C(HETATM    4  C1  HET D   2)   0.81645104 +1    0.5082840 +1    1.4331940 +1
  N(HETATM    5  N   HET D   2)   1.07962986 +1   -0.7959021 +1    1.1359136 +1
  C(HETATM    6  C2  HET D   2)   1.22831742 +1    1.5212706 +1    0.5760077 +1
  C(HETATM    7  C3  HET D   2)   1.84449558 +1    1.1957559 +1   -0.6452891 +1
  C(HETATM    8  C4  HET D   2)   2.19342273 +1   -0.1485330 +1   -0.8737248 +1
  H(HETATM    9  H   HET E   1)  -2.58020611 +1    0.7661496 +1    0.8762047 +1
  C(HETATM   10  C   HET F   2)   0.56831783 +1   -1.8492315 +1    2.0155020 +1
 XX(HETATM   11 XX   HET K   1)   1.43955892 +1   98.1399675 +1   95.6389400 +1 "  C3  HET D   2" "  C2  HET D   2" "  C1  HET D   2" =  7  6  4
  H(HETATM   11 1H1  HET K   1)   0.19000000 -1  180.0000000 +0    0.0000000 +0 " XX   HET K   1" "  C3  HET D   2" "  C2  HET D   2" = 11  7  6
  H(HETATM   12 2H1  HET K   1)  -0.74049116 +1    0.1729171 +1   -2.3756357 +1
  H(HETATM   13 3H1  HET K   1)  -0.74815708 +1    1.9046734 +1   -2.8215416 +1
  H(HETATM   14  H2  HET K   1)  -1.75466660 +1    2.5036748 +1   -0.6531056 +1
  H(HETATM   15  H1  HET D   2)   0.27387884 +1    0.7264222 +1    2.3683606 +1
  H(HETATM   16  H2  HET D   2)   1.02930149 +1    2.5657953 +1    0.8350708 +1
  H(HETATM   17  H3  HET D   2)   2.23019015 +1    1.9899583 +1   -1.3032034 +1
  H(HETATM   18  H4  HET D   2)   2.77065589 +1   -0.4258021 +1   -1.7608432 +1
  H(HETATM   19 1H   HET F   2)   0.64434409 +1   -1.5604726 +1    3.0827261 +1
  H(HETATM   20 2H   HET F   2)   1.12738704 +1   -2.7970229 +1    1.8933691 +1
  H(HETATM   21 3H   HET F   2)  -0.50229575 +1   -2.0491211 +1    1.7861638 +1
  C(HETATM   22  C1  HET K   1)   1.43955892 +0  164.2462234 +1  -34.0556075 +1 " XX   HET K   1" "  C3  HET D   2" "  C2  HET D   2" = 11  7  6
  C(HETATM   23  C2  HET K   1)  -1.53618209 +1    1.4720286 +1   -0.8561042 +1
  H(HETATM   24  H   HET B   2)   1.99699156 +1   -2.1974433 +1   -0.1622554 +1
 
 " XX   HET K   1"  1  "  C1  HET K   1"
 

          Geometry optimization using L-BFGS

          Keyword "LET" re-set the number of cycles used in identifying the lowest-energy geometry to 100
 CYCLE:     1 TIME:   0.031 TIME LEFT:  2.00D  GRAD.:     3.029 HEAT:  20.78666
 CYCLE:     2 TIME:   0.016 TIME LEFT:  2.00D  GRAD.:     2.640 HEAT:  20.78722
 CYCLE:     3 TIME:   0.031 TIME LEFT:  2.00D  GRAD.:     2.634 HEAT:  20.78722
 CYCLE:     4 TIME:   0.016 TIME LEFT:  2.00D  GRAD.:     2.789 HEAT:  20.78785
 CYCLE:     5 TIME:   0.031 TIME LEFT:  2.00D  GRAD.:     4.321 HEAT:  20.78869
 CYCLE:     6 TIME:   0.016 TIME LEFT:  2.00D  GRAD.:     6.524 HEAT:  20.81919
 CYCLE:     7 TIME:   0.031 TIME LEFT:  2.00D  GRAD.:     7.469 HEAT:  20.86854
 CYCLE:     8 TIME:   0.016 TIME LEFT:  2.00D  GRAD.:     7.770 HEAT:  20.87253
 CYCLE:     9 TIME:   0.031 TIME LEFT:  2.00D  GRAD.:    11.708 HEAT:  20.86109
 CYCLE:    10 TIME:   0.016 TIME LEFT:  2.00D  GRAD.:     3.350 HEAT:  20.85610
 CYCLE:    11 TIME:   0.016 TIME LEFT:  2.00D  GRAD.:     2.131 HEAT:  20.85383
 CYCLE:    12 TIME:   0.031 TIME LEFT:  2.00D  GRAD.:     2.985 HEAT:  20.86391
 CYCLE:    13 TIME:   0.016 TIME LEFT:  2.00D  GRAD.:     5.859 HEAT:  20.86529
 CYCLE:    14 TIME:   0.031 TIME LEFT:  2.00D  GRAD.:     7.459 HEAT:  20.86705
 CYCLE:    15 TIME:   0.016 TIME LEFT:  2.00D  GRAD.:     6.491 HEAT:  20.86652
 CYCLE:    16 TIME:   0.031 TIME LEFT:  2.00D  GRAD.:     4.741 HEAT:  20.86966
 CYCLE:    17 TIME:   0.016 TIME LEFT:  2.00D  GRAD.:     2.349 HEAT:  20.87673
 CYCLE:    18 TIME:   0.031 TIME LEFT:  2.00D  GRAD.:     3.763 HEAT:  20.88847
 CYCLE:    19 TIME:   0.016 TIME LEFT:  2.00D  GRAD.:     9.713 HEAT:  20.91324
 CYCLE:    20 TIME:   0.016 TIME LEFT:  2.00D  GRAD.:     6.641 HEAT:  20.91651
 CYCLE:    21 TIME:   0.031 TIME LEFT:  2.00D  GRAD.:     3.489 HEAT:  20.90208
 CYCLE:    22 TIME:   0.016 TIME LEFT:  2.00D  GRAD.:     3.121 HEAT:  20.90536
 CYCLE:    23 TIME:   0.031 TIME LEFT:  2.00D  GRAD.:     8.140 HEAT:  20.90436
 CYCLE:    24 TIME:   0.016 TIME LEFT:  2.00D  GRAD.:     5.492 HEAT:  20.93826
 CYCLE:    25 TIME:   0.031 TIME LEFT:  2.00D  GRAD.:     4.129 HEAT:  20.95154
 CYCLE:    26 TIME:   0.031 TIME LEFT:  2.00D  GRAD.:     3.725 HEAT:  20.94874
 CYCLE:    27 TIME:   0.031 TIME LEFT:  2.00D  GRAD.:     4.355 HEAT:  20.97632
 CYCLE:    28 TIME:   0.016 TIME LEFT:  2.00D  GRAD.:     5.030 HEAT:  21.01883
 CYCLE:    29 TIME:   0.031 TIME LEFT:  2.00D  GRAD.:     9.665 HEAT:  21.05389
 CYCLE:    30 TIME:   0.031 TIME LEFT:  2.00D  GRAD.:    13.984 HEAT:  21.05762
 CYCLE:    31 TIME:   0.016 TIME LEFT:  2.00D  GRAD.:     8.472 HEAT:  21.11264
 CYCLE:    32 TIME:   0.031 TIME LEFT:  2.00D  GRAD.:     5.098 HEAT:  21.13769
 CYCLE:    33 TIME:   0.031 TIME LEFT:  2.00D  GRAD.:     7.946 HEAT:  21.14118
 CYCLE:    34 TIME:   0.016 TIME LEFT:  2.00D  GRAD.:    11.097 HEAT:  21.11809
 CYCLE:    35 TIME:   0.031 TIME LEFT:  2.00D  GRAD.:    12.699 HEAT:  21.18952
 CYCLE:    36 TIME:   0.031 TIME LEFT:  2.00D  GRAD.:    14.814 HEAT:  21.22683
 CYCLE:    37 TIME:   0.016 TIME LEFT:  2.00D  GRAD.:    22.177 HEAT:  21.18014
 CYCLE:    38 TIME:   0.031 TIME LEFT:  2.00D  GRAD.:    14.857 HEAT:  21.18691
 CYCLE:    39 TIME:   0.031 TIME LEFT:  2.00D  GRAD.:    29.353 HEAT:  21.12821
 CYCLE:    40 TIME:   0.031 TIME LEFT:  2.00D  GRAD.:    16.071 HEAT:  21.13787
 CYCLE:    41 TIME:   0.016 TIME LEFT:  2.00D  GRAD.:    15.196 HEAT:  21.17342
 CYCLE:    42 TIME:   0.031 TIME LEFT:  2.00D  GRAD.:     6.534 HEAT:  21.16144
 CYCLE:    43 TIME:   0.016 TIME LEFT:  2.00D  GRAD.:    16.109 HEAT:  21.12000
 CYCLE:    44 TIME:   0.031 TIME LEFT:  2.00D  GRAD.:     4.017 HEAT:  21.11187
 CYCLE:    45 TIME:   0.016 TIME LEFT:  2.00D  GRAD.:     8.764 HEAT:  21.31876
 CYCLE:    46 TIME:   0.031 TIME LEFT:  2.00D  GRAD.:     5.017 HEAT:  21.14938
 CYCLE:    47 TIME:   0.016 TIME LEFT:  2.00D  GRAD.:    44.083 HEAT:  21.14842
 CYCLE:    48 TIME:   0.031 TIME LEFT:  2.00D  GRAD.:     3.132 HEAT:  21.11710
 CYCLE:    49 TIME:   0.016 TIME LEFT:  2.00D  GRAD.:     3.339 HEAT:  21.15724
 CYCLE:    50 TIME:   0.031 TIME LEFT:  2.00D  GRAD.:    11.650 HEAT:  21.23523
 CYCLE:    51 TIME:   0.016 TIME LEFT:  2.00D  GRAD.:     6.681 HEAT:  21.25424
 CYCLE:    52 TIME:   0.031 TIME LEFT:  2.00D  GRAD.:     5.264 HEAT:  21.26362
 CYCLE:    53 TIME:   0.016 TIME LEFT:  2.00D  GRAD.:     4.688 HEAT:  21.25885
 CYCLE:    54 TIME:   0.016 TIME LEFT:  2.00D  GRAD.:     7.324 HEAT:  21.27629
 CYCLE:    55 TIME:   0.031 TIME LEFT:  2.00D  GRAD.:     5.224 HEAT:  21.33497
 CYCLE:    56 TIME:   0.016 TIME LEFT:  2.00D  GRAD.:     4.719 HEAT:  21.40426
 CYCLE:    57 TIME:   0.031 TIME LEFT:  2.00D  GRAD.:     7.123 HEAT:  21.39959
 CYCLE:    58 TIME:   0.016 TIME LEFT:  2.00D  GRAD.:     4.302 HEAT:  21.35387
 CYCLE:    59 TIME:   0.031 TIME LEFT:  2.00D  GRAD.:     3.075 HEAT:  21.32469
 CYCLE:    60 TIME:   0.016 TIME LEFT:  2.00D  GRAD.:    11.078 HEAT:  21.40009
 CYCLE:    61 TIME:   0.031 TIME LEFT:  2.00D  GRAD.:     3.297 HEAT:  21.41535
 CYCLE:    62 TIME:   0.016 TIME LEFT:  2.00D  GRAD.:     3.999 HEAT:  21.42846
 CYCLE:    63 TIME:   0.031 TIME LEFT:  2.00D  GRAD.:     3.755 HEAT:  21.43620
 CYCLE:    64 TIME:   0.016 TIME LEFT:  2.00D  GRAD.:    12.606 HEAT:  21.41428
 CYCLE:    65 TIME:   0.031 TIME LEFT:  2.00D  GRAD.:     5.090 HEAT:  21.29266
 CYCLE:    66 TIME:   0.031 TIME LEFT:  2.00D  GRAD.:     4.251 HEAT:  21.39786
 CYCLE:    67 TIME:   0.031 TIME LEFT:  2.00D  GRAD.:     4.957 HEAT:  21.40193
 CYCLE:    68 TIME:   0.031 TIME LEFT:  2.00D  GRAD.:     4.248 HEAT:  21.20225
 CYCLE:    69 TIME:   0.016 TIME LEFT:  2.00D  GRAD.:    28.909 HEAT:  21.32213
 CYCLE:    70 TIME:   0.031 TIME LEFT:  2.00D  GRAD.:     5.084 HEAT:  21.14443
 CYCLE:    71 TIME:   0.016 TIME LEFT:  2.00D  GRAD.:     3.310 HEAT:  21.09867
 CYCLE:    72 TIME:   0.031 TIME LEFT:  2.00D  GRAD.:     4.431 HEAT:  21.11223
 CYCLE:    73 TIME:   0.016 TIME LEFT:  2.00D  GRAD.:     7.049 HEAT:  21.33107
 CYCLE:    74 TIME:   0.031 TIME LEFT:  2.00D  GRAD.:    11.495 HEAT:  21.30353
 CYCLE:    75 TIME:   0.031 TIME LEFT:  2.00D  GRAD.:     6.999 HEAT:  21.26388
 CYCLE:    76 TIME:   0.031 TIME LEFT:  2.00D  GRAD.:     3.323 HEAT:  21.27764
 CYCLE:    77 TIME:   0.016 TIME LEFT:  2.00D  GRAD.:     5.013 HEAT:  21.36106
 CYCLE:    78 TIME:   0.031 TIME LEFT:  2.00D  GRAD.:    10.021 HEAT:  21.33554
 CYCLE:    79 TIME:   0.031 TIME LEFT:  2.00D  GRAD.:     4.600 HEAT:  21.32097
 CYCLE:    80 TIME:   0.031 TIME LEFT:  2.00D  GRAD.:     4.384 HEAT:  21.34437
 CYCLE:    81 TIME:   0.016 TIME LEFT:  2.00D  GRAD.:     6.062 HEAT:  21.40182
 CYCLE:    82 TIME:   0.031 TIME LEFT:  2.00D  GRAD.:     4.862 HEAT:  21.38117
 CYCLE:    83 TIME:   0.016 TIME LEFT:  2.00D  GRAD.:    10.776 HEAT:  21.38097
 CYCLE:    84 TIME:   0.031 TIME LEFT:  2.00D  GRAD.:    19.558 HEAT:  21.38901
 CYCLE:    85 TIME:   0.016 TIME LEFT:  2.00D  GRAD.:     4.446 HEAT:  21.40966
 CYCLE:    86 TIME:   0.031 TIME LEFT:  2.00D  GRAD.:     3.267 HEAT:  21.41808
 CYCLE:    87 TIME:   0.016 TIME LEFT:  2.00D  GRAD.:     2.486 HEAT:  21.42016
 CYCLE:    88 TIME:   0.031 TIME LEFT:  2.00D  GRAD.:     3.408 HEAT:  21.41933
 CYCLE:    89 TIME:   0.016 TIME LEFT:  2.00D  GRAD.:     4.486 HEAT:  21.41960
 CYCLE:    90 TIME:   0.016 TIME LEFT:  2.00D  GRAD.:     5.523 HEAT:  21.40108
 CYCLE:    91 TIME:   0.031 TIME LEFT:  2.00D  GRAD.:     6.830 HEAT:  21.34779
 CYCLE:    92 TIME:   0.031 TIME LEFT:  2.00D  GRAD.:     3.547 HEAT:  21.32361
 CYCLE:    93 TIME:   0.016 TIME LEFT:  2.00D  GRAD.:     4.057 HEAT:  21.34626
 CYCLE:    94 TIME:   0.031 TIME LEFT:  2.00D  GRAD.:     4.081 HEAT:  21.21571
 CYCLE:    95 TIME:   0.016 TIME LEFT:  2.00D  GRAD.:     5.109 HEAT:  21.22648
 CYCLE:    96 TIME:   0.031 TIME LEFT:  2.00D  GRAD.:     6.107 HEAT:  21.25477
 CYCLE:    97 TIME:   0.031 TIME LEFT:  2.00D  GRAD.:     6.257 HEAT:  21.26490
 CYCLE:    98 TIME:   0.031 TIME LEFT:  2.00D  GRAD.:     5.166 HEAT:  21.17731
 CYCLE:    99 TIME:   0.031 TIME LEFT:  2.00D  GRAD.:     3.689 HEAT:  21.18214
 CYCLE:   100 TIME:   0.016 TIME LEFT:  2.00D  GRAD.:     3.569 HEAT:  21.20452
 CYCLE:   101 TIME:   0.031 TIME LEFT:  2.00D  GRAD.:    10.984 HEAT:  21.18264


           HEAT OF FORMATION IS ESSENTIALLY STATIONARY


          CURRENT BEST VALUE OF HEAT OF FORMATION =     20.787199
 
 HTML(nores) symmetry  step=-0.005 points=60   gnorm=0.5 EPS=78.4 let(100) ddmin=0 lbfgs
 Using a a symmetry-defined dummy atom to locate the transition state for the reaction [CHO-CH-CH3]^(-) + [C5H5N-CH3]^(+) => CHO-CH=CH2 + C5H6N-CH3

  O(HETATM    1  O   HET A   1)  -1.77371309 +1   -0.7473166 +1   -0.1149946 +1
  C(HETATM    2  C   HET B   2)   1.77625686 +1   -1.1314160 +1    0.0105342 +1
  C(HETATM    3  C   HET C   1)  -1.97214104 +1    0.4939853 +1   -0.0021946 +1
  C(HETATM    4  C1  HET D   2)   0.81645104 +1    0.5082840 +1    1.4331940 +1
  N(HETATM    5  N   HET D   2)   1.07962986 +1   -0.7959021 +1    1.1359136 +1
  C(HETATM    6  C2  HET D   2)   1.22831742 +1    1.5212706 +1    0.5760077 +1
  C(HETATM    7  C3  HET D   2)   1.84449558 +1    1.1957559 +1   -0.6452891 +1
  C(HETATM    8  C4  HET D   2)   2.19342273 +1   -0.1485330 +1   -0.8737248 +1
  H(HETATM    9  H   HET E   1)  -2.58020611 +1    0.7661496 +1    0.8762047 +1
  C(HETATM   10  C   HET F   2)   0.56831783 +1   -1.8492315 +1    2.0155020 +1
 XX(HETATM   11 XX   HET K   1)   1.43955892 +1   98.1399675 +1   95.6389400 +1 "  C3  HET D   2" "  C2  HET D   2" "  C1  HET D   2" =  7  6  4
  H(HETATM   11 1H1  HET K   1)   0.18500000 -1  180.0000000 +0    0.0000000 +0 " XX   HET K   1" "  C3  HET D   2" "  C2  HET D   2" = 11  7  6
  H(HETATM   12 2H1  HET K   1)  -0.74049116 +1    0.1729171 +1   -2.3756357 +1
  H(HETATM   13 3H1  HET K   1)  -0.74815708 +1    1.9046734 +1   -2.8215416 +1
  H(HETATM   14  H2  HET K   1)  -1.75466660 +1    2.5036748 +1   -0.6531056 +1
  H(HETATM   15  H1  HET D   2)   0.27387884 +1    0.7264222 +1    2.3683606 +1
  H(HETATM   16  H2  HET D   2)   1.02930149 +1    2.5657953 +1    0.8350708 +1
  H(HETATM   17  H3  HET D   2)   2.23019015 +1    1.9899583 +1   -1.3032034 +1
  H(HETATM   18  H4  HET D   2)   2.77065589 +1   -0.4258021 +1   -1.7608432 +1
  H(HETATM   19 1H   HET F   2)   0.64434409 +1   -1.5604726 +1    3.0827261 +1
  H(HETATM   20 2H   HET F   2)   1.12738704 +1   -2.7970229 +1    1.8933691 +1
  H(HETATM   21 3H   HET F   2)  -0.50229575 +1   -2.0491211 +1    1.7861638 +1
  C(HETATM   22  C1  HET K   1)   1.43955892 +0  164.2462234 +1  -34.0556075 +1 " XX   HET K   1" "  C3  HET D   2" "  C2  HET D   2" = 11  7  6
  C(HETATM   23  C2  HET K   1)  -1.53618209 +1    1.4720286 +1   -0.8561042 +1
  H(HETATM   24  H   HET B   2)   1.99699156 +1   -2.1974433 +1   -0.1622554 +1
 
 " XX   HET K   1"  1  "  C1  HET K   1"
 
 

          VARIABLE        FUNCTION
 :         0.18500       20.787199
 HTML(nores) symmetry  step=-0.005 points=60   gnorm=0.5 EPS=78.4 let(100) ddmin=0 lbfgs
 Using a a symmetry-defined dummy atom to locate the transition state for the reaction [CHO-CH-CH3]^(-) + [C5H5N-CH3]^(+) => CHO-CH=CH2 + C5H6N-CH3

  O(HETATM    1  O   HET A   1)  -1.77371309 +1   -0.7473166 +1   -0.1149946 +1
  C(HETATM    2  C   HET B   2)   1.77625686 +1   -1.1314160 +1    0.0105342 +1
  C(HETATM    3  C   HET C   1)  -1.97214104 +1    0.4939853 +1   -0.0021946 +1
  C(HETATM    4  C1  HET D   2)   0.81645104 +1    0.5082840 +1    1.4331940 +1
  N(HETATM    5  N   HET D   2)   1.07962986 +1   -0.7959021 +1    1.1359136 +1
  C(HETATM    6  C2  HET D   2)   1.22831742 +1    1.5212706 +1    0.5760077 +1
  C(HETATM    7  C3  HET D   2)   1.84449558 +1    1.1957559 +1   -0.6452891 +1
  C(HETATM    8  C4  HET D   2)   2.19342273 +1   -0.1485330 +1   -0.8737248 +1
  H(HETATM    9  H   HET E   1)  -2.58020611 +1    0.7661496 +1    0.8762047 +1
  C(HETATM   10  C   HET F   2)   0.56831783 +1   -1.8492315 +1    2.0155020 +1
 XX(HETATM   11 XX   HET K   1)   1.43955892 +1   98.1399675 +1   95.6389400 +1 "  C3  HET D   2" "  C2  HET D   2" "  C1  HET D   2" =  7  6  4
  H(HETATM   11 1H1  HET K   1)   0.18500000 -1  180.0000000 +0    0.0000000 +0 " XX   HET K   1" "  C3  HET D   2" "  C2  HET D   2" = 11  7  6
  H(HETATM   12 2H1  HET K   1)  -0.74049116 +1    0.1729171 +1   -2.3756357 +1
  H(HETATM   13 3H1  HET K   1)  -0.74815708 +1    1.9046734 +1   -2.8215416 +1
  H(HETATM   14  H2  HET K   1)  -1.75466660 +1    2.5036748 +1   -0.6531056 +1
  H(HETATM   15  H1  HET D   2)   0.27387884 +1    0.7264222 +1    2.3683606 +1
  H(HETATM   16  H2  HET D   2)   1.02930149 +1    2.5657953 +1    0.8350708 +1
  H(HETATM   17  H3  HET D   2)   2.23019015 +1    1.9899583 +1   -1.3032034 +1
  H(HETATM   18  H4  HET D   2)   2.77065589 +1   -0.4258021 +1   -1.7608432 +1
  H(HETATM   19 1H   HET F   2)   0.64434409 +1   -1.5604726 +1    3.0827261 +1
  H(HETATM   20 2H   HET F   2)   1.12738704 +1   -2.7970229 +1    1.8933691 +1
  H(HETATM   21 3H   HET F   2)  -0.50229575 +1   -2.0491211 +1    1.7861638 +1
  C(HETATM   22  C1  HET K   1)   1.43955892 +0  164.2462234 +1  -34.0556075 +1 " XX   HET K   1" "  C3  HET D   2" "  C2  HET D   2" = 11  7  6
  C(HETATM   23  C2  HET K   1)  -1.53618209 +1    1.4720286 +1   -0.8561042 +1
  H(HETATM   24  H   HET B   2)   1.99699156 +1   -2.1974433 +1   -0.1622554 +1
 
 " XX   HET K   1"  1  "  C1  HET K   1"
 

          Geometry optimization using L-BFGS

          Keyword "LET" re-set the number of cycles used in identifying the lowest-energy geometry to 100
 CYCLE:     1 TIME:   0.047 TIME LEFT:  2.00D  GRAD.:     4.201 HEAT:  21.23201
 CYCLE:     2 TIME:   0.016 TIME LEFT:  2.00D  GRAD.:     3.842 HEAT:  21.23257
 CYCLE:     3 TIME:   0.031 TIME LEFT:  2.00D  GRAD.:     3.836 HEAT:  21.23257
 CYCLE:     4 TIME:   0.031 TIME LEFT:  2.00D  GRAD.:     3.307 HEAT:  21.23741
 CYCLE:     5 TIME:   0.031 TIME LEFT:  2.00D  GRAD.:     6.022 HEAT:  21.26738
 CYCLE:     6 TIME:   0.016 TIME LEFT:  2.00D  GRAD.:     8.114 HEAT:  21.26625
 CYCLE:     7 TIME:   0.031 TIME LEFT:  2.00D  GRAD.:     6.218 HEAT:  21.25930
 CYCLE:     8 TIME:   0.016 TIME LEFT:  2.00D  GRAD.:     3.932 HEAT:  21.31323
 CYCLE:     9 TIME:   0.031 TIME LEFT:  2.00D  GRAD.:     4.382 HEAT:  21.30631
 CYCLE:    10 TIME:   0.031 TIME LEFT:  2.00D  GRAD.:     3.263 HEAT:  21.30419
 CYCLE:    11 TIME:   0.031 TIME LEFT:  2.00D  GRAD.:     2.445 HEAT:  21.29267
 CYCLE:    12 TIME:   0.016 TIME LEFT:  2.00D  GRAD.:     2.370 HEAT:  21.30356
 CYCLE:    13 TIME:   0.031 TIME LEFT:  2.00D  GRAD.:     2.618 HEAT:  21.29982
 CYCLE:    14 TIME:   0.031 TIME LEFT:  2.00D  GRAD.:     3.426 HEAT:  21.30078
 CYCLE:    15 TIME:   0.031 TIME LEFT:  2.00D  GRAD.:     3.002 HEAT:  21.31120
 CYCLE:    16 TIME:   0.016 TIME LEFT:  2.00D  GRAD.:     2.921 HEAT:  21.33321
 CYCLE:    17 TIME:   0.031 TIME LEFT:  2.00D  GRAD.:     3.426 HEAT:  21.33174
 CYCLE:    18 TIME:   0.031 TIME LEFT:  2.00D  GRAD.:    14.655 HEAT:  21.33915
 CYCLE:    19 TIME:   0.031 TIME LEFT:  2.00D  GRAD.:   156.569 HEAT:  21.84019
 CYCLE:    20 TIME:   0.016 TIME LEFT:  2.00D  GRAD.:    84.829 HEAT:  21.53155
 CYCLE:    21 TIME:   0.031 TIME LEFT:  2.00D  GRAD.:    59.370 HEAT:  21.39171
 CYCLE:    22 TIME:   0.031 TIME LEFT:  2.00D  GRAD.:    33.894 HEAT:  21.33386
 CYCLE:    23 TIME:   0.031 TIME LEFT:  2.00D  GRAD.:    12.595 HEAT:  21.35198
 CYCLE:    24 TIME:   0.016 TIME LEFT:  2.00D  GRAD.:    10.533 HEAT:  21.42046
 CYCLE:    25 TIME:   0.031 TIME LEFT:  2.00D  GRAD.:     9.881 HEAT:  21.34008
 CYCLE:    26 TIME:   0.016 TIME LEFT:  2.00D  GRAD.:    35.276 HEAT:  21.43883
 CYCLE:    27 TIME:   0.031 TIME LEFT:  2.00D  GRAD.:    13.205 HEAT:  21.51575
 CYCLE:    28 TIME:   0.016 TIME LEFT:  2.00D  GRAD.:    19.171 HEAT:  21.39397
 CYCLE:    29 TIME:   0.031 TIME LEFT:  2.00D  GRAD.:   146.013 HEAT:  21.74335
 CYCLE:    30 TIME:   0.016 TIME LEFT:  2.00D  GRAD.:    14.127 HEAT:  21.45540
 CYCLE:    31 TIME:   0.031 TIME LEFT:  2.00D  GRAD.:    11.202 HEAT:  21.30389
 CYCLE:    32 TIME:   0.016 TIME LEFT:  2.00D  GRAD.:     9.050 HEAT:  21.48003
 CYCLE:    33 TIME:   0.031 TIME LEFT:  2.00D  GRAD.:    12.329 HEAT:  21.48411
 CYCLE:    34 TIME:   0.016 TIME LEFT:  2.00D  GRAD.:     2.427 HEAT:  21.38267
 CYCLE:    35 TIME:   0.031 TIME LEFT:  2.00D  GRAD.:     2.111 HEAT:  21.41266
 CYCLE:    36 TIME:   0.016 TIME LEFT:  2.00D  GRAD.:     7.393 HEAT:  21.49116
 CYCLE:    37 TIME:   0.031 TIME LEFT:  2.00D  GRAD.:     3.525 HEAT:  21.44200
 CYCLE:    38 TIME:   0.031 TIME LEFT:  2.00D  GRAD.:     2.597 HEAT:  21.41086
 CYCLE:    39 TIME:   0.016 TIME LEFT:  2.00D  GRAD.:     2.078 HEAT:  21.40730
 CYCLE:    40 TIME:   0.031 TIME LEFT:  2.00D  GRAD.:    14.505 HEAT:  21.51372
 CYCLE:    41 TIME:   0.031 TIME LEFT:  2.00D  GRAD.:    63.434 HEAT:  21.75627
 CYCLE:    42 TIME:   0.016 TIME LEFT:  2.00D  GRAD.:     4.589 HEAT:  21.51312
 CYCLE:    43 TIME:   0.031 TIME LEFT:  2.00D  GRAD.:     4.931 HEAT:  21.54372
 CYCLE:    44 TIME:   0.031 TIME LEFT:  2.00D  GRAD.:     6.652 HEAT:  21.62863
 CYCLE:    45 TIME:   0.016 TIME LEFT:  2.00D  GRAD.:    12.146 HEAT:  21.63976
 CYCLE:    46 TIME:   0.031 TIME LEFT:  2.00D  GRAD.:    84.207 HEAT:  21.72988
 CYCLE:    47 TIME:   0.031 TIME LEFT:  2.00D  GRAD.:     8.582 HEAT:  21.61274
 CYCLE:    48 TIME:   0.031 TIME LEFT:  2.00D  GRAD.:     6.373 HEAT:  21.58793
 CYCLE:    49 TIME:   0.031 TIME LEFT:  2.00D  GRAD.:     5.919 HEAT:  21.56074
 CYCLE:    50 TIME:   0.016 TIME LEFT:  2.00D  GRAD.:     5.591 HEAT:  21.55571
 CYCLE:    51 TIME:   0.031 TIME LEFT:  2.00D  GRAD.:    13.269 HEAT:  21.79179
 CYCLE:    52 TIME:   0.031 TIME LEFT:  2.00D  GRAD.:    13.115 HEAT:  21.55934
 CYCLE:    53 TIME:   0.016 TIME LEFT:  2.00D  GRAD.:     9.493 HEAT:  21.56659
 CYCLE:    54 TIME:   0.031 TIME LEFT:  2.00D  GRAD.:     3.658 HEAT:  21.60015
 CYCLE:    55 TIME:   0.031 TIME LEFT:  2.00D  GRAD.:     2.531 HEAT:  21.63718
 CYCLE:    56 TIME:   0.016 TIME LEFT:  2.00D  GRAD.:    12.183 HEAT:  21.86158
 CYCLE:    57 TIME:   0.031 TIME LEFT:  2.00D  GRAD.:     6.038 HEAT:  21.72558
 CYCLE:    58 TIME:   0.016 TIME LEFT:  2.00D  GRAD.:    57.954 HEAT:  21.65889
 CYCLE:    59 TIME:   0.031 TIME LEFT:  2.00D  GRAD.:     2.983 HEAT:  21.66489
 CYCLE:    60 TIME:   0.031 TIME LEFT:  2.00D  GRAD.:     5.002 HEAT:  21.70793
 CYCLE:    61 TIME:   0.016 TIME LEFT:  2.00D  GRAD.:     5.717 HEAT:  21.74272
 CYCLE:    62 TIME:   0.031 TIME LEFT:  2.00D  GRAD.:     3.888 HEAT:  21.77748
 CYCLE:    63 TIME:   0.016 TIME LEFT:  2.00D  GRAD.:     8.979 HEAT:  21.80161
 CYCLE:    64 TIME:   0.031 TIME LEFT:  2.00D  GRAD.:     7.680 HEAT:  21.80580
 CYCLE:    65 TIME:   0.031 TIME LEFT:  2.00D  GRAD.:     4.833 HEAT:  21.71195
 CYCLE:    66 TIME:   0.016 TIME LEFT:  2.00D  GRAD.:     5.135 HEAT:  21.70745
 CYCLE:    67 TIME:   0.031 TIME LEFT:  2.00D  GRAD.:    24.022 HEAT:  21.89807
 CYCLE:    68 TIME:   0.031 TIME LEFT:  2.00D  GRAD.:     4.892 HEAT:  21.77870
 CYCLE:    69 TIME:   0.016 TIME LEFT:  2.00D  GRAD.:     2.824 HEAT:  21.77902
 CYCLE:    70 TIME:   0.031 TIME LEFT:  2.00D  GRAD.:     4.213 HEAT:  21.81057
 CYCLE:    71 TIME:   0.031 TIME LEFT:  2.00D  GRAD.:     6.252 HEAT:  21.85234
 CYCLE:    72 TIME:   0.016 TIME LEFT:  2.00D  GRAD.:     6.416 HEAT:  21.88774
 CYCLE:    73 TIME:   0.031 TIME LEFT:  2.00D  GRAD.:    36.700 HEAT:  21.77806
 CYCLE:    74 TIME:   0.016 TIME LEFT:  2.00D  GRAD.:    29.805 HEAT:  21.90942
 CYCLE:    75 TIME:   0.031 TIME LEFT:  2.00D  GRAD.:     2.899 HEAT:  21.88129
 CYCLE:    76 TIME:   0.031 TIME LEFT:  2.00D  GRAD.:     4.822 HEAT:  21.78941
 CYCLE:    77 TIME:   0.016 TIME LEFT:  2.00D  GRAD.:     5.693 HEAT:  21.80446
 CYCLE:    78 TIME:   0.031 TIME LEFT:  2.00D  GRAD.:    21.764 HEAT:  21.71030
 CYCLE:    79 TIME:   0.031 TIME LEFT:  2.00D  GRAD.:     5.231 HEAT:  21.82499
 CYCLE:    80 TIME:   0.016 TIME LEFT:  2.00D  GRAD.:     3.063 HEAT:  21.80898
 CYCLE:    81 TIME:   0.031 TIME LEFT:  2.00D  GRAD.:     4.539 HEAT:  21.54338
 CYCLE:    82 TIME:   0.016 TIME LEFT:  2.00D  GRAD.:     6.161 HEAT:  21.60516
 CYCLE:    83 TIME:   0.031 TIME LEFT:  2.00D  GRAD.:     5.179 HEAT:  21.83411
 CYCLE:    84 TIME:   0.031 TIME LEFT:  2.00D  GRAD.:     3.563 HEAT:  21.78417
 CYCLE:    85 TIME:   0.016 TIME LEFT:  2.00D  GRAD.:     7.522 HEAT:  21.70526
 CYCLE:    86 TIME:   0.031 TIME LEFT:  2.00D  GRAD.:     8.195 HEAT:  21.76973
 CYCLE:    87 TIME:   0.031 TIME LEFT:  2.00D  GRAD.:     4.684 HEAT:  21.75218
 CYCLE:    88 TIME:   0.016 TIME LEFT:  2.00D  GRAD.:    10.338 HEAT:  21.81206
 CYCLE:    89 TIME:   0.031 TIME LEFT:  2.00D  GRAD.:     4.565 HEAT:  21.82853
 CYCLE:    90 TIME:   0.031 TIME LEFT:  2.00D  GRAD.:     4.208 HEAT:  21.84498
 CYCLE:    91 TIME:   0.016 TIME LEFT:  2.00D  GRAD.:     4.096 HEAT:  21.85578
 CYCLE:    92 TIME:   0.031 TIME LEFT:  2.00D  GRAD.:     4.888 HEAT:  21.87593
 CYCLE:    93 TIME:   0.016 TIME LEFT:  2.00D  GRAD.:     8.320 HEAT:  21.89525
 CYCLE:    94 TIME:   0.031 TIME LEFT:  2.00D  GRAD.:     5.124 HEAT:  21.89464
 CYCLE:    95 TIME:   0.016 TIME LEFT:  2.00D  GRAD.:     4.829 HEAT:  21.87955
 CYCLE:    96 TIME:   0.031 TIME LEFT:  2.00D  GRAD.:     4.723 HEAT:  21.86549
 CYCLE:    97 TIME:   0.016 TIME LEFT:  2.00D  GRAD.:     3.516 HEAT:  21.86730
 CYCLE:    98 TIME:   0.016 TIME LEFT:  2.00D  GRAD.:     4.411 HEAT:  21.87373
 CYCLE:    99 TIME:   0.031 TIME LEFT:  2.00D  GRAD.:     4.493 HEAT:  21.81274
 CYCLE:   100 TIME:   0.016 TIME LEFT:  2.00D  GRAD.:     6.787 HEAT:  21.71517
 CYCLE:   101 TIME:   0.031 TIME LEFT:  2.00D  GRAD.:     3.555 HEAT:  21.69939


           HEAT OF FORMATION IS ESSENTIALLY STATIONARY


          CURRENT BEST VALUE OF HEAT OF FORMATION =     21.230283
 
 HTML(nores) symmetry  step=-0.005 points=60   gnorm=0.5 EPS=78.4 let(100) ddmin=0 lbfgs
 Using a a symmetry-defined dummy atom to locate the transition state for the reaction [CHO-CH-CH3]^(-) + [C5H5N-CH3]^(+) => CHO-CH=CH2 + C5H6N-CH3

  O(HETATM    1  O   HET A   1)  -1.77371309 +1   -0.7473166 +1   -0.1149946 +1
  C(HETATM    2  C   HET B   2)   1.77625686 +1   -1.1314160 +1    0.0105342 +1
  C(HETATM    3  C   HET C   1)  -1.97214104 +1    0.4939853 +1   -0.0021946 +1
  C(HETATM    4  C1  HET D   2)   0.81645104 +1    0.5082840 +1    1.4331940 +1
  N(HETATM    5  N   HET D   2)   1.07962986 +1   -0.7959021 +1    1.1359136 +1
  C(HETATM    6  C2  HET D   2)   1.22831742 +1    1.5212706 +1    0.5760077 +1
  C(HETATM    7  C3  HET D   2)   1.84449558 +1    1.1957559 +1   -0.6452891 +1
  C(HETATM    8  C4  HET D   2)   2.19342273 +1   -0.1485330 +1   -0.8737248 +1
  H(HETATM    9  H   HET E   1)  -2.58020611 +1    0.7661496 +1    0.8762047 +1
  C(HETATM   10  C   HET F   2)   0.56831783 +1   -1.8492315 +1    2.0155020 +1
 XX(HETATM   11 XX   HET K   1)   1.43955892 +1   98.1399675 +1   95.6389400 +1 "  C3  HET D   2" "  C2  HET D   2" "  C1  HET D   2" =  7  6  4
  H(HETATM   11 1H1  HET K   1)   0.18000000 -1  180.0000000 +0    0.0000000 +0 " XX   HET K   1" "  C3  HET D   2" "  C2  HET D   2" = 11  7  6
  H(HETATM   12 2H1  HET K   1)  -0.74049116 +1    0.1729171 +1   -2.3756357 +1
  H(HETATM   13 3H1  HET K   1)  -0.74815708 +1    1.9046734 +1   -2.8215416 +1
  H(HETATM   14  H2  HET K   1)  -1.75466660 +1    2.5036748 +1   -0.6531056 +1
  H(HETATM   15  H1  HET D   2)   0.27387884 +1    0.7264222 +1    2.3683606 +1
  H(HETATM   16  H2  HET D   2)   1.02930149 +1    2.5657953 +1    0.8350708 +1
  H(HETATM   17  H3  HET D   2)   2.23019015 +1    1.9899583 +1   -1.3032034 +1
  H(HETATM   18  H4  HET D   2)   2.77065589 +1   -0.4258021 +1   -1.7608432 +1
  H(HETATM   19 1H   HET F   2)   0.64434409 +1   -1.5604726 +1    3.0827261 +1
  H(HETATM   20 2H   HET F   2)   1.12738704 +1   -2.7970229 +1    1.8933691 +1
  H(HETATM   21 3H   HET F   2)  -0.50229575 +1   -2.0491211 +1    1.7861638 +1
  C(HETATM   22  C1  HET K   1)   1.43955892 +0  164.2462234 +1  -34.0556075 +1 " XX   HET K   1" "  C3  HET D   2" "  C2  HET D   2" = 11  7  6
  C(HETATM   23  C2  HET K   1)  -1.53618209 +1    1.4720286 +1   -0.8561042 +1
  H(HETATM   24  H   HET B   2)   1.99699156 +1   -2.1974433 +1   -0.1622554 +1
 
 " XX   HET K   1"  1  "  C1  HET K   1"
 
 

          VARIABLE        FUNCTION
 :         0.18000       21.230283
 HTML(nores) symmetry  step=-0.005 points=60   gnorm=0.5 EPS=78.4 let(100) ddmin=0 lbfgs
 Using a a symmetry-defined dummy atom to locate the transition state for the reaction [CHO-CH-CH3]^(-) + [C5H5N-CH3]^(+) => CHO-CH=CH2 + C5H6N-CH3

  O(HETATM    1  O   HET A   1)  -1.77371309 +1   -0.7473166 +1   -0.1149946 +1
  C(HETATM    2  C   HET B   2)   1.77625686 +1   -1.1314160 +1    0.0105342 +1
  C(HETATM    3  C   HET C   1)  -1.97214104 +1    0.4939853 +1   -0.0021946 +1
  C(HETATM    4  C1  HET D   2)   0.81645104 +1    0.5082840 +1    1.4331940 +1
  N(HETATM    5  N   HET D   2)   1.07962986 +1   -0.7959021 +1    1.1359136 +1
  C(HETATM    6  C2  HET D   2)   1.22831742 +1    1.5212706 +1    0.5760077 +1
  C(HETATM    7  C3  HET D   2)   1.84449558 +1    1.1957559 +1   -0.6452891 +1
  C(HETATM    8  C4  HET D   2)   2.19342273 +1   -0.1485330 +1   -0.8737248 +1
  H(HETATM    9  H   HET E   1)  -2.58020611 +1    0.7661496 +1    0.8762047 +1
  C(HETATM   10  C   HET F   2)   0.56831783 +1   -1.8492315 +1    2.0155020 +1
 XX(HETATM   11 XX   HET K   1)   1.43955892 +1   98.1399675 +1   95.6389400 +1 "  C3  HET D   2" "  C2  HET D   2" "  C1  HET D   2" =  7  6  4
  H(HETATM   11 1H1  HET K   1)   0.18000000 -1  180.0000000 +0    0.0000000 +0 " XX   HET K   1" "  C3  HET D   2" "  C2  HET D   2" = 11  7  6
  H(HETATM   12 2H1  HET K   1)  -0.74049116 +1    0.1729171 +1   -2.3756357 +1
  H(HETATM   13 3H1  HET K   1)  -0.74815708 +1    1.9046734 +1   -2.8215416 +1
  H(HETATM   14  H2  HET K   1)  -1.75466660 +1    2.5036748 +1   -0.6531056 +1
  H(HETATM   15  H1  HET D   2)   0.27387884 +1    0.7264222 +1    2.3683606 +1
  H(HETATM   16  H2  HET D   2)   1.02930149 +1    2.5657953 +1    0.8350708 +1
  H(HETATM   17  H3  HET D   2)   2.23019015 +1    1.9899583 +1   -1.3032034 +1
  H(HETATM   18  H4  HET D   2)   2.77065589 +1   -0.4258021 +1   -1.7608432 +1
  H(HETATM   19 1H   HET F   2)   0.64434409 +1   -1.5604726 +1    3.0827261 +1
  H(HETATM   20 2H   HET F   2)   1.12738704 +1   -2.7970229 +1    1.8933691 +1
  H(HETATM   21 3H   HET F   2)  -0.50229575 +1   -2.0491211 +1    1.7861638 +1
  C(HETATM   22  C1  HET K   1)   1.43955892 +0  164.2462234 +1  -34.0556075 +1 " XX   HET K   1" "  C3  HET D   2" "  C2  HET D   2" = 11  7  6
  C(HETATM   23  C2  HET K   1)  -1.53618209 +1    1.4720286 +1   -0.8561042 +1
  H(HETATM   24  H   HET B   2)   1.99699156 +1   -2.1974433 +1   -0.1622554 +1
 
 " XX   HET K   1"  1  "  C1  HET K   1"
 

          Geometry optimization using L-BFGS

          Keyword "LET" re-set the number of cycles used in identifying the lowest-energy geometry to 100
 CYCLE:     1 TIME:   0.031 TIME LEFT:  2.00D  GRAD.:     6.348 HEAT:  21.68419
 CYCLE:     2 TIME:   0.031 TIME LEFT:  2.00D  GRAD.:     5.701 HEAT:  21.68462
 CYCLE:     3 TIME:   0.016 TIME LEFT:  2.00D  GRAD.:     5.691 HEAT:  21.68462
 CYCLE:     4 TIME:   0.016 TIME LEFT:  2.00D  GRAD.:     4.670 HEAT:  21.68888
 CYCLE:     5 TIME:   0.031 TIME LEFT:  2.00D  GRAD.:     7.685 HEAT:  21.71843
[...]
 CYCLE:    23 TIME:   0.020 TIME LEFT:  2.00D  GRAD.:     1.002 HEAT:  23.87006
 CYCLE:    24 TIME:   0.023 TIME LEFT:  2.00D  GRAD.:     0.663 HEAT:  23.86671
 CYCLE:    25 TIME:   0.027 TIME LEFT:  2.00D  GRAD.:     1.140 HEAT:  23.87213
 CYCLE:    26 TIME:   0.023 TIME LEFT:  2.00D  GRAD.:     0.742 HEAT:  23.87037
 CYCLE:    27 TIME:   0.020 TIME LEFT:  2.00D  GRAD.:     0.761 HEAT:  23.91801
 CYCLE:    28 TIME:   0.020 TIME LEFT:  2.00D  GRAD.:     1.197 HEAT:  23.91803
 CYCLE:    29 TIME:   0.020 TIME LEFT:  2.00D  GRAD.:     1.545 HEAT:  23.91744
 CYCLE:    30 TIME:   0.020 TIME LEFT:  2.00D  GRAD.:     1.189 HEAT:  23.91596
 CYCLE:    31 TIME:   0.023 TIME LEFT:  2.00D  GRAD.:     0.690 HEAT:  23.91508
 CYCLE:    32 TIME:   0.027 TIME LEFT:  2.00D  GRAD.:     0.564 HEAT:  23.91505
 CYCLE:    33 TIME:   0.020 TIME LEFT:  2.00D  GRAD.:     0.837 HEAT:  23.91484
 CYCLE:    34 TIME:   0.020 TIME LEFT:  2.00D  GRAD.:     2.600 HEAT:  23.91447
 CYCLE:    35 TIME:   0.023 TIME LEFT:  2.00D  GRAD.:     1.010 HEAT:  23.91446
 CYCLE:    36 TIME:   0.027 TIME LEFT:  2.00D  GRAD.:     0.683 HEAT:  23.91442
 CYCLE:    37 TIME:   0.023 TIME LEFT:  2.00D  GRAD.:     1.099 HEAT:  23.91518
 CYCLE:    38 TIME:   0.020 TIME LEFT:  2.00D  GRAD.:     1.161 HEAT:  23.91512
 CYCLE:    39 TIME:   0.020 TIME LEFT:  2.00D  GRAD.:     1.662 HEAT:  23.86696
 CYCLE:    40 TIME:   0.031 TIME LEFT:  2.00D  GRAD.:     1.264 HEAT:  23.86708
 CYCLE:    41 TIME:   0.020 TIME LEFT:  2.00D  GRAD.:     0.767 HEAT:  23.86703
 CYCLE:    42 TIME:   0.027 TIME LEFT:  2.00D  GRAD.:     0.699 HEAT:  23.86717
 CYCLE:    43 TIME:   0.020 TIME LEFT:  2.00D  GRAD.:     1.068 HEAT:  23.86681
 CYCLE:    44 TIME:   0.023 TIME LEFT:  2.00D  GRAD.:     0.754 HEAT:  23.86646
 CYCLE:    45 TIME:   0.020 TIME LEFT:  2.00D  GRAD.:     1.244 HEAT:  23.86781
 CYCLE:    46 TIME:   0.020 TIME LEFT:  2.00D  GRAD.:     1.258 HEAT:  23.86775
 CYCLE:    47 TIME:   0.027 TIME LEFT:  2.00D  GRAD.:     0.924 HEAT:  23.86778
 CYCLE:    48 TIME:   0.023 TIME LEFT:  2.00D  GRAD.:     0.462 HEAT:  23.86782


          CURRENT BEST VALUE OF HEAT OF FORMATION =     23.809603
 
 HTML(nores) symmetry  step=-0.005 points=60   gnorm=0.5 EPS=78.4 let(100) ddmin=0 lbfgs
 Using a a symmetry-defined dummy atom to locate the transition state for the reaction [CHO-CH-CH3]^(-) + [C5H5N-CH3]^(+) => CHO-CH=CH2 + C5H6N-CH3

  O(HETATM    1  O   HET A   1)  -2.33617957 +1    0.7728383 +1    0.2213490 +1
  C(HETATM    2  C   HET B   2)   0.85573478 +1   -1.7998000 +1    0.1266405 +1
  C(HETATM    3  C   HET C   1)  -1.66286877 +1    1.7876967 +1    0.2595201 +1
  C(HETATM    4  C1  HET D   2)   1.59841567 +1    0.2216173 +1    1.2134287 +1
  N(HETATM    5  N   HET D   2)   1.15382658 +1   -1.1141107 +1    1.3253384 +1
  C(HETATM    6  C2  HET D   2)   1.89847068 +1    0.7832447 +1    0.0263656 +1
  C(HETATM    7  C3  HET D   2)   1.59119966 +1    0.1087572 +1   -1.2514123 +1
  C(HETATM    8  C4  HET D   2)   1.13618819 +1   -1.2866383 +1   -1.0865876 +1
  H(HETATM    9  H   HET E   1)  -1.61397234 +1    2.3588782 +1    1.1989645 +1
  C(HETATM   10  C   HET F   2)   0.25812557 +1   -1.3964154 +1    2.4602057 +1
 XX(HETATM   11 XX   HET K   1)   1.41537318 +1  105.0539401 +1  105.7504172 +1 "  C3  HET D   2" "  C2  HET D   2" "  C1  HET D   2" =  7  6  4
  H(HETATM   11 1H1  HET K   1)  -0.09000000 -1  180.0000000 +0    0.0000000 +0 " XX   HET K   1" "  C3  HET D   2" "  C2  HET D   2" = 11  7  6
  H(HETATM   12 2H1  HET K   1)  -1.23324016 +1    0.5668228 +1   -2.1384773 +1
  H(HETATM   13 3H1  HET K   1)  -0.25949341 +1    1.9196400 +1   -2.9050195 +1
  H(HETATM   14  H2  HET K   1)  -0.50013331 +1    3.2845114 +1   -0.8038554 +1
  H(HETATM   15  H1  HET D   2)   1.75603818 +1    0.7308142 +1    2.1701666 +1
  H(HETATM   16  H2  HET D   2)   2.34542860 +1    1.7703277 +1   -0.0378556 +1
  H(HETATM   17  H3  HET D   2)   2.35620234 +1    0.2445686 +1   -2.0270990 +1
  H(HETATM   18  H4  HET D   2)   1.00952092 +1   -1.8691381 +1   -1.9938605 +1
  H(HETATM   19 1H   HET F   2)   0.68489850 +1   -0.9842546 +1    3.3918045 +1
  H(HETATM   20 2H   HET F   2)   0.15282995 +1   -2.4879846 +1    2.5956269 +1
  H(HETATM   21 3H   HET F   2)  -0.75022428 +1   -0.9684524 +1    2.3276193 +1
  C(HETATM   22  C1  HET K   1)   1.41537318 +0  166.9272502 +1  -37.2106942 +1 " XX   HET K   1" "  C3  HET D   2" "  C2  HET D   2" = 11  7  6
  C(HETATM   23  C2  HET K   1)  -0.92243979 +1    2.2842123 +1   -0.8969671 +1
  H(HETATM   24  H   HET B   2)   0.45322016 +1   -2.8085134 +1    0.2682925 +1
 
 " XX   HET K   1"  1  "  C1  HET K   1"
 
 

          VARIABLE        FUNCTION
 :        -0.09000       23.809603
 HTML(nores) symmetry  step=-0.005 points=60   gnorm=0.5 EPS=78.4 let(100) ddmin=0 lbfgs
 Using a a symmetry-defined dummy atom to locate the transition state for the reaction [CHO-CH-CH3]^(-) + [C5H5N-CH3]^(+) => CHO-CH=CH2 + C5H6N-CH3

  O(HETATM    1  O   HET A   1)  -2.33617957 +1    0.7728383 +1    0.2213490 +1
  C(HETATM    2  C   HET B   2)   0.85573478 +1   -1.7998000 +1    0.1266405 +1
  C(HETATM    3  C   HET C   1)  -1.66286877 +1    1.7876967 +1    0.2595201 +1
  C(HETATM    4  C1  HET D   2)   1.59841567 +1    0.2216173 +1    1.2134287 +1
  N(HETATM    5  N   HET D   2)   1.15382658 +1   -1.1141107 +1    1.3253384 +1
  C(HETATM    6  C2  HET D   2)   1.89847068 +1    0.7832447 +1    0.0263656 +1
  C(HETATM    7  C3  HET D   2)   1.59119966 +1    0.1087572 +1   -1.2514123 +1
  C(HETATM    8  C4  HET D   2)   1.13618819 +1   -1.2866383 +1   -1.0865876 +1
  H(HETATM    9  H   HET E   1)  -1.61397234 +1    2.3588782 +1    1.1989645 +1
  C(HETATM   10  C   HET F   2)   0.25812557 +1   -1.3964154 +1    2.4602057 +1
 XX(HETATM   11 XX   HET K   1)   1.41537318 +1  105.0539401 +1  105.7504172 +1 "  C3  HET D   2" "  C2  HET D   2" "  C1  HET D   2" =  7  6  4
  H(HETATM   11 1H1  HET K   1)  -0.09000000 -1  180.0000000 +0    0.0000000 +0 " XX   HET K   1" "  C3  HET D   2" "  C2  HET D   2" = 11  7  6
  H(HETATM   12 2H1  HET K   1)  -1.23324016 +1    0.5668228 +1   -2.1384773 +1
  H(HETATM   13 3H1  HET K   1)  -0.25949341 +1    1.9196400 +1   -2.9050195 +1
  H(HETATM   14  H2  HET K   1)  -0.50013331 +1    3.2845114 +1   -0.8038554 +1
  H(HETATM   15  H1  HET D   2)   1.75603818 +1    0.7308142 +1    2.1701666 +1
  H(HETATM   16  H2  HET D   2)   2.34542860 +1    1.7703277 +1   -0.0378556 +1
  H(HETATM   17  H3  HET D   2)   2.35620234 +1    0.2445686 +1   -2.0270990 +1
  H(HETATM   18  H4  HET D   2)   1.00952092 +1   -1.8691381 +1   -1.9938605 +1
  H(HETATM   19 1H   HET F   2)   0.68489850 +1   -0.9842546 +1    3.3918045 +1
  H(HETATM   20 2H   HET F   2)   0.15282995 +1   -2.4879846 +1    2.5956269 +1
  H(HETATM   21 3H   HET F   2)  -0.75022428 +1   -0.9684524 +1    2.3276193 +1
  C(HETATM   22  C1  HET K   1)   1.41537318 +0  166.9272502 +1  -37.2106942 +1 " XX   HET K   1" "  C3  HET D   2" "  C2  HET D   2" = 11  7  6
  C(HETATM   23  C2  HET K   1)  -0.92243979 +1    2.2842123 +1   -0.8969671 +1
  H(HETATM   24  H   HET B   2)   0.45322016 +1   -2.8085134 +1    0.2682925 +1
 
 " XX   HET K   1"  1  "  C1  HET K   1"
 

          Geometry optimization using L-BFGS

          Keyword "LET" re-set the number of cycles used in identifying the lowest-energy geometry to 100
 CYCLE:     1 TIME:   0.023 TIME LEFT:  2.00D  GRAD.:     2.959 HEAT:  23.35281
 CYCLE:     2 TIME:   0.020 TIME LEFT:  2.00D  GRAD.:     2.822 HEAT:  23.35273
 CYCLE:     3 TIME:   0.020 TIME LEFT:  2.00D  GRAD.:     1.546 HEAT:  23.41182
 CYCLE:     4 TIME:   0.027 TIME LEFT:  2.00D  GRAD.:     2.758 HEAT:  23.35273
 CYCLE:     5 TIME:   0.020 TIME LEFT:  2.00D  GRAD.:     2.791 HEAT:  23.35272
 CYCLE:     6 TIME:   0.023 TIME LEFT:  2.00D  GRAD.:     2.952 HEAT:  23.35271
 CYCLE:     7 TIME:   0.020 TIME LEFT:  2.00D  GRAD.:     3.512 HEAT:  23.35251
 CYCLE:     8 TIME:   0.020 TIME LEFT:  2.00D  GRAD.:     3.972 HEAT:  23.35226
 CYCLE:     9 TIME:   0.027 TIME LEFT:  2.00D  GRAD.:     3.225 HEAT:  23.35201
 CYCLE:    10 TIME:   0.023 TIME LEFT:  2.00D  GRAD.:     2.510 HEAT:  23.35176
 CYCLE:    11 TIME:   0.020 TIME LEFT:  2.00D  GRAD.:     2.321 HEAT:  23.35166
 CYCLE:    12 TIME:   0.020 TIME LEFT:  2.00D  GRAD.:     2.394 HEAT:  23.41181
 CYCLE:    13 TIME:   0.023 TIME LEFT:  2.00D  GRAD.:     2.325 HEAT:  23.41040
 CYCLE:    14 TIME:   0.020 TIME LEFT:  2.00D  GRAD.:     2.379 HEAT:  23.40997
 CYCLE:    15 TIME:   0.020 TIME LEFT:  2.00D  GRAD.:     2.154 HEAT:  23.41120
 CYCLE:    16 TIME:   0.020 TIME LEFT:  2.00D  GRAD.:     2.094 HEAT:  23.41085
 CYCLE:    17 TIME:   0.031 TIME LEFT:  2.00D  GRAD.:     1.751 HEAT:  23.40951
 CYCLE:    18 TIME:   0.020 TIME LEFT:  2.00D  GRAD.:     4.248 HEAT:  23.41077
 CYCLE:    19 TIME:   0.027 TIME LEFT:  2.00D  GRAD.:     3.323 HEAT:  23.40964
 CYCLE:    20 TIME:   0.023 TIME LEFT:  2.00D  GRAD.:    12.471 HEAT:  23.41237
 CYCLE:    21 TIME:   0.020 TIME LEFT:  2.00D  GRAD.:    17.867 HEAT:  23.41713
 CYCLE:    22 TIME:   0.031 TIME LEFT:  2.00D  GRAD.:    17.716 HEAT:  23.41507
 CYCLE:    23 TIME:   0.020 TIME LEFT:  2.00D  GRAD.:    13.354 HEAT:  23.41326
 CYCLE:    24 TIME:   0.020 TIME LEFT:  2.00D  GRAD.:     8.624 HEAT:  23.41119
 CYCLE:    25 TIME:   0.020 TIME LEFT:  2.00D  GRAD.:    55.763 HEAT:  23.41019
 CYCLE:    26 TIME:   0.027 TIME LEFT:  2.00D  GRAD.:     7.760 HEAT:  23.41146
 CYCLE:    27 TIME:   0.023 TIME LEFT:  2.00D  GRAD.:     2.389 HEAT:  23.41129
 CYCLE:    28 TIME:   0.020 TIME LEFT:  2.00D  GRAD.:     2.618 HEAT:  23.41004
 CYCLE:    29 TIME:   0.023 TIME LEFT:  2.00D  GRAD.:     3.661 HEAT:  23.41038
 CYCLE:    30 TIME:   0.020 TIME LEFT:  2.00D  GRAD.:     3.106 HEAT:  23.40952
 CYCLE:    31 TIME:   0.027 TIME LEFT:  2.00D  GRAD.:     2.183 HEAT:  23.41096
 CYCLE:    32 TIME:   0.023 TIME LEFT:  2.00D  GRAD.:     8.375 HEAT:  23.41147
 CYCLE:    33 TIME:   0.020 TIME LEFT:  2.00D  GRAD.:     3.551 HEAT:  23.40934
 CYCLE:    34 TIME:   0.020 TIME LEFT:  2.00D  GRAD.:     0.650 HEAT:  23.41095
 CYCLE:    35 TIME:   0.020 TIME LEFT:  2.00D  GRAD.:     0.599 HEAT:  23.41062
 CYCLE:    36 TIME:   0.027 TIME LEFT:  2.00D  GRAD.:     2.456 HEAT:  23.40830
 CYCLE:    37 TIME:   0.023 TIME LEFT:  2.00D  GRAD.:     0.831 HEAT:  23.40839
 CYCLE:    38 TIME:   0.020 TIME LEFT:  2.00D  GRAD.:     0.515 HEAT:  23.41008
 CYCLE:    39 TIME:   0.027 TIME LEFT:  2.00D  GRAD.:     1.081 HEAT:  23.40936
 CYCLE:    40 TIME:   0.023 TIME LEFT:  2.00D  GRAD.:     1.422 HEAT:  23.45640
 CYCLE:    41 TIME:   0.020 TIME LEFT:  2.00D  GRAD.:     0.842 HEAT:  23.45594
 CYCLE:    42 TIME:   0.023 TIME LEFT:  2.00D  GRAD.:     0.638 HEAT:  23.45550
 CYCLE:    43 TIME:   0.020 TIME LEFT:  2.00D  GRAD.:     0.843 HEAT:  23.45525
 CYCLE:    44 TIME:   0.027 TIME LEFT:  2.00D  GRAD.:     0.855 HEAT:  23.45488
 CYCLE:    45 TIME:   0.023 TIME LEFT:  2.00D  GRAD.:     2.670 HEAT:  23.45304
 CYCLE:    46 TIME:   0.020 TIME LEFT:  2.00D  GRAD.:     0.947 HEAT:  23.40483
 CYCLE:    47 TIME:   0.020 TIME LEFT:  2.00D  GRAD.:     1.187 HEAT:  23.40475
 CYCLE:    48 TIME:   0.027 TIME LEFT:  2.00D  GRAD.:     1.125 HEAT:  23.40469
 CYCLE:    49 TIME:   0.023 TIME LEFT:  2.00D  GRAD.:     1.319 HEAT:  23.40470
 CYCLE:    50 TIME:   0.020 TIME LEFT:  2.00D  GRAD.:     1.358 HEAT:  23.40490
 CYCLE:    51 TIME:   0.031 TIME LEFT:  2.00D  GRAD.:     0.603 HEAT:  23.40640
 CYCLE:    52 TIME:   0.020 TIME LEFT:  2.00D  GRAD.:     0.545 HEAT:  23.40647
 CYCLE:    53 TIME:   0.020 TIME LEFT:  2.00D  GRAD.:     0.859 HEAT:  23.40685
 CYCLE:    54 TIME:   0.027 TIME LEFT:  2.00D  GRAD.:     6.455 HEAT:  23.40688
 CYCLE:    55 TIME:   0.023 TIME LEFT:  2.00D  GRAD.:     0.947 HEAT:  23.40693
 CYCLE:    56 TIME:   0.020 TIME LEFT:  2.00D  GRAD.:     0.960 HEAT:  23.40678
 CYCLE:    57 TIME:   0.020 TIME LEFT:  2.00D  GRAD.:     0.621 HEAT:  23.40680
 CYCLE:    58 TIME:   0.023 TIME LEFT:  2.00D  GRAD.:     0.593 HEAT:  23.40676
 CYCLE:    59 TIME:   0.027 TIME LEFT:  2.00D  GRAD.:     1.296 HEAT:  23.40740
 CYCLE:    60 TIME:   0.020 TIME LEFT:  2.00D  GRAD.:     4.286 HEAT:  23.40776
 CYCLE:    61 TIME:   0.020 TIME LEFT:  2.00D  GRAD.:     0.943 HEAT:  23.40719
 CYCLE:    62 TIME:   0.031 TIME LEFT:  2.00D  GRAD.:     0.473 HEAT:  23.40703


          CURRENT BEST VALUE OF HEAT OF FORMATION =     23.351664
 
 HTML(nores) symmetry  step=-0.005 points=60   gnorm=0.5 EPS=78.4 let(100) ddmin=0 lbfgs
 Using a a symmetry-defined dummy atom to locate the transition state for the reaction [CHO-CH-CH3]^(-) + [C5H5N-CH3]^(+) => CHO-CH=CH2 + C5H6N-CH3

  O(HETATM    1  O   HET A   1)  -2.33619441 +1    0.7729289 +1    0.2213644 +1
  C(HETATM    2  C   HET B   2)   0.85571206 +1   -1.8000055 +1    0.1266876 +1
  C(HETATM    3  C   HET C   1)  -1.66299641 +1    1.7877626 +1    0.2596423 +1
  C(HETATM    4  C1  HET D   2)   1.59858413 +1    0.2215974 +1    1.2135750 +1
  N(HETATM    5  N   HET D   2)   1.15402633 +1   -1.1142869 +1    1.3254276 +1
  C(HETATM    6  C2  HET D   2)   1.89853289 +1    0.7832687 +1    0.0266186 +1
  C(HETATM    7  C3  HET D   2)   1.59095852 +1    0.1088013 +1   -1.2516827 +1
  C(HETATM    8  C4  HET D   2)   1.13619212 +1   -1.2870892 +1   -1.0865475 +1
  H(HETATM    9  H   HET E   1)  -1.61401771 +1    2.3591277 +1    1.1991881 +1
  C(HETATM   10  C   HET F   2)   0.25805306 +1   -1.3963882 +1    2.4602035 +1
 XX(HETATM   11 XX   HET K   1)   1.41574442 +1  105.0683710 +1  105.7475871 +1 "  C3  HET D   2" "  C2  HET D   2" "  C1  HET D   2" =  7  6  4
  H(HETATM   11 1H1  HET K   1)  -0.09500000 -1  180.0000000 +0    0.0000000 +0 " XX   HET K   1" "  C3  HET D   2" "  C2  HET D   2" = 11  7  6
  H(HETATM   12 2H1  HET K   1)  -1.23309046 +1    0.5670835 +1   -2.1386303 +1
  H(HETATM   13 3H1  HET K   1)  -0.25961373 +1    1.9196920 +1   -2.9048200 +1
  H(HETATM   14  H2  HET K   1)  -0.50045662 +1    3.2848210 +1   -0.8038803 +1
  H(HETATM   15  H1  HET D   2)   1.75588031 +1    0.7307572 +1    2.1700750 +1
  H(HETATM   16  H2  HET D   2)   2.34553302 +1    1.7702453 +1   -0.0378538 +1
  H(HETATM   17  H3  HET D   2)   2.35644935 +1    0.2442190 +1   -2.0268970 +1
  H(HETATM   18  H4  HET D   2)   1.00947665 +1   -1.8692037 +1   -1.9937375 +1
  H(HETATM   19 1H   HET F   2)   0.68495148 +1   -0.9841817 +1    3.3918644 +1
  H(HETATM   20 2H   HET F   2)   0.15277441 +1   -2.4880401 +1    2.5956562 +1
  H(HETATM   21 3H   HET F   2)  -0.75000941 +1   -0.9683662 +1    2.3274260 +1
  C(HETATM   22  C1  HET K   1)   1.41574442 +0  166.9330103 +1  -37.2185161 +1 " XX   HET K   1" "  C3  HET D   2" "  C2  HET D   2" = 11  7  6
  C(HETATM   23  C2  HET K   1)  -0.92262783 +1    2.2843924 +1   -0.8978936 +1
  H(HETATM   24  H   HET B   2)   0.45343043 +1   -2.8085135 +1    0.2684017 +1
 
 " XX   HET K   1"  1  "  C1  HET K   1"
 
 

          VARIABLE        FUNCTION
 :        -0.09500       23.351664
 HTML(nores) symmetry  step=-0.005 points=60   gnorm=0.5 EPS=78.4 let(100) ddmin=0 lbfgs
 Using a a symmetry-defined dummy atom to locate the transition state for the reaction [CHO-CH-CH3]^(-) + [C5H5N-CH3]^(+) => CHO-CH=CH2 + C5H6N-CH3

  O(HETATM    1  O   HET A   1)  -2.33619441 +1    0.7729289 +1    0.2213644 +1
  C(HETATM    2  C   HET B   2)   0.85571206 +1   -1.8000055 +1    0.1266876 +1
  C(HETATM    3  C   HET C   1)  -1.66299641 +1    1.7877626 +1    0.2596423 +1
  C(HETATM    4  C1  HET D   2)   1.59858413 +1    0.2215974 +1    1.2135750 +1
  N(HETATM    5  N   HET D   2)   1.15402633 +1   -1.1142869 +1    1.3254276 +1
  C(HETATM    6  C2  HET D   2)   1.89853289 +1    0.7832687 +1    0.0266186 +1
  C(HETATM    7  C3  HET D   2)   1.59095852 +1    0.1088013 +1   -1.2516827 +1
  C(HETATM    8  C4  HET D   2)   1.13619212 +1   -1.2870892 +1   -1.0865475 +1
  H(HETATM    9  H   HET E   1)  -1.61401771 +1    2.3591277 +1    1.1991881 +1
  C(HETATM   10  C   HET F   2)   0.25805306 +1   -1.3963882 +1    2.4602035 +1
 XX(HETATM   11 XX   HET K   1)   1.41574442 +1  105.0683710 +1  105.7475871 +1 "  C3  HET D   2" "  C2  HET D   2" "  C1  HET D   2" =  7  6  4
  H(HETATM   11 1H1  HET K   1)  -0.09500000 -1  180.0000000 +0    0.0000000 +0 " XX   HET K   1" "  C3  HET D   2" "  C2  HET D   2" = 11  7  6
  H(HETATM   12 2H1  HET K   1)  -1.23309046 +1    0.5670835 +1   -2.1386303 +1
  H(HETATM   13 3H1  HET K   1)  -0.25961373 +1    1.9196920 +1   -2.9048200 +1
  H(HETATM   14  H2  HET K   1)  -0.50045662 +1    3.2848210 +1   -0.8038803 +1
  H(HETATM   15  H1  HET D   2)   1.75588031 +1    0.7307572 +1    2.1700750 +1
  H(HETATM   16  H2  HET D   2)   2.34553302 +1    1.7702453 +1   -0.0378538 +1
  H(HETATM   17  H3  HET D   2)   2.35644935 +1    0.2442190 +1   -2.0268970 +1
  H(HETATM   18  H4  HET D   2)   1.00947665 +1   -1.8692037 +1   -1.9937375 +1
  H(HETATM   19 1H   HET F   2)   0.68495148 +1   -0.9841817 +1    3.3918644 +1
  H(HETATM   20 2H   HET F   2)   0.15277441 +1   -2.4880401 +1    2.5956562 +1
  H(HETATM   21 3H   HET F   2)  -0.75000941 +1   -0.9683662 +1    2.3274260 +1
  C(HETATM   22  C1  HET K   1)   1.41574442 +0  166.9330103 +1  -37.2185161 +1 " XX   HET K   1" "  C3  HET D   2" "  C2  HET D   2" = 11  7  6
  C(HETATM   23  C2  HET K   1)  -0.92262783 +1    2.2843924 +1   -0.8978936 +1
  H(HETATM   24  H   HET B   2)   0.45343043 +1   -2.8085135 +1    0.2684017 +1
 
 " XX   HET K   1"  1  "  C1  HET K   1"
 

                POINTS ON REACTION PATH 
                AND CORRESPONDING HEATS


       0.20000000       0.19500000       0.19000000       0.18500000       0.18000000       0.17500000       0.17000000       0.16500000
      19.52880151      19.92594585      20.34888968      20.78719885      21.23028321      21.68249410      22.14103283      22.60580045
       0.16000000       0.15500000       0.15000000       0.14500000       0.14000000       0.13500000       0.13000000       0.12500000
      23.06492393      23.35578160      23.94824956      24.40936601      24.86649263      25.33042946      25.77256050      26.21054330
       0.12000000       0.11500000       0.11000000       0.10500000       0.10000000       0.09500000       0.09000000       0.08500000
      26.65785579      27.10021520      27.52375926      27.95582663      28.39020865      28.80220409      29.20640868      29.60685856
       0.08000000       0.07500000       0.07000000       0.06500000       0.06000000       0.05500000       0.05000000       0.04500000
      29.98994577      30.36204375      30.72545073      30.93335245      31.00487561      31.28969748      31.56745145      31.92939104
       0.04000000       0.03500000       0.03000000       0.02500000       0.02000000       0.01500000       0.01000000       0.00500000
      31.88529708      32.18274759      31.97974022      31.94615538      31.91494338      31.86585643      31.77570256      31.67408513
      -0.00000000      -0.00500000      -0.01000000      -0.01500000      -0.02000000      -0.02500000      -0.03000000      -0.03500000
      31.49321662      31.27822550      31.03419586      30.73885630      30.42817343      29.70062888      29.44532102      29.01975839
      -0.04000000      -0.04500000      -0.05000000      -0.05500000      -0.06000000      -0.06500000      -0.07000000      -0.07500000
      28.57405801      27.92561516      27.47407902      27.02466390      26.57874183      26.13639115      25.69769080      25.21300238
      -0.08000000      -0.08500000      -0.09000000      -0.09500000
      24.73490836      24.27056100      23.80960298      23.35166386

 **********************
 *                    *
 * JOB ENDED NORMALLY *
 *                    *
 **********************



 TOTAL JOB TIME:           183.36 SECONDS

 == MOPAC DONE ==
