 *******************************************************************************
 ** Site#: 37037        For non-commercial use only           Version 21.153W **
 *******************************************************************************
 ** Cite this program as: MOPAC2016, Version: 21.153W, James J. P. Stewart,   **
 ** Stewart Computational Chemistry, web: HTTP://OpenMOPAC.net. Days left: 363**
 *******************************************************************************
 **                                                                           **
 **                                MOPAC2016                                  **
 **                                                                           **
 *******************************************************************************

                              PM7 CALCULATION RESULTS

 *******************************************************************************
 *  CALCULATION DONE:                                Fri Jun  4 09:53:26 2021  *
 *  GEO-OK     - OVERRIDE INTERATOMIC DISTANCE AND OTHER SAFETY CHECKS
 *  GEO_DAT    - DATA SET GEOMETRY IS IN FILE "Locate_TS bias=20.0 second.mop"
 *  GEO_REF    - REFERENCE GEOMETRY IS IN FILE "Locate_TS bias=20.0 first.mop"
 *               (NO BIAS TOWARDS THE REFERENCE GEOMETRY WILL BE APPLIED)
 *  SADDLE     - TRANSITION STATE TO BE OPTIMIZED
 *  T=         - A TIME OF 172800.0 SECONDS REQUESTED
 *  DUMP=N     - RESTART FILE WRITTEN EVERY 7200.0 SECONDS REQUESTED
 *  HTML       - WRITE HTML SCRIPT TO READ PDB FILE USING JSMOL
 *******************************************************************************
geo-ok geo_ref="Locate_TS bias=20.0 first.mop" geo_dat="Locate_TS bias=20.0 second.mop" saddle  HTML
 Transition state for the reaction Cyclohexadiene <=> Hexatriene

   ATOM                 CHEMICAL                   X               Y               Z
  NUMBER                 SYMBOL               (ANGSTROMS)     (ANGSTROMS)     (ANGSTROMS)
 
     1       C(HETATM    1  C1  HET A   1)   -0.66136022  *  -1.24824039  *   0.08217214  *
     2       C(HETATM    2  C2  HET A   1)    0.62659357  *  -1.21728452  *   0.43460220  *
     3       C(HETATM    3  C3  HET A   1)    1.36933637  *   0.02177235  *   0.43411771  *
     4       C(HETATM    4  C4  HET A   1)    0.78946694  *   1.17184834  *   0.08049119  *
     5       C(HETATM    5  C5  HET A   1)   -0.58556386  *   1.27964200  *  -0.47419016  *
     6       C(HETATM    6  C6  HET A   1)   -1.40540795  *  -0.08715301  *  -0.47254262  *
     7       H(HETATM    7  H1  HET A   1)   -1.25371146  *  -2.12139999  *   0.32560090  *
     8       H(HETATM    8  H2  HET A   1)    1.16659691  *  -2.12936235  *   0.65428530  *
     9       H(HETATM    9  H3  HET A   1)    2.42824514  *  -0.02466531  *   0.65396051  *
    10       H(HETATM   10  H4  HET A   1)    1.28093666  *   2.10612166  *   0.32241613  *
    11       H(HETATM   11 1H5  HET A   1)   -0.54040861  *   1.65273926  *  -1.51605867  *
    12       H(HETATM   12 2H5  HET A   1)   -1.06404122  *   2.14523304  *   0.05107312  *
    13       H(HETATM   13 1H6  HET A   1)   -1.71553110  *  -0.30459280  *  -1.51357743  *
    14       H(HETATM   14 2H6  HET A   1)   -2.39329492  *  -0.07226166  *   0.05453950  *
 

                        After docking

                     Atoms that move a lot

                     Atom Label             GEO_REF Coordinates       Movement    Integral

            (HETATM    7  H1  HET A   1)  -1.142  -1.718   1.214        0.98         0.98
            (HETATM   10  H4  HET A   1)   0.982   1.820   1.208        0.98         1.96
            (HETATM   14 2H6  HET A   1)  -2.737  -0.680  -0.285        0.78         2.74
            (HETATM   12 2H5  HET A   1)  -0.691   2.733  -0.288        0.78         3.51
            (HETATM    6  C6  HET A   1)  -1.700  -0.757  -0.547        0.74         4.25
            (HETATM    5  C5  HET A   1)  -0.135   1.854  -0.549        0.73         4.98
            (HETATM    9  H3  HET A   1)   2.412  -0.003   0.163        0.49         5.47
            (HETATM    8  H2  HET A   1)   1.138  -2.126   0.164        0.49         5.96
            (HETATM    1  C1  HET A   1)  -0.808  -1.172   0.350        0.32         6.27
            (HETATM    4  C4  HET A   1)   0.656   1.266   0.348        0.31         6.59
            (HETATM    2  C2  HET A   1)   0.637  -1.154   0.203        0.24         6.83
            (HETATM    3  C3  HET A   1)   1.319  -0.017   0.203        0.24         7.07
            (HETATM   13 1H6  HET A   1)  -1.506  -0.376  -1.533        0.22         7.29
            (HETATM   11 1H5  HET A   1)  -0.383   1.500  -1.533        0.22         7.51

     Residues that move a lot and their (Movement in Angstroms, per atom)


   Difference between GEO_DAT and GEO_REF: 7.512 = total,  0.5366 = Average,  0.6033 = RMS, in Angstroms

 General Reference for PM7:
 "Optimization of Parameters for Semiempirical Methods VI: More Modifications to the 
 NDDO Approximations and Re-optimization of Parameters", J. J. P. Stewart, J. Mol. Mod., 1:32, 19 (2013)
 https://link.springer.com/article/10.1007/s00894-012-1667-x

           Empirical Formula: C6 H8  =    14 atoms



      MOLECULAR POINT GROUP   :   Cs  


      RHF CALCULATION, NO. OF DOUBLY OCCUPIED LEVELS = 16



  CARTESIAN GEOMETRY OF FIRST SYSTEM


   1    C         -0.80802      -1.17246       0.35027
   2    C          0.63666      -1.15390       0.20322
   3    C          1.31892      -0.01743       0.20269
   4    C          0.65582       1.26631       0.34791
   5    C         -0.13529       1.85441      -0.54862
   6    C         -1.70047      -0.75657      -0.54695
   7    H         -1.14191      -1.71763       1.21350
   8    H          1.13816      -2.12574       0.16350
   9    H          2.41235      -0.00311       0.16258
  10    H          0.98244       1.82021       1.20845
  11    H         -0.38297       1.50037      -1.53257
  12    H         -0.69088       2.73316      -0.28808
  13    H         -1.50587      -0.37560      -1.53297
  14    H         -2.73709      -0.67962      -0.28546


  CARTESIAN GEOMETRY OF SECOND SYSTEM


   1    C         -0.66122      -1.24831       0.08203
   2    C          0.62728      -1.21771       0.43247
   3    C          1.37011       0.02130       0.43175
   4    C          0.78977       1.17168       0.07989
   5    C         -0.58613       1.27998      -0.47255
   6    C         -1.40606      -0.08676      -0.47064
   7    H         -1.25325      -2.12162       0.32573
   8    H          1.16757      -2.12999       0.65062
   9    H          2.42936      -0.02538       0.64989
  10    H          1.28168       2.10574       0.32175
  11    H         -0.54258       1.65386      -1.51421
  12    H         -1.06372       2.14521       0.05411
  13    H         -1.71783      -0.30340      -1.51135
  14    H         -2.39312      -0.07220       0.05800


   "DISTANCE":     2.257416


  REACTION COORDINATE VECTOR


   1    C         -0.14680       0.07585       0.26824
   2    C          0.00937       0.06381      -0.22924
   3    C         -0.05119      -0.03873      -0.22906
   4    C         -0.13395       0.09463       0.26801
   5    C          0.45084       0.57443      -0.07607
   6    C         -0.29441      -0.66980      -0.07631
   7    H          0.11135       0.40398       0.88777
   8    H         -0.02941       0.00425      -0.48712
   9    H         -0.01701       0.02226      -0.48732
  10    H         -0.29924      -0.28552       0.88671
  11    H          0.15960      -0.15349      -0.01836
  12    H          0.37284       0.58795      -0.34218
  13    H          0.21196      -0.07221      -0.02161
  14    H         -0.34397      -0.60742      -0.34346
 *+*+*+*+*+*+*+*+*+*+*+*+*+*+*+*+*+*+*+*+*+*+*+*+*+*+*+*+*+*+*+*+*+*+*+*+*+*+*+*+
            BAR SHORTENED BY       0.000 PERCENT
 GRADIENT CRITERION IN FLEPO =     1.000
           THERE HAVE BEEN 3 ATTEMPTS TO REDUCE THE GRADIENT.
           DURING THESE ATTEMPTS THE ENERGY DROPPED BY LESS THAN 0.3 KCAL/MOLE
           FURTHER CALCULATION IS NOT JUSTIFIED AT THIS TIME.
           TO CONTINUE, START AGAIN WITH THE WORD "PRECISE"


          FOR POINT    1 SECOND STRUCTURE
 DISTANCE A - B      2.257416
 HEAT               44.571794
 GRADIENT NORM       9.025345
 DIRECTION COSINE   -0.000000
 geo-ok HTML
 Transition state for the reaction Cyclohexadiene <=> Hexatriene

  C(HETATM    1  C1  HET A   1)   0.00000000 +0    0.0000000 +0    0.0000000 +0
  C(HETATM    2  C2  HET A   1)   1.45978307 +1    0.0000000 +0    0.0000000 +0     1     0     0
  C(HETATM    3  C3  HET A   1)   1.34050310 +1  124.2117172 +1    0.0000000 +0     2     1     0
  C(HETATM    4  C4  HET A   1)   1.45975361 +1  124.1787813 +1    0.1752205 +1     3     2     1
  C(HETATM    5  C5  HET A   1)   1.33311234 +1  125.4124813 +1  -60.4208323 +1     4     3     2
  C(HETATM    6  C6  HET A   1)   1.33335774 +1  125.3880977 +1   60.9155732 +1     1     2     3
  H(HETATM    7  H1  HET A   1)   1.09329526 +1  114.0721701 +1 -118.9580849 +1     1     2     3
  H(HETATM    8  H2  HET A   1)   1.09382821 +1  114.3355659 +1  176.6121478 +1     2     1     3
  H(HETATM    9  H3  HET A   1)   1.09292854 +1  121.1298140 +1  176.6321594 +1     3     2     1
  H(HETATM   10  H4  HET A   1)   1.09622175 +1  114.1591716 +1  119.2276936 +1     4     3     2
  H(HETATM   11 1H5  HET A   1)   1.07897989 +1  124.8425210 +1   -6.1052144 +1     5     4     3
  H(HETATM   12 2H5  HET A   1)   1.07814148 +1  122.5721296 +1  173.8253515 +1     5     4     3
  H(HETATM   13 1H6  HET A   1)   1.07834630 +1  124.8947307 +1    5.0992770 +1     6     1     2
  H(HETATM   14 2H6  HET A   1)   1.07765807 +1  122.5061567 +1 -174.8284562 +1     6     1     2
 
 TIME=     0.06
  REACTANTS AND PRODUCTS SWAPPED AROUND
 *+*+*+*+*+*+*+*+*+*+*+*+*+*+*+*+*+*+*+*+*+*+*+*+*+*+*+*+*+*+*+*+*+*+*+*+*+*+*+*+
            BAR SHORTENED BY       1.000 PERCENT
 GRADIENT CRITERION IN FLEPO =     6.025


          FOR POINT    2 FIRST  STRUCTURE
 DISTANCE A - B      2.234842
 HEAT               24.163093
 GRADIENT NORM      17.388122
 DIRECTION COSINE    0.883180
 geo-ok HTML
 Transition state for the reaction Cyclohexadiene <=> Hexatriene

  C(HETATM    1  C1  HET A   1)   0.00000000 +0    0.0000000 +0    0.0000000 +0
  C(HETATM    2  C2  HET A   1)   1.34203116 +1    0.0000000 +0    0.0000000 +0     1     0     0
  C(HETATM    3  C3  HET A   1)   1.45072780 +1  120.7468004 +1    0.0000000 +0     2     1     0
  C(HETATM    4  C4  HET A   1)   1.34017124 +1  120.6743091 +1    0.5928704 +1     3     2     1
  C(HETATM    5  C5  HET A   1)   1.49651995 +1  122.3493615 +1  -16.9842451 +1     4     3     2
  C(HETATM    6  C6  HET A   1)   1.49269224 +1  122.5009200 +1   15.8902073 +1     1     2     3
  H(HETATM    7  H1  HET A   1)   1.08555097 +1  121.3048636 +1 -164.6951021 +1     1     2     3
  H(HETATM    8  H2  HET A   1)   1.08900604 +1  121.9615425 +1  174.1670483 +1     2     1     3
  H(HETATM    9  H3  HET A   1)   1.08528097 +1  117.2825361 +1  174.5844505 +1     3     2     1
  H(HETATM   10  H4  HET A   1)   1.08054979 +1  121.8726512 +1  164.8587848 +1     4     3     2
  H(HETATM   11 1H5  HET A   1)   1.11456175 +1  107.4224862 +1 -103.1193828 +1     5     4     3
  H(HETATM   12 2H5  HET A   1)   1.10158635 +1  110.1936838 +1  143.7892790 +1     5     4     3
  H(HETATM   13 1H6  HET A   1)   1.11431528 +1  106.8621944 +1  103.7916577 +1     6     1     2
  H(HETATM   14 2H6  HET A   1)   1.10579060 +1  110.1904084 +1 -143.1244658 +1     6     1     2
 
 *+*+*+*+*+*+*+*+*+*+*+*+*+*+*+*+*+*+*+*+*+*+*+*+*+*+*+*+*+*+*+*+*+*+*+*+*+*+*+*+
            BAR SHORTENED BY       1.000 PERCENT
 GRADIENT CRITERION IN FLEPO =    10.000


          FOR POINT    3 FIRST  STRUCTURE
 DISTANCE A - B      2.212493
 HEAT               24.474341
 GRADIENT NORM      20.169490
 DIRECTION COSINE    0.799905
 geo-ok HTML
 Transition state for the reaction Cyclohexadiene <=> Hexatriene

  C(HETATM    1  C1  HET A   1)   0.00000000 +0    0.0000000 +0    0.0000000 +0
  C(HETATM    2  C2  HET A   1)   1.33850388 +1    0.0000000 +0    0.0000000 +0     1     0     0
  C(HETATM    3  C3  HET A   1)   1.44981241 +1  120.7884242 +1    0.0000000 +0     2     1     0
  C(HETATM    4  C4  HET A   1)   1.34112168 +1  120.7010806 +1    0.4037702 +1     3     2     1
  C(HETATM    5  C5  HET A   1)   1.49380576 +1  122.4211785 +1  -17.2416788 +1     4     3     2
  C(HETATM    6  C6  HET A   1)   1.49422628 +1  122.4360852 +1   16.4702432 +1     1     2     3
  H(HETATM    7  H1  HET A   1)   1.08582395 +1  121.4562489 +1 -164.2672619 +1     1     2     3
  H(HETATM    8  H2  HET A   1)   1.08536158 +1  121.9551413 +1  173.9761375 +1     2     1     3
  H(HETATM    9  H3  HET A   1)   1.08823475 +1  117.3292242 +1  174.5346727 +1     3     2     1
  H(HETATM   10  H4  HET A   1)   1.08463196 +1  121.6543021 +1  164.3457471 +1     4     3     2
  H(HETATM   11 1H5  HET A   1)   1.11253102 +1  107.4895538 +1 -102.5922258 +1     5     4     3
  H(HETATM   12 2H5  HET A   1)   1.10557739 +1  110.0794353 +1  144.0706622 +1     5     4     3
  H(HETATM   13 1H6  HET A   1)   1.11290449 +1  107.1901088 +1  103.3276910 +1     6     1     2
  H(HETATM   14 2H6  HET A   1)   1.10343743 +1  110.3553370 +1 -144.3067781 +1     6     1     2
 
 *+*+*+*+*+*+*+*+*+*+*+*+*+*+*+*+*+*+*+*+*+*+*+*+*+*+*+*+*+*+*+*+*+*+*+*+*+*+*+*+
            BAR SHORTENED BY       1.000 PERCENT
 GRADIENT CRITERION IN FLEPO =    10.000


          FOR POINT    4 FIRST  STRUCTURE
 DISTANCE A - B      2.190368
 HEAT               24.807486
 GRADIENT NORM      20.961648
 DIRECTION COSINE    0.800691
 geo-ok HTML
 Transition state for the reaction Cyclohexadiene <=> Hexatriene

  C(HETATM    1  C1  HET A   1)   0.00000000 +0    0.0000000 +0    0.0000000 +0
  C(HETATM    2  C2  HET A   1)   1.34254523 +1    0.0000000 +0    0.0000000 +0     1     0     0
  C(HETATM    3  C3  HET A   1)   1.45148077 +1  120.6310707 +1    0.0000000 +0     2     1     0
  C(HETATM    4  C4  HET A   1)   1.34071867 +1  120.6028861 +1    0.2623776 +1     3     2     1
  C(HETATM    5  C5  HET A   1)   1.49038444 +1  122.6155025 +1  -17.3901940 +1     4     3     2
  C(HETATM    6  C6  HET A   1)   1.49125233 +1  122.4458777 +1   16.9737329 +1     1     2     3
  H(HETATM    7  H1  HET A   1)   1.08740991 +1  121.1605693 +1 -163.7037423 +1     1     2     3
  H(HETATM    8  H2  HET A   1)   1.09138596 +1  121.5759942 +1  173.9033213 +1     2     1     3
  H(HETATM    9  H3  HET A   1)   1.08461963 +1  117.1100186 +1  174.4414508 +1     3     2     1
  H(HETATM   10  H4  HET A   1)   1.08608323 +1  121.4473011 +1  163.7633780 +1     4     3     2
  H(HETATM   11 1H5  HET A   1)   1.11350969 +1  107.4243860 +1 -102.0296624 +1     5     4     3
  H(HETATM   12 2H5  HET A   1)   1.10546360 +1  110.0402568 +1  144.8788772 +1     5     4     3
  H(HETATM   13 1H6  HET A   1)   1.11352115 +1  107.2604342 +1  102.6766988 +1     6     1     2
  H(HETATM   14 2H6  HET A   1)   1.10709477 +1  109.9775127 +1 -144.9315016 +1     6     1     2
 
 TIME=     0.07
  REACTANTS AND PRODUCTS SWAPPED AROUND
 *+*+*+*+*+*+*+*+*+*+*+*+*+*+*+*+*+*+*+*+*+*+*+*+*+*+*+*+*+*+*+*+*+*+*+*+*+*+*+*+
            BAR SHORTENED BY       0.000 PERCENT
 GRADIENT CRITERION IN FLEPO =    10.000


          FOR POINT    5 SECOND STRUCTURE
 DISTANCE A - B      2.190368
 HEAT               44.662627
 GRADIENT NORM       8.987514
 DIRECTION COSINE    0.775906
 geo-ok HTML
 Transition state for the reaction Cyclohexadiene <=> Hexatriene

  C(HETATM    1  C1  HET A   1)   0.00000000 +0    0.0000000 +0    0.0000000 +0
  C(HETATM    2  C2  HET A   1)   1.45978307 +1    0.0000000 +0    0.0000000 +0     1     0     0
  C(HETATM    3  C3  HET A   1)   1.34050310 +1  124.2117172 +1    0.0000000 +0     2     1     0
  C(HETATM    4  C4  HET A   1)   1.45975361 +1  124.1787813 +1    0.1752205 +1     3     2     1
  C(HETATM    5  C5  HET A   1)   1.33311234 +1  125.4124813 +1  -60.4208323 +1     4     3     2
  C(HETATM    6  C6  HET A   1)   1.33335774 +1  125.3880977 +1   60.9155732 +1     1     2     3
  H(HETATM    7  H1  HET A   1)   1.09329526 +1  114.0721701 +1 -118.9580849 +1     1     2     3
  H(HETATM    8  H2  HET A   1)   1.09382821 +1  114.3355659 +1  176.6121478 +1     2     1     3
  H(HETATM    9  H3  HET A   1)   1.09292854 +1  121.1298140 +1  176.6321594 +1     3     2     1
  H(HETATM   10  H4  HET A   1)   1.09622175 +1  114.1591716 +1  119.2276936 +1     4     3     2
  H(HETATM   11 1H5  HET A   1)   1.07897989 +1  124.8425210 +1   -6.1052144 +1     5     4     3
  H(HETATM   12 2H5  HET A   1)   1.07814148 +1  122.5721296 +1  173.8253515 +1     5     4     3
  H(HETATM   13 1H6  HET A   1)   1.07834630 +1  124.8947307 +1    5.0992770 +1     6     1     2
  H(HETATM   14 2H6  HET A   1)   1.07765807 +1  122.5061567 +1 -174.8284562 +1     6     1     2
 
 TIME=     0.00
  REACTANTS AND PRODUCTS SWAPPED AROUND
 *+*+*+*+*+*+*+*+*+*+*+*+*+*+*+*+*+*+*+*+*+*+*+*+*+*+*+*+*+*+*+*+*+*+*+*+*+*+*+*+
            BAR SHORTENED BY       1.000 PERCENT
 GRADIENT CRITERION IN FLEPO =     5.988


          FOR POINT    6 FIRST  STRUCTURE
 DISTANCE A - B      2.168465
 HEAT               25.150999
 GRADIENT NORM      22.805304
 DIRECTION COSINE    0.851297
 geo-ok HTML
 Transition state for the reaction Cyclohexadiene <=> Hexatriene

  C(HETATM    1  C1  HET A   1)   0.00000000 +0    0.0000000 +0    0.0000000 +0
  C(HETATM    2  C2  HET A   1)   1.33976193 +1    0.0000000 +0    0.0000000 +0     1     0     0
  C(HETATM    3  C3  HET A   1)   1.44949259 +1  120.6385559 +1    0.0000000 +0     2     1     0
  C(HETATM    4  C4  HET A   1)   1.34257663 +1  120.6700558 +1    0.2078164 +1     3     2     1
  C(HETATM    5  C5  HET A   1)   1.49121922 +1  122.5002015 +1  -17.6410351 +1     4     3     2
  C(HETATM    6  C6  HET A   1)   1.49379857 +1  122.3897119 +1   17.3157368 +1     1     2     3
  H(HETATM    7  H1  HET A   1)   1.08498669 +1  121.5841631 +1 -163.0563787 +1     1     2     3
  H(HETATM    8  H2  HET A   1)   1.08651397 +1  121.6455839 +1  173.8279119 +1     2     1     3
  H(HETATM    9  H3  HET A   1)   1.08625904 +1  117.2633984 +1  174.5563463 +1     3     2     1
  H(HETATM   10  H4  HET A   1)   1.07680286 +1  121.3530424 +1  163.0529250 +1     4     3     2
  H(HETATM   11 1H5  HET A   1)   1.11534981 +1  107.2187952 +1 -101.7691075 +1     5     4     3
  H(HETATM   12 2H5  HET A   1)   1.10339103 +1  110.0211878 +1  145.7609994 +1     5     4     3
  H(HETATM   13 1H6  HET A   1)   1.11373443 +1  107.3165487 +1  101.9391139 +1     6     1     2
  H(HETATM   14 2H6  HET A   1)   1.10704545 +1  109.8799570 +1 -145.6747138 +1     6     1     2
 
 *+*+*+*+*+*+*+*+*+*+*+*+*+*+*+*+*+*+*+*+*+*+*+*+*+*+*+*+*+*+*+*+*+*+*+*+*+*+*+*+
            BAR SHORTENED BY       1.000 PERCENT
 GRADIENT CRITERION IN FLEPO =    10.000


          FOR POINT    7 FIRST  STRUCTURE
 DISTANCE A - B      2.146780
 HEAT               25.524026
 GRADIENT NORM      23.242393
 DIRECTION COSINE    0.866821
 geo-ok HTML
 Transition state for the reaction Cyclohexadiene <=> Hexatriene

  C(HETATM    1  C1  HET A   1)   0.00000000 +0    0.0000000 +0    0.0000000 +0
  C(HETATM    2  C2  HET A   1)   1.34329807 +1    0.0000000 +0    0.0000000 +0     1     0     0
  C(HETATM    3  C3  HET A   1)   1.44896552 +1  120.3027194 +1    0.0000000 +0     2     1     0
  C(HETATM    4  C4  HET A   1)   1.34210526 +1  120.8367225 +1    0.0822740 +1     3     2     1
  C(HETATM    5  C5  HET A   1)   1.49024722 +1  122.5482040 +1  -18.0219445 +1     4     3     2
  C(HETATM    6  C6  HET A   1)   1.49140184 +1  122.4761859 +1   17.8934255 +1     1     2     3
  H(HETATM    7  H1  HET A   1)   1.08686795 +1  121.2074668 +1 -162.4918161 +1     1     2     3
  H(HETATM    8  H2  HET A   1)   1.08388697 +1  121.6690918 +1  173.5272742 +1     2     1     3
  H(HETATM    9  H3  HET A   1)   1.08566759 +1  117.1198229 +1  174.3847540 +1     3     2     1
  H(HETATM   10  H4  HET A   1)   1.08204668 +1  121.1864678 +1  162.5705060 +1     4     3     2
  H(HETATM   11 1H5  HET A   1)   1.11383578 +1  107.2619424 +1 -101.0983033 +1     5     4     3
  H(HETATM   12 2H5  HET A   1)   1.10601171 +1  109.9680485 +1  146.3468791 +1     5     4     3
  H(HETATM   13 1H6  HET A   1)   1.12052901 +1  107.3452732 +1  101.1278770 +1     6     1     2
  H(HETATM   14 2H6  HET A   1)   1.10801100 +1  109.6521677 +1 -146.5639164 +1     6     1     2
 
 *+*+*+*+*+*+*+*+*+*+*+*+*+*+*+*+*+*+*+*+*+*+*+*+*+*+*+*+*+*+*+*+*+*+*+*+*+*+*+*+
            BAR SHORTENED BY       1.000 PERCENT
 GRADIENT CRITERION IN FLEPO =    10.000


          FOR POINT    8 FIRST  STRUCTURE
 DISTANCE A - B      2.125312
 HEAT               25.861208
 GRADIENT NORM      21.129742
 DIRECTION COSINE    0.889742
 geo-ok HTML
 Transition state for the reaction Cyclohexadiene <=> Hexatriene

  C(HETATM    1  C1  HET A   1)   0.00000000 +0    0.0000000 +0    0.0000000 +0
  C(HETATM    2  C2  HET A   1)   1.34150495 +1    0.0000000 +0    0.0000000 +0     1     0     0
  C(HETATM    3  C3  HET A   1)   1.45004224 +1  120.2508313 +1    0.0000000 +0     2     1     0
  C(HETATM    4  C4  HET A   1)   1.34273989 +1  120.7211275 +1    0.2934028 +1     3     2     1
  C(HETATM    5  C5  HET A   1)   1.49352672 +1  122.4993366 +1  -18.6343360 +1     4     3     2
  C(HETATM    6  C6  HET A   1)   1.49366734 +1  122.5090622 +1   18.2381468 +1     1     2     3
  H(HETATM    7  H1  HET A   1)   1.08870655 +1  121.1418748 +1 -161.8684968 +1     1     2     3
  H(HETATM    8  H2  HET A   1)   1.08524692 +1  122.0498982 +1  173.9533651 +1     2     1     3
  H(HETATM    9  H3  HET A   1)   1.08423656 +1  117.0282085 +1  174.4125987 +1     3     2     1
  H(HETATM   10  H4  HET A   1)   1.08710203 +1  121.1032542 +1  161.7983011 +1     4     3     2
  H(HETATM   11 1H5  HET A   1)   1.11656299 +1  106.9255091 +1 -100.4896142 +1     5     4     3
  H(HETATM   12 2H5  HET A   1)   1.10503315 +1  109.6200477 +1  147.4569262 +1     5     4     3
  H(HETATM   13 1H6  HET A   1)   1.11391164 +1  107.3648711 +1  100.4921844 +1     6     1     2
  H(HETATM   14 2H6  HET A   1)   1.10632213 +1  109.5145300 +1 -147.1514346 +1     6     1     2
 
 TIME=     0.05
  REACTANTS AND PRODUCTS SWAPPED AROUND
 *+*+*+*+*+*+*+*+*+*+*+*+*+*+*+*+*+*+*+*+*+*+*+*+*+*+*+*+*+*+*+*+*+*+*+*+*+*+*+*+
            BAR SHORTENED BY       0.000 PERCENT
 GRADIENT CRITERION IN FLEPO =    10.000


          FOR POINT    9 SECOND STRUCTURE
 DISTANCE A - B      2.125312
 HEAT               44.662627
 GRADIENT NORM       8.987515
 DIRECTION COSINE    0.800770
 geo-ok HTML
 Transition state for the reaction Cyclohexadiene <=> Hexatriene

  C(HETATM    1  C1  HET A   1)   0.00000000 +0    0.0000000 +0    0.0000000 +0
  C(HETATM    2  C2  HET A   1)   1.45978307 +1    0.0000000 +0    0.0000000 +0     1     0     0
  C(HETATM    3  C3  HET A   1)   1.34050310 +1  124.2117172 +1    0.0000000 +0     2     1     0
  C(HETATM    4  C4  HET A   1)   1.45975361 +1  124.1787813 +1    0.1752205 +1     3     2     1
  C(HETATM    5  C5  HET A   1)   1.33311234 +1  125.4124813 +1  -60.4208323 +1     4     3     2
  C(HETATM    6  C6  HET A   1)   1.33335774 +1  125.3880977 +1   60.9155732 +1     1     2     3
  H(HETATM    7  H1  HET A   1)   1.09329526 +1  114.0721701 +1 -118.9580849 +1     1     2     3
  H(HETATM    8  H2  HET A   1)   1.09382821 +1  114.3355659 +1  176.6121478 +1     2     1     3
  H(HETATM    9  H3  HET A   1)   1.09292854 +1  121.1298140 +1  176.6321594 +1     3     2     1
  H(HETATM   10  H4  HET A   1)   1.09622175 +1  114.1591716 +1  119.2276936 +1     4     3     2
  H(HETATM   11 1H5  HET A   1)   1.07897989 +1  124.8425210 +1   -6.1052144 +1     5     4     3
  H(HETATM   12 2H5  HET A   1)   1.07814148 +1  122.5721296 +1  173.8253515 +1     5     4     3
  H(HETATM   13 1H6  HET A   1)   1.07834630 +1  124.8947307 +1    5.0992770 +1     6     1     2
  H(HETATM   14 2H6  HET A   1)   1.07765807 +1  122.5061567 +1 -174.8284562 +1     6     1     2
 
 TIME=     0.01
  REACTANTS AND PRODUCTS SWAPPED AROUND
 *+*+*+*+*+*+*+*+*+*+*+*+*+*+*+*+*+*+*+*+*+*+*+*+*+*+*+*+*+*+*+*+*+*+*+*+*+*+*+*+
            BAR SHORTENED BY       1.000 PERCENT
 GRADIENT CRITERION IN FLEPO =     5.988


          FOR POINT   10 FIRST  STRUCTURE
 DISTANCE A - B      2.104059
 HEAT               26.188021
 GRADIENT NORM      21.034092
 DIRECTION COSINE    0.661578
 geo-ok HTML
 Transition state for the reaction Cyclohexadiene <=> Hexatriene

  C(HETATM    1  C1  HET A   1)   0.00000000 +0    0.0000000 +0    0.0000000 +0
  C(HETATM    2  C2  HET A   1)   1.34047813 +1    0.0000000 +0    0.0000000 +0     1     0     0
  C(HETATM    3  C3  HET A   1)   1.45005483 +1  120.3588862 +1    0.0000000 +0     2     1     0
  C(HETATM    4  C4  HET A   1)   1.34424264 +1  120.4824935 +1    0.0104512 +1     3     2     1
  C(HETATM    5  C5  HET A   1)   1.49019775 +1  122.4086807 +1  -19.1351624 +1     4     3     2
  C(HETATM    6  C6  HET A   1)   1.49753987 +1  122.1320192 +1   19.0565317 +1     1     2     3
  H(HETATM    7  H1  HET A   1)   1.09122725 +1  121.2561829 +1 -160.6699640 +1     1     2     3
  H(HETATM    8  H2  HET A   1)   1.08348736 +1  121.9316209 +1  173.8265993 +1     2     1     3
  H(HETATM    9  H3  HET A   1)   1.08343095 +1  117.3514747 +1  174.4113392 +1     3     2     1
  H(HETATM   10  H4  HET A   1)   1.08462975 +1  121.3288032 +1  160.9435137 +1     4     3     2
  H(HETATM   11 1H5  HET A   1)   1.11569790 +1  106.8755111 +1 -100.0088300 +1     5     4     3
  H(HETATM   12 2H5  HET A   1)   1.10906468 +1  109.8111169 +1  148.2694292 +1     5     4     3
  H(HETATM   13 1H6  HET A   1)   1.11627651 +1  106.7587885 +1  100.0702253 +1     6     1     2
  H(HETATM   14 2H6  HET A   1)   1.10281119 +1  109.7882309 +1 -148.4328902 +1     6     1     2
 
 *+*+*+*+*+*+*+*+*+*+*+*+*+*+*+*+*+*+*+*+*+*+*+*+*+*+*+*+*+*+*+*+*+*+*+*+*+*+*+*+
            BAR SHORTENED BY       1.000 PERCENT
 GRADIENT CRITERION IN FLEPO =    10.000


          FOR POINT   11 FIRST  STRUCTURE
 DISTANCE A - B      2.083018
 HEAT               26.529120
 GRADIENT NORM      23.437464
 DIRECTION COSINE    0.695407
 geo-ok HTML
 Transition state for the reaction Cyclohexadiene <=> Hexatriene

  C(HETATM    1  C1  HET A   1)   0.00000000 +0    0.0000000 +0    0.0000000 +0
  C(HETATM    2  C2  HET A   1)   1.34214244 +1    0.0000000 +0    0.0000000 +0     1     0     0
  C(HETATM    3  C3  HET A   1)   1.44750886 +1  120.3994641 +1    0.0000000 +0     2     1     0
  C(HETATM    4  C4  HET A   1)   1.34029296 +1  120.6450363 +1   -1.0953660 +1     3     2     1
  C(HETATM    5  C5  HET A   1)   1.49151663 +1  122.2442578 +1  -19.3458679 +1     4     3     2
  C(HETATM    6  C6  HET A   1)   1.49248851 +1  121.8263049 +1   21.0280901 +1     1     2     3
  H(HETATM    7  H1  HET A   1)   1.08480303 +1  121.4457863 +1 -159.9973655 +1     1     2     3
  H(HETATM    8  H2  HET A   1)   1.08774234 +1  121.6445579 +1  172.1712717 +1     2     1     3
  H(HETATM    9  H3  HET A   1)   1.08608183 +1  117.2464133 +1  173.6768681 +1     3     2     1
  H(HETATM   10  H4  HET A   1)   1.08575044 +1  121.4497404 +1  160.8577354 +1     4     3     2
  H(HETATM   11 1H5  HET A   1)   1.11402709 +1  107.0193881 +1  -99.2790846 +1     5     4     3
  H(HETATM   12 2H5  HET A   1)   1.10448801 +1  110.0655249 +1  148.9677862 +1     5     4     3
  H(HETATM   13 1H6  HET A   1)   1.11505566 +1  107.1371353 +1   98.1996846 +1     6     1     2
  H(HETATM   14 2H6  HET A   1)   1.10691072 +1  110.2770041 +1 -149.2629038 +1     6     1     2
 
 *+*+*+*+*+*+*+*+*+*+*+*+*+*+*+*+*+*+*+*+*+*+*+*+*+*+*+*+*+*+*+*+*+*+*+*+*+*+*+*+
            BAR SHORTENED BY       1.000 PERCENT
 GRADIENT CRITERION IN FLEPO =    10.000


          FOR POINT   12 FIRST  STRUCTURE
 DISTANCE A - B      2.062188
 HEAT               26.919157
 GRADIENT NORM      23.372198
 DIRECTION COSINE    0.867175
 geo-ok HTML
 Transition state for the reaction Cyclohexadiene <=> Hexatriene

  C(HETATM    1  C1  HET A   1)   0.00000000 +0    0.0000000 +0    0.0000000 +0
  C(HETATM    2  C2  HET A   1)   1.34123181 +1    0.0000000 +0    0.0000000 +0     1     0     0
  C(HETATM    3  C3  HET A   1)   1.45021776 +1  120.3908401 +1    0.0000000 +0     2     1     0
  C(HETATM    4  C4  HET A   1)   1.34397268 +1  120.5041790 +1    0.2753705 +1     3     2     1
  C(HETATM    5  C5  HET A   1)   1.49204030 +1  121.9484026 +1  -20.8468572 +1     4     3     2
  C(HETATM    6  C6  HET A   1)   1.49123308 +1  122.0291415 +1   20.4729031 +1     1     2     3
  H(HETATM    7  H1  HET A   1)   1.08746829 +1  121.0393785 +1 -160.2449260 +1     1     2     3
  H(HETATM    8  H2  HET A   1)   1.08482909 +1  122.0005057 +1  173.1484487 +1     2     1     3
  H(HETATM    9  H3  HET A   1)   1.08424788 +1  117.2603341 +1  173.4318117 +1     3     2     1
  H(HETATM   10  H4  HET A   1)   1.08718574 +1  121.1776721 +1  159.0537966 +1     4     3     2
  H(HETATM   11 1H5  HET A   1)   1.11456895 +1  106.6279231 +1  -98.2847033 +1     5     4     3
  H(HETATM   12 2H5  HET A   1)   1.10689092 +1  109.8568222 +1  149.9654954 +1     5     4     3
  H(HETATM   13 1H6  HET A   1)   1.11454644 +1  107.0147008 +1   97.9441132 +1     6     1     2
  H(HETATM   14 2H6  HET A   1)   1.10503847 +1  110.2072230 +1 -149.6434747 +1     6     1     2
 
 TIME=     0.04
  REACTANTS AND PRODUCTS SWAPPED AROUND
 *+*+*+*+*+*+*+*+*+*+*+*+*+*+*+*+*+*+*+*+*+*+*+*+*+*+*+*+*+*+*+*+*+*+*+*+*+*+*+*+
            BAR SHORTENED BY       0.000 PERCENT
 GRADIENT CRITERION IN FLEPO =    10.000


          FOR POINT   13 SECOND STRUCTURE
 DISTANCE A - B      2.062188
 HEAT               44.662627
 GRADIENT NORM       8.987515
 DIRECTION COSINE    0.799668
 geo-ok HTML
 Transition state for the reaction Cyclohexadiene <=> Hexatriene

  C(HETATM    1  C1  HET A   1)   0.00000000 +0    0.0000000 +0    0.0000000 +0
  C(HETATM    2  C2  HET A   1)   1.45978307 +1    0.0000000 +0    0.0000000 +0     1     0     0
  C(HETATM    3  C3  HET A   1)   1.34050310 +1  124.2117172 +1    0.0000000 +0     2     1     0
  C(HETATM    4  C4  HET A   1)   1.45975361 +1  124.1787813 +1    0.1752205 +1     3     2     1
  C(HETATM    5  C5  HET A   1)   1.33311234 +1  125.4124813 +1  -60.4208323 +1     4     3     2
  C(HETATM    6  C6  HET A   1)   1.33335774 +1  125.3880977 +1   60.9155732 +1     1     2     3
  H(HETATM    7  H1  HET A   1)   1.09329526 +1  114.0721701 +1 -118.9580849 +1     1     2     3
  H(HETATM    8  H2  HET A   1)   1.09382821 +1  114.3355659 +1  176.6121478 +1     2     1     3
  H(HETATM    9  H3  HET A   1)   1.09292854 +1  121.1298140 +1  176.6321594 +1     3     2     1
  H(HETATM   10  H4  HET A   1)   1.09622175 +1  114.1591716 +1  119.2276936 +1     4     3     2
  H(HETATM   11 1H5  HET A   1)   1.07897989 +1  124.8425210 +1   -6.1052144 +1     5     4     3
  H(HETATM   12 2H5  HET A   1)   1.07814148 +1  122.5721296 +1  173.8253515 +1     5     4     3
  H(HETATM   13 1H6  HET A   1)   1.07834630 +1  124.8947307 +1    5.0992770 +1     6     1     2
  H(HETATM   14 2H6  HET A   1)   1.07765807 +1  122.5061567 +1 -174.8284562 +1     6     1     2
 
 TIME=     0.01
  REACTANTS AND PRODUCTS SWAPPED AROUND
 *+*+*+*+*+*+*+*+*+*+*+*+*+*+*+*+*+*+*+*+*+*+*+*+*+*+*+*+*+*+*+*+*+*+*+*+*+*+*+*+
            BAR SHORTENED BY       1.000 PERCENT
 GRADIENT CRITERION IN FLEPO =     5.988


          FOR POINT   14 FIRST  STRUCTURE
 DISTANCE A - B      2.041566
 HEAT               27.330339
 GRADIENT NORM      22.421270
 DIRECTION COSINE    0.765026
 geo-ok HTML
 Transition state for the reaction Cyclohexadiene <=> Hexatriene

  C(HETATM    1  C1  HET A   1)   0.00000000 +0    0.0000000 +0    0.0000000 +0
  C(HETATM    2  C2  HET A   1)   1.34153925 +1    0.0000000 +0    0.0000000 +0     1     0     0
  C(HETATM    3  C3  HET A   1)   1.44943890 +1  120.4532353 +1    0.0000000 +0     2     1     0
  C(HETATM    4  C4  HET A   1)   1.34226109 +1  120.5404889 +1   -0.0787645 +1     3     2     1
  C(HETATM    5  C5  HET A   1)   1.49317712 +1  121.7647490 +1  -20.9475893 +1     4     3     2
  C(HETATM    6  C6  HET A   1)   1.49364667 +1  121.7251827 +1   21.0663889 +1     1     2     3
  H(HETATM    7  H1  HET A   1)   1.09041594 +1  121.3422533 +1 -159.0768128 +1     1     2     3
  H(HETATM    8  H2  HET A   1)   1.08397810 +1  121.8761932 +1  173.0800007 +1     2     1     3
  H(HETATM    9  H3  HET A   1)   1.08407869 +1  117.2911991 +1  173.5768623 +1     3     2     1
  H(HETATM   10  H4  HET A   1)   1.08725386 +1  121.2615299 +1  158.7112063 +1     4     3     2
  H(HETATM   11 1H5  HET A   1)   1.11305625 +1  106.7684496 +1  -97.6489523 +1     5     4     3
  H(HETATM   12 2H5  HET A   1)   1.10819061 +1  109.7323932 +1  150.5670060 +1     5     4     3
  H(HETATM   13 1H6  HET A   1)   1.11428919 +1  106.3485204 +1   96.6422243 +1     6     1     2
  H(HETATM   14 2H6  HET A   1)   1.10458412 +1  110.0485107 +1 -150.5537125 +1     6     1     2
 
 *+*+*+*+*+*+*+*+*+*+*+*+*+*+*+*+*+*+*+*+*+*+*+*+*+*+*+*+*+*+*+*+*+*+*+*+*+*+*+*+
            BAR SHORTENED BY       1.000 PERCENT
 GRADIENT CRITERION IN FLEPO =    10.000


          FOR POINT   15 FIRST  STRUCTURE
 DISTANCE A - B      2.021151
 HEAT               27.737026
 GRADIENT NORM      24.860378
 DIRECTION COSINE    0.871958
 geo-ok HTML
 Transition state for the reaction Cyclohexadiene <=> Hexatriene

  C(HETATM    1  C1  HET A   1)   0.00000000 +0    0.0000000 +0    0.0000000 +0
  C(HETATM    2  C2  HET A   1)   1.34496299 +1    0.0000000 +0    0.0000000 +0     1     0     0
  C(HETATM    3  C3  HET A   1)   1.44889762 +1  120.4873403 +1    0.0000000 +0     2     1     0
  C(HETATM    4  C4  HET A   1)   1.34119344 +1  120.4249748 +1    0.0830638 +1     3     2     1
  C(HETATM    5  C5  HET A   1)   1.49301018 +1  121.8288277 +1  -21.9446655 +1     4     3     2
  C(HETATM    6  C6  HET A   1)   1.49250680 +1  121.4773184 +1   21.6563201 +1     1     2     3
  H(HETATM    7  H1  HET A   1)   1.08475733 +1  121.2987404 +1 -158.5020606 +1     1     2     3
  H(HETATM    8  H2  HET A   1)   1.08680749 +1  121.7471448 +1  172.7274775 +1     2     1     3
  H(HETATM    9  H3  HET A   1)   1.08577123 +1  117.3206362 +1  173.2549806 +1     3     2     1
  H(HETATM   10  H4  HET A   1)   1.08369555 +1  121.6385941 +1  158.5648095 +1     4     3     2
  H(HETATM   11 1H5  HET A   1)   1.11551783 +1  107.1063835 +1  -96.7017968 +1     5     4     3
  H(HETATM   12 2H5  HET A   1)   1.10521319 +1  109.7051928 +1  151.6392820 +1     5     4     3
  H(HETATM   13 1H6  HET A   1)   1.11639908 +1  106.5982257 +1   96.1872176 +1     6     1     2
  H(HETATM   14 2H6  HET A   1)   1.10583551 +1  109.9728971 +1 -151.4936980 +1     6     1     2
 
 *+*+*+*+*+*+*+*+*+*+*+*+*+*+*+*+*+*+*+*+*+*+*+*+*+*+*+*+*+*+*+*+*+*+*+*+*+*+*+*+
            BAR SHORTENED BY       1.000 PERCENT
 GRADIENT CRITERION IN FLEPO =    10.000


          FOR POINT   16 FIRST  STRUCTURE
 DISTANCE A - B      2.000939
 HEAT               28.176770
 GRADIENT NORM      27.193526
 DIRECTION COSINE    0.870404
 geo-ok HTML
 Transition state for the reaction Cyclohexadiene <=> Hexatriene

  C(HETATM    1  C1  HET A   1)   0.00000000 +0    0.0000000 +0    0.0000000 +0
  C(HETATM    2  C2  HET A   1)   1.34212402 +1    0.0000000 +0    0.0000000 +0     1     0     0
  C(HETATM    3  C3  HET A   1)   1.44932865 +1  120.1708703 +1    0.0000000 +0     2     1     0
  C(HETATM    4  C4  HET A   1)   1.34311503 +1  120.2699939 +1    0.1458850 +1     3     2     1
  C(HETATM    5  C5  HET A   1)   1.49085859 +1  121.9114176 +1  -22.3967350 +1     4     3     2
  C(HETATM    6  C6  HET A   1)   1.48681309 +1  121.9766114 +1   22.4317541 +1     1     2     3
  H(HETATM    7  H1  HET A   1)   1.08995983 +1  120.9261405 +1 -158.3576390 +1     1     2     3
  H(HETATM    8  H2  HET A   1)   1.08388463 +1  122.1699790 +1  172.5948171 +1     2     1     3
  H(HETATM    9  H3  HET A   1)   1.08342206 +1  117.3838860 +1  172.9160101 +1     3     2     1
  H(HETATM   10  H4  HET A   1)   1.08597207 +1  121.5806656 +1  157.8692547 +1     4     3     2
  H(HETATM   11 1H5  HET A   1)   1.11534943 +1  107.0327507 +1  -95.9601392 +1     5     4     3
  H(HETATM   12 2H5  HET A   1)   1.10869570 +1  110.1712488 +1  152.3125378 +1     5     4     3
  H(HETATM   13 1H6  HET A   1)   1.11424016 +1  107.0753127 +1   95.3547693 +1     6     1     2
  H(HETATM   14 2H6  HET A   1)   1.10686873 +1  109.9273684 +1 -152.5036075 +1     6     1     2
 
 TIME=     0.05
  REACTANTS AND PRODUCTS SWAPPED AROUND
 *+*+*+*+*+*+*+*+*+*+*+*+*+*+*+*+*+*+*+*+*+*+*+*+*+*+*+*+*+*+*+*+*+*+*+*+*+*+*+*+
            BAR SHORTENED BY       0.000 PERCENT
 GRADIENT CRITERION IN FLEPO =    10.000


          FOR POINT   17 SECOND STRUCTURE
 DISTANCE A - B      2.000939
 HEAT               44.662627
 GRADIENT NORM       8.987515
 DIRECTION COSINE    0.760472
 geo-ok HTML
 Transition state for the reaction Cyclohexadiene <=> Hexatriene

  C(HETATM    1  C1  HET A   1)   0.00000000 +0    0.0000000 +0    0.0000000 +0
  C(HETATM    2  C2  HET A   1)   1.45978307 +1    0.0000000 +0    0.0000000 +0     1     0     0
  C(HETATM    3  C3  HET A   1)   1.34050310 +1  124.2117172 +1    0.0000000 +0     2     1     0
  C(HETATM    4  C4  HET A   1)   1.45975361 +1  124.1787813 +1    0.1752205 +1     3     2     1
  C(HETATM    5  C5  HET A   1)   1.33311234 +1  125.4124813 +1  -60.4208323 +1     4     3     2
  C(HETATM    6  C6  HET A   1)   1.33335774 +1  125.3880977 +1   60.9155732 +1     1     2     3
  H(HETATM    7  H1  HET A   1)   1.09329526 +1  114.0721701 +1 -118.9580849 +1     1     2     3
  H(HETATM    8  H2  HET A   1)   1.09382821 +1  114.3355659 +1  176.6121478 +1     2     1     3
  H(HETATM    9  H3  HET A   1)   1.09292854 +1  121.1298140 +1  176.6321594 +1     3     2     1
  H(HETATM   10  H4  HET A   1)   1.09622175 +1  114.1591716 +1  119.2276936 +1     4     3     2
  H(HETATM   11 1H5  HET A   1)   1.07897989 +1  124.8425210 +1   -6.1052144 +1     5     4     3
  H(HETATM   12 2H5  HET A   1)   1.07814148 +1  122.5721296 +1  173.8253515 +1     5     4     3
  H(HETATM   13 1H6  HET A   1)   1.07834630 +1  124.8947307 +1    5.0992770 +1     6     1     2
  H(HETATM   14 2H6  HET A   1)   1.07765807 +1  122.5061567 +1 -174.8284562 +1     6     1     2
 
 TIME=     0.00
  REACTANTS AND PRODUCTS SWAPPED AROUND
 *+*+*+*+*+*+*+*+*+*+*+*+*+*+*+*+*+*+*+*+*+*+*+*+*+*+*+*+*+*+*+*+*+*+*+*+*+*+*+*+
            BAR SHORTENED BY       1.000 PERCENT
 GRADIENT CRITERION IN FLEPO =     5.988


          FOR POINT   18 FIRST  STRUCTURE
 DISTANCE A - B      1.980930
 HEAT               28.622334
 GRADIENT NORM      27.472996
 DIRECTION COSINE    0.729336
 geo-ok HTML
 Transition state for the reaction Cyclohexadiene <=> Hexatriene

  C(HETATM    1  C1  HET A   1)   0.00000000 +0    0.0000000 +0    0.0000000 +0
  C(HETATM    2  C2  HET A   1)   1.34472353 +1    0.0000000 +0    0.0000000 +0     1     0     0
  C(HETATM    3  C3  HET A   1)   1.44732243 +1  120.2676087 +1    0.0000000 +0     2     1     0
  C(HETATM    4  C4  HET A   1)   1.34283274 +1  120.1410400 +1   -0.0718103 +1     3     2     1
  C(HETATM    5  C5  HET A   1)   1.48770389 +1  121.9626791 +1  -22.8855894 +1     4     3     2
  C(HETATM    6  C6  HET A   1)   1.49088181 +1  121.6444207 +1   22.9850385 +1     1     2     3
  H(HETATM    7  H1  HET A   1)   1.08770970 +1  121.2721413 +1 -157.6575707 +1     1     2     3
  H(HETATM    8  H2  HET A   1)   1.08440348 +1  121.6945219 +1  172.4138962 +1     2     1     3
  H(HETATM    9  H3  HET A   1)   1.08111713 +1  117.3190712 +1  174.2710300 +1     3     2     1
  H(HETATM   10  H4  HET A   1)   1.08702483 +1  121.1666474 +1  157.8217252 +1     4     3     2
  H(HETATM   11 1H5  HET A   1)   1.11461067 +1  107.0290012 +1  -95.3569128 +1     5     4     3
  H(HETATM   12 2H5  HET A   1)   1.10708467 +1  109.8323113 +1  152.9754049 +1     5     4     3
  H(HETATM   13 1H6  HET A   1)   1.11471804 +1  106.9880546 +1   94.8497081 +1     6     1     2
  H(HETATM   14 2H6  HET A   1)   1.10446019 +1  109.9138426 +1 -153.2835964 +1     6     1     2
 
 *+*+*+*+*+*+*+*+*+*+*+*+*+*+*+*+*+*+*+*+*+*+*+*+*+*+*+*+*+*+*+*+*+*+*+*+*+*+*+*+
            BAR SHORTENED BY       1.000 PERCENT
 GRADIENT CRITERION IN FLEPO =    10.000


          FOR POINT   19 FIRST  STRUCTURE
 DISTANCE A - B      1.961120
 HEAT               29.083023
 GRADIENT NORM      29.348851
 DIRECTION COSINE    0.830157
 geo-ok HTML
 Transition state for the reaction Cyclohexadiene <=> Hexatriene

  C(HETATM    1  C1  HET A   1)   0.00000000 +0    0.0000000 +0    0.0000000 +0
  C(HETATM    2  C2  HET A   1)   1.34314235 +1    0.0000000 +0    0.0000000 +0     1     0     0
  C(HETATM    3  C3  HET A   1)   1.44873455 +1  119.9006000 +1    0.0000000 +0     2     1     0
  C(HETATM    4  C4  HET A   1)   1.34833339 +1  120.4351753 +1    0.3554501 +1     3     2     1
  C(HETATM    5  C5  HET A   1)   1.49116942 +1  121.4966586 +1  -23.5079519 +1     4     3     2
  C(HETATM    6  C6  HET A   1)   1.49160998 +1  121.7938476 +1   23.1648861 +1     1     2     3
  H(HETATM    7  H1  HET A   1)   1.07986945 +1  121.4372485 +1 -156.7565740 +1     1     2     3
  H(HETATM    8  H2  HET A   1)   1.07843464 +1  122.3813726 +1  172.6152329 +1     2     1     3
  H(HETATM    9  H3  HET A   1)   1.08450038 +1  117.6962347 +1  173.8490319 +1     3     2     1
  H(HETATM   10  H4  HET A   1)   1.08687992 +1  121.4138589 +1  156.6658235 +1     4     3     2
  H(HETATM   11 1H5  HET A   1)   1.11652305 +1  106.8195601 +1  -94.9531662 +1     5     4     3
  H(HETATM   12 2H5  HET A   1)   1.10615119 +1  109.7558356 +1  153.8030282 +1     5     4     3
  H(HETATM   13 1H6  HET A   1)   1.11610162 +1  106.8559935 +1   94.3360948 +1     6     1     2
  H(HETATM   14 2H6  HET A   1)   1.10643588 +1  109.8686480 +1 -154.0930284 +1     6     1     2
 
 *+*+*+*+*+*+*+*+*+*+*+*+*+*+*+*+*+*+*+*+*+*+*+*+*+*+*+*+*+*+*+*+*+*+*+*+*+*+*+*+
            BAR SHORTENED BY       1.000 PERCENT
 GRADIENT CRITERION IN FLEPO =    10.000


          FOR POINT   20 FIRST  STRUCTURE
 DISTANCE A - B      1.941509
 HEAT               29.520820
 GRADIENT NORM      27.490587
 DIRECTION COSINE    0.893086
 geo-ok HTML
 Transition state for the reaction Cyclohexadiene <=> Hexatriene

  C(HETATM    1  C1  HET A   1)   0.00000000 +0    0.0000000 +0    0.0000000 +0
  C(HETATM    2  C2  HET A   1)   1.34280138 +1    0.0000000 +0    0.0000000 +0     1     0     0
  C(HETATM    3  C3  HET A   1)   1.44729810 +1  119.9408557 +1    0.0000000 +0     2     1     0
  C(HETATM    4  C4  HET A   1)   1.34375268 +1  120.4882537 +1    0.4834074 +1     3     2     1
  C(HETATM    5  C5  HET A   1)   1.49185303 +1  121.4292048 +1  -24.0782224 +1     4     3     2
  C(HETATM    6  C6  HET A   1)   1.49271166 +1  121.6750030 +1   23.5431852 +1     1     2     3
  H(HETATM    7  H1  HET A   1)   1.08487525 +1  121.4209363 +1 -156.3702823 +1     1     2     3
  H(HETATM    8  H2  HET A   1)   1.08359190 +1  122.2551398 +1  172.6735287 +1     2     1     3
  H(HETATM    9  H3  HET A   1)   1.08595933 +1  117.3498483 +1  173.5654893 +1     3     2     1
  H(HETATM   10  H4  HET A   1)   1.08727850 +1  121.4633038 +1  155.7839436 +1     4     3     2
  H(HETATM   11 1H5  HET A   1)   1.11441626 +1  106.9099132 +1  -94.2604262 +1     5     4     3
  H(HETATM   12 2H5  HET A   1)   1.10696991 +1  109.8781744 +1  154.4710516 +1     5     4     3
  H(HETATM   13 1H6  HET A   1)   1.11480335 +1  106.7355298 +1   93.7792891 +1     6     1     2
  H(HETATM   14 2H6  HET A   1)   1.10523690 +1  109.7244188 +1 -154.7912403 +1     6     1     2
 
 TIME=     0.04
  REACTANTS AND PRODUCTS SWAPPED AROUND
 *+*+*+*+*+*+*+*+*+*+*+*+*+*+*+*+*+*+*+*+*+*+*+*+*+*+*+*+*+*+*+*+*+*+*+*+*+*+*+*+
            BAR SHORTENED BY       0.000 PERCENT
 GRADIENT CRITERION IN FLEPO =    10.000


          FOR POINT   21 SECOND STRUCTURE
 DISTANCE A - B      1.941509
 HEAT               44.571794
 GRADIENT NORM       9.025419
 DIRECTION COSINE    0.799635
 geo-ok HTML
 Transition state for the reaction Cyclohexadiene <=> Hexatriene

  C(HETATM    1  C1  HET A   1)   0.00000000 +0    0.0000000 +0    0.0000000 +0
  C(HETATM    2  C2  HET A   1)   1.45978307 +1    0.0000000 +0    0.0000000 +0     1     0     0
  C(HETATM    3  C3  HET A   1)   1.34050310 +1  124.2117172 +1    0.0000000 +0     2     1     0
  C(HETATM    4  C4  HET A   1)   1.45975361 +1  124.1787813 +1    0.1752205 +1     3     2     1
  C(HETATM    5  C5  HET A   1)   1.33311234 +1  125.4124813 +1  -60.4208323 +1     4     3     2
  C(HETATM    6  C6  HET A   1)   1.33335774 +1  125.3880977 +1   60.9155732 +1     1     2     3
  H(HETATM    7  H1  HET A   1)   1.09329526 +1  114.0721701 +1 -118.9580849 +1     1     2     3
  H(HETATM    8  H2  HET A   1)   1.09382821 +1  114.3355659 +1  176.6121478 +1     2     1     3
  H(HETATM    9  H3  HET A   1)   1.09292854 +1  121.1298140 +1  176.6321594 +1     3     2     1
  H(HETATM   10  H4  HET A   1)   1.09622175 +1  114.1591716 +1  119.2276936 +1     4     3     2
  H(HETATM   11 1H5  HET A   1)   1.07897989 +1  124.8425210 +1   -6.1052144 +1     5     4     3
  H(HETATM   12 2H5  HET A   1)   1.07814148 +1  122.5721296 +1  173.8253515 +1     5     4     3
  H(HETATM   13 1H6  HET A   1)   1.07834630 +1  124.8947307 +1    5.0992770 +1     6     1     2
  H(HETATM   14 2H6  HET A   1)   1.07765807 +1  122.5061567 +1 -174.8284562 +1     6     1     2
 
 TIME=     0.01
  REACTANTS AND PRODUCTS SWAPPED AROUND
 *+*+*+*+*+*+*+*+*+*+*+*+*+*+*+*+*+*+*+*+*+*+*+*+*+*+*+*+*+*+*+*+*+*+*+*+*+*+*+*+
            BAR SHORTENED BY       1.000 PERCENT
 GRADIENT CRITERION IN FLEPO =     6.025


          FOR POINT   22 FIRST  STRUCTURE
 DISTANCE A - B      1.922094
 HEAT               29.958438
 GRADIENT NORM      29.249984
 DIRECTION COSINE    0.764062
 geo-ok HTML
 Transition state for the reaction Cyclohexadiene <=> Hexatriene

  C(HETATM    1  C1  HET A   1)   0.00000000 +0    0.0000000 +0    0.0000000 +0
  C(HETATM    2  C2  HET A   1)   1.34362383 +1    0.0000000 +0    0.0000000 +0     1     0     0
  C(HETATM    3  C3  HET A   1)   1.45074809 +1  119.9336377 +1    0.0000000 +0     2     1     0
  C(HETATM    4  C4  HET A   1)   1.34454113 +1  120.1640806 +1    0.4518954 +1     3     2     1
  C(HETATM    5  C5  HET A   1)   1.48667742 +1  121.5208656 +1  -24.8775312 +1     4     3     2
  C(HETATM    6  C6  HET A   1)   1.49276632 +1  121.4815823 +1   24.2366979 +1     1     2     3
  H(HETATM    7  H1  HET A   1)   1.08501082 +1  121.3197726 +1 -156.1478117 +1     1     2     3
  H(HETATM    8  H2  HET A   1)   1.08352306 +1  122.1458923 +1  172.3476774 +1     2     1     3
  H(HETATM    9  H3  HET A   1)   1.08268814 +1  117.2521709 +1  173.1540809 +1     3     2     1
  H(HETATM   10  H4  HET A   1)   1.08534168 +1  121.2008237 +1  155.4234531 +1     4     3     2
  H(HETATM   11 1H5  HET A   1)   1.11512256 +1  107.1741737 +1  -93.3048783 +1     5     4     3
  H(HETATM   12 2H5  HET A   1)   1.10785800 +1  109.9045898 +1  155.4652670 +1     5     4     3
  H(HETATM   13 1H6  HET A   1)   1.11608365 +1  106.7841583 +1   92.9791236 +1     6     1     2
  H(HETATM   14 2H6  HET A   1)   1.10503908 +1  109.7312385 +1 -156.0106200 +1     6     1     2
 
 *+*+*+*+*+*+*+*+*+*+*+*+*+*+*+*+*+*+*+*+*+*+*+*+*+*+*+*+*+*+*+*+*+*+*+*+*+*+*+*+
            BAR SHORTENED BY       1.000 PERCENT
 GRADIENT CRITERION IN FLEPO =    10.000


          FOR POINT   23 FIRST  STRUCTURE
 DISTANCE A - B      1.902873
 HEAT               30.502628
 GRADIENT NORM      28.350670
 DIRECTION COSINE    0.935055
 geo-ok HTML
 Transition state for the reaction Cyclohexadiene <=> Hexatriene

  C(HETATM    1  C1  HET A   1)   0.00000000 +0    0.0000000 +0    0.0000000 +0
  C(HETATM    2  C2  HET A   1)   1.34365933 +1    0.0000000 +0    0.0000000 +0     1     0     0
  C(HETATM    3  C3  HET A   1)   1.44612767 +1  119.8359148 +1    0.0000000 +0     2     1     0
  C(HETATM    4  C4  HET A   1)   1.34478309 +1  120.2447820 +1    0.5153774 +1     3     2     1
  C(HETATM    5  C5  HET A   1)   1.49023541 +1  121.2073339 +1  -25.2849101 +1     4     3     2
  C(HETATM    6  C6  HET A   1)   1.48977006 +1  121.5960437 +1   24.7631725 +1     1     2     3
  H(HETATM    7  H1  HET A   1)   1.08792476 +1  121.1750989 +1 -155.5496750 +1     1     2     3
  H(HETATM    8  H2  HET A   1)   1.08220065 +1  122.0795179 +1  172.5884197 +1     2     1     3
  H(HETATM    9  H3  HET A   1)   1.08299166 +1  117.5650207 +1  173.3396126 +1     3     2     1
  H(HETATM   10  H4  HET A   1)   1.08931257 +1  121.3206050 +1  154.2851283 +1     4     3     2
  H(HETATM   11 1H5  HET A   1)   1.11702806 +1  106.9758634 +1  -92.9478276 +1     5     4     3
  H(HETATM   12 2H5  HET A   1)   1.10481174 +1  110.0072146 +1  156.2211063 +1     5     4     3
  H(HETATM   13 1H6  HET A   1)   1.12110799 +1  106.9088446 +1   92.0868972 +1     6     1     2
  H(HETATM   14 2H6  HET A   1)   1.10557328 +1  109.9170188 +1 -156.6349381 +1     6     1     2
 
 *+*+*+*+*+*+*+*+*+*+*+*+*+*+*+*+*+*+*+*+*+*+*+*+*+*+*+*+*+*+*+*+*+*+*+*+*+*+*+*+
            BAR SHORTENED BY       1.000 PERCENT
 GRADIENT CRITERION IN FLEPO =    10.000


          FOR POINT   24 FIRST  STRUCTURE
 DISTANCE A - B      1.883845
 HEAT               30.993502
 GRADIENT NORM      29.934799
 DIRECTION COSINE    0.927893
 geo-ok HTML
 Transition state for the reaction Cyclohexadiene <=> Hexatriene

  C(HETATM    1  C1  HET A   1)   0.00000000 +0    0.0000000 +0    0.0000000 +0
  C(HETATM    2  C2  HET A   1)   1.34392695 +1    0.0000000 +0    0.0000000 +0     1     0     0
  C(HETATM    3  C3  HET A   1)   1.45162856 +1  120.0315547 +1    0.0000000 +0     2     1     0
  C(HETATM    4  C4  HET A   1)   1.34322457 +1  119.9742339 +1    0.4973653 +1     3     2     1
  C(HETATM    5  C5  HET A   1)   1.49324018 +1  121.2815355 +1  -25.8139246 +1     4     3     2
  C(HETATM    6  C6  HET A   1)   1.49091114 +1  121.3073125 +1   25.2714120 +1     1     2     3
  H(HETATM    7  H1  HET A   1)   1.08938660 +1  121.1309343 +1 -154.3660328 +1     1     2     3
  H(HETATM    8  H2  HET A   1)   1.08440373 +1  122.1441650 +1  172.3537143 +1     2     1     3
  H(HETATM    9  H3  HET A   1)   1.08157436 +1  117.5196830 +1  173.0866812 +1     3     2     1
  H(HETATM   10  H4  HET A   1)   1.08688061 +1  121.3634817 +1  153.8986720 +1     4     3     2
  H(HETATM   11 1H5  HET A   1)   1.11506632 +1  107.0873937 +1  -92.2376028 +1     5     4     3
  H(HETATM   12 2H5  HET A   1)   1.10749360 +1  109.9839895 +1  156.7913278 +1     5     4     3
  H(HETATM   13 1H6  HET A   1)   1.11571481 +1  107.0113915 +1   91.6643463 +1     6     1     2
  H(HETATM   14 2H6  HET A   1)   1.10848598 +1  109.8185586 +1 -157.0932823 +1     6     1     2
 
 TIME=     0.04
  REACTANTS AND PRODUCTS SWAPPED AROUND
 *+*+*+*+*+*+*+*+*+*+*+*+*+*+*+*+*+*+*+*+*+*+*+*+*+*+*+*+*+*+*+*+*+*+*+*+*+*+*+*+
            BAR SHORTENED BY       0.000 PERCENT
 GRADIENT CRITERION IN FLEPO =    10.000


          FOR POINT   25 SECOND STRUCTURE
 DISTANCE A - B      1.883845
 HEAT               44.571794
 GRADIENT NORM       9.025419
 DIRECTION COSINE    0.777697
 geo-ok HTML
 Transition state for the reaction Cyclohexadiene <=> Hexatriene

  C(HETATM    1  C1  HET A   1)   0.00000000 +0    0.0000000 +0    0.0000000 +0
  C(HETATM    2  C2  HET A   1)   1.45978307 +1    0.0000000 +0    0.0000000 +0     1     0     0
  C(HETATM    3  C3  HET A   1)   1.34050310 +1  124.2117172 +1    0.0000000 +0     2     1     0
  C(HETATM    4  C4  HET A   1)   1.45975361 +1  124.1787813 +1    0.1752205 +1     3     2     1
  C(HETATM    5  C5  HET A   1)   1.33311234 +1  125.4124813 +1  -60.4208323 +1     4     3     2
  C(HETATM    6  C6  HET A   1)   1.33335774 +1  125.3880977 +1   60.9155732 +1     1     2     3
  H(HETATM    7  H1  HET A   1)   1.09329526 +1  114.0721701 +1 -118.9580849 +1     1     2     3
  H(HETATM    8  H2  HET A   1)   1.09382821 +1  114.3355659 +1  176.6121478 +1     2     1     3
  H(HETATM    9  H3  HET A   1)   1.09292854 +1  121.1298140 +1  176.6321594 +1     3     2     1
  H(HETATM   10  H4  HET A   1)   1.09622175 +1  114.1591716 +1  119.2276936 +1     4     3     2
  H(HETATM   11 1H5  HET A   1)   1.07897989 +1  124.8425210 +1   -6.1052144 +1     5     4     3
  H(HETATM   12 2H5  HET A   1)   1.07814148 +1  122.5721296 +1  173.8253515 +1     5     4     3
  H(HETATM   13 1H6  HET A   1)   1.07834630 +1  124.8947307 +1    5.0992770 +1     6     1     2
  H(HETATM   14 2H6  HET A   1)   1.07765807 +1  122.5061567 +1 -174.8284562 +1     6     1     2
 
 TIME=     0.01
  REACTANTS AND PRODUCTS SWAPPED AROUND
 *+*+*+*+*+*+*+*+*+*+*+*+*+*+*+*+*+*+*+*+*+*+*+*+*+*+*+*+*+*+*+*+*+*+*+*+*+*+*+*+
            BAR SHORTENED BY       1.000 PERCENT
 GRADIENT CRITERION IN FLEPO =     6.025


          FOR POINT   26 FIRST  STRUCTURE
 DISTANCE A - B      1.865006
 HEAT               31.461376
 GRADIENT NORM      31.469565
 DIRECTION COSINE    0.782159
 geo-ok HTML
 Transition state for the reaction Cyclohexadiene <=> Hexatriene

  C(HETATM    1  C1  HET A   1)   0.00000000 +0    0.0000000 +0    0.0000000 +0
  C(HETATM    2  C2  HET A   1)   1.34411032 +1    0.0000000 +0    0.0000000 +0     1     0     0
  C(HETATM    3  C3  HET A   1)   1.44584602 +1  120.1830789 +1    0.0000000 +0     2     1     0
  C(HETATM    4  C4  HET A   1)   1.34655847 +1  120.1301721 +1    0.3900354 +1     3     2     1
  C(HETATM    5  C5  HET A   1)   1.49118749 +1  120.9832563 +1  -26.1269245 +1     4     3     2
  C(HETATM    6  C6  HET A   1)   1.49351682 +1  121.1329940 +1   25.6882421 +1     1     2     3
  H(HETATM    7  H1  HET A   1)   1.08645052 +1  121.4024291 +1 -153.7498471 +1     1     2     3
  H(HETATM    8  H2  HET A   1)   1.08305269 +1  121.7187159 +1  171.9150832 +1     2     1     3
  H(HETATM    9  H3  HET A   1)   1.08538229 +1  117.5117726 +1  172.8154706 +1     3     2     1
  H(HETATM   10  H4  HET A   1)   1.08858916 +1  121.1631459 +1  152.8480815 +1     4     3     2
  H(HETATM   11 1H5  HET A   1)   1.11685947 +1  107.1176677 +1  -91.7318895 +1     5     4     3
  H(HETATM   12 2H5  HET A   1)   1.10497267 +1  109.8442816 +1  157.3933109 +1     5     4     3
  H(HETATM   13 1H6  HET A   1)   1.11716316 +1  106.9638317 +1   90.9906584 +1     6     1     2
  H(HETATM   14 2H6  HET A   1)   1.10368178 +1  110.0517006 +1 -157.4699231 +1     6     1     2
 
 *+*+*+*+*+*+*+*+*+*+*+*+*+*+*+*+*+*+*+*+*+*+*+*+*+*+*+*+*+*+*+*+*+*+*+*+*+*+*+*+
            BAR SHORTENED BY       1.000 PERCENT
 GRADIENT CRITERION IN FLEPO =    10.000


          FOR POINT   27 FIRST  STRUCTURE
 DISTANCE A - B      1.846356
 HEAT               32.017591
 GRADIENT NORM      31.006171
 DIRECTION COSINE    0.971505
 geo-ok HTML
 Transition state for the reaction Cyclohexadiene <=> Hexatriene

  C(HETATM    1  C1  HET A   1)   0.00000000 +0    0.0000000 +0    0.0000000 +0
  C(HETATM    2  C2  HET A   1)   1.34494584 +1    0.0000000 +0    0.0000000 +0     1     0     0
  C(HETATM    3  C3  HET A   1)   1.44823016 +1  120.0277536 +1    0.0000000 +0     2     1     0
  C(HETATM    4  C4  HET A   1)   1.34479256 +1  120.1193307 +1    0.0875268 +1     3     2     1
  C(HETATM    5  C5  HET A   1)   1.49221503 +1  120.8597575 +1  -26.5457655 +1     4     3     2
  C(HETATM    6  C6  HET A   1)   1.49223757 +1  120.8942183 +1   26.6473841 +1     1     2     3
  H(HETATM    7  H1  HET A   1)   1.08604986 +1  121.3577668 +1 -153.0074164 +1     1     2     3
  H(HETATM    8  H2  HET A   1)   1.08459537 +1  122.0030539 +1  171.3232266 +1     2     1     3
  H(HETATM    9  H3  HET A   1)   1.08409605 +1  117.5487018 +1  172.1762530 +1     3     2     1
  H(HETATM   10  H4  HET A   1)   1.08732319 +1  121.2992427 +1  152.2340942 +1     4     3     2
  H(HETATM   11 1H5  HET A   1)   1.11487728 +1  107.0214691 +1  -91.1141461 +1     5     4     3
  H(HETATM   12 2H5  HET A   1)   1.10627137 +1  109.8997425 +1  158.0551585 +1     5     4     3
  H(HETATM   13 1H6  HET A   1)   1.11585574 +1  106.9394092 +1   90.3716791 +1     6     1     2
  H(HETATM   14 2H6  HET A   1)   1.10601027 +1  109.7553757 +1 -158.6554976 +1     6     1     2
 
 *+*+*+*+*+*+*+*+*+*+*+*+*+*+*+*+*+*+*+*+*+*+*+*+*+*+*+*+*+*+*+*+*+*+*+*+*+*+*+*+
            BAR SHORTENED BY       1.000 PERCENT
 GRADIENT CRITERION IN FLEPO =    10.000


          FOR POINT   28 FIRST  STRUCTURE
 DISTANCE A - B      1.827892
 HEAT               32.632277
 GRADIENT NORM      37.026575
 DIRECTION COSINE    0.972041
 geo-ok HTML
 Transition state for the reaction Cyclohexadiene <=> Hexatriene

  C(HETATM    1  C1  HET A   1)   0.00000000 +0    0.0000000 +0    0.0000000 +0
  C(HETATM    2  C2  HET A   1)   1.34591153 +1    0.0000000 +0    0.0000000 +0     1     0     0
  C(HETATM    3  C3  HET A   1)   1.44715282 +1  120.0763834 +1    0.0000000 +0     2     1     0
  C(HETATM    4  C4  HET A   1)   1.34576647 +1  120.1670316 +1    0.0879857 +1     3     2     1
  C(HETATM    5  C5  HET A   1)   1.48931906 +1  120.9205065 +1  -26.8290098 +1     4     3     2
  C(HETATM    6  C6  HET A   1)   1.48927891 +1  120.9554647 +1   26.9331801 +1     1     2     3
  H(HETATM    7  H1  HET A   1)   1.08453324 +1  121.3144899 +1 -152.6721486 +1     1     2     3
  H(HETATM    8  H2  HET A   1)   1.08441767 +1  121.9136130 +1  171.3749058 +1     2     1     3
  H(HETATM    9  H3  HET A   1)   1.08391849 +1  117.5911637 +1  172.2127249 +1     3     2     1
  H(HETATM   10  H4  HET A   1)   1.08593758 +1  121.2544331 +1  151.9082193 +1     4     3     2
  H(HETATM   11 1H5  HET A   1)   1.11121780 +1  107.4293517 +1  -90.5635588 +1     5     4     3
  H(HETATM   12 2H5  HET A   1)   1.10582935 +1  110.0005887 +1  158.2400731 +1     5     4     3
  H(HETATM   13 1H6  HET A   1)   1.11224052 +1  107.3506673 +1   89.8216891 +1     6     1     2
  H(HETATM   14 2H6  HET A   1)   1.10556421 +1  109.8556504 +1 -158.8445033 +1     6     1     2
 
 TIME=     0.03
  REACTANTS AND PRODUCTS SWAPPED AROUND
 *+*+*+*+*+*+*+*+*+*+*+*+*+*+*+*+*+*+*+*+*+*+*+*+*+*+*+*+*+*+*+*+*+*+*+*+*+*+*+*+
            BAR SHORTENED BY       0.000 PERCENT
 GRADIENT CRITERION IN FLEPO =    10.000


          FOR POINT   29 SECOND STRUCTURE
 DISTANCE A - B      1.827892
 HEAT               44.662627
 GRADIENT NORM       8.987515
 DIRECTION COSINE    0.811481
 geo-ok HTML
 Transition state for the reaction Cyclohexadiene <=> Hexatriene

  C(HETATM    1  C1  HET A   1)   0.00000000 +0    0.0000000 +0    0.0000000 +0
  C(HETATM    2  C2  HET A   1)   1.45978307 +1    0.0000000 +0    0.0000000 +0     1     0     0
  C(HETATM    3  C3  HET A   1)   1.34050310 +1  124.2117172 +1    0.0000000 +0     2     1     0
  C(HETATM    4  C4  HET A   1)   1.45975361 +1  124.1787813 +1    0.1752205 +1     3     2     1
  C(HETATM    5  C5  HET A   1)   1.33311234 +1  125.4124813 +1  -60.4208323 +1     4     3     2
  C(HETATM    6  C6  HET A   1)   1.33335774 +1  125.3880977 +1   60.9155732 +1     1     2     3
  H(HETATM    7  H1  HET A   1)   1.09329526 +1  114.0721701 +1 -118.9580849 +1     1     2     3
  H(HETATM    8  H2  HET A   1)   1.09382821 +1  114.3355659 +1  176.6121478 +1     2     1     3
  H(HETATM    9  H3  HET A   1)   1.09292854 +1  121.1298140 +1  176.6321594 +1     3     2     1
  H(HETATM   10  H4  HET A   1)   1.09622175 +1  114.1591716 +1  119.2276936 +1     4     3     2
  H(HETATM   11 1H5  HET A   1)   1.07897989 +1  124.8425210 +1   -6.1052144 +1     5     4     3
  H(HETATM   12 2H5  HET A   1)   1.07814148 +1  122.5721296 +1  173.8253515 +1     5     4     3
  H(HETATM   13 1H6  HET A   1)   1.07834630 +1  124.8947307 +1    5.0992770 +1     6     1     2
  H(HETATM   14 2H6  HET A   1)   1.07765807 +1  122.5061567 +1 -174.8284562 +1     6     1     2
 
 TIME=     0.01
  REACTANTS AND PRODUCTS SWAPPED AROUND
 *+*+*+*+*+*+*+*+*+*+*+*+*+*+*+*+*+*+*+*+*+*+*+*+*+*+*+*+*+*+*+*+*+*+*+*+*+*+*+*+
            BAR SHORTENED BY       1.000 PERCENT
 GRADIENT CRITERION IN FLEPO =     5.988


          FOR POINT   30 FIRST  STRUCTURE
 DISTANCE A - B      1.809614
 HEAT               33.202794
 GRADIENT NORM      36.638796
 DIRECTION COSINE    0.794445
 geo-ok HTML
 Transition state for the reaction Cyclohexadiene <=> Hexatriene

  C(HETATM    1  C1  HET A   1)   0.00000000 +0    0.0000000 +0    0.0000000 +0
  C(HETATM    2  C2  HET A   1)   1.34345577 +1    0.0000000 +0    0.0000000 +0     1     0     0
  C(HETATM    3  C3  HET A   1)   1.44865703 +1  119.9443272 +1    0.0000000 +0     2     1     0
  C(HETATM    4  C4  HET A   1)   1.34568004 +1  120.0324908 +1    0.2294442 +1     3     2     1
  C(HETATM    5  C5  HET A   1)   1.48661812 +1  120.9428989 +1  -27.6023143 +1     4     3     2
  C(HETATM    6  C6  HET A   1)   1.49309822 +1  120.8599481 +1   27.2449279 +1     1     2     3
  H(HETATM    7  H1  HET A   1)   1.08449221 +1  121.4504258 +1 -152.2522074 +1     1     2     3
  H(HETATM    8  H2  HET A   1)   1.08419300 +1  121.9072547 +1  171.2262110 +1     2     1     3
  H(HETATM    9  H3  HET A   1)   1.08422104 +1  117.3826103 +1  172.0159352 +1     3     2     1
  H(HETATM   10  H4  HET A   1)   1.08556083 +1  121.0639258 +1  151.7058947 +1     4     3     2
  H(HETATM   11 1H5  HET A   1)   1.11056962 +1  107.4478296 +1  -88.9973958 +1     5     4     3
  H(HETATM   12 2H5  HET A   1)   1.10567258 +1  109.7863029 +1  159.3759316 +1     5     4     3
  H(HETATM   13 1H6  HET A   1)   1.11371404 +1  107.0406436 +1   89.0423763 +1     6     1     2
  H(HETATM   14 2H6  HET A   1)   1.10610940 +1  109.6017672 +1 -159.9264152 +1     6     1     2
 
 *+*+*+*+*+*+*+*+*+*+*+*+*+*+*+*+*+*+*+*+*+*+*+*+*+*+*+*+*+*+*+*+*+*+*+*+*+*+*+*+
            BAR SHORTENED BY       1.000 PERCENT
 GRADIENT CRITERION IN FLEPO =    10.000


          FOR POINT   31 FIRST  STRUCTURE
 DISTANCE A - B      1.791517
 HEAT               33.787723
 GRADIENT NORM      37.428272
 DIRECTION COSINE    0.935539
 geo-ok HTML
 Transition state for the reaction Cyclohexadiene <=> Hexatriene

  C(HETATM    1  C1  HET A   1)   0.00000000 +0    0.0000000 +0    0.0000000 +0
  C(HETATM    2  C2  HET A   1)   1.34724369 +1    0.0000000 +0    0.0000000 +0     1     0     0
  C(HETATM    3  C3  HET A   1)   1.44330102 +1  119.9085728 +1    0.0000000 +0     2     1     0
  C(HETATM    4  C4  HET A   1)   1.34415677 +1  120.2385063 +1    0.1897030 +1     3     2     1
  C(HETATM    5  C5  HET A   1)   1.48889099 +1  120.7530713 +1  -27.8580890 +1     4     3     2
  C(HETATM    6  C6  HET A   1)   1.49007772 +1  120.6784939 +1   27.6881576 +1     1     2     3
  H(HETATM    7  H1  HET A   1)   1.08492518 +1  121.4865577 +1 -151.9057508 +1     1     2     3
  H(HETATM    8  H2  HET A   1)   1.08435772 +1  121.7859372 +1  171.8746812 +1     2     1     3
  H(HETATM    9  H3  HET A   1)   1.08389382 +1  117.5444807 +1  171.7626835 +1     3     2     1
  H(HETATM   10  H4  HET A   1)   1.08552618 +1  121.3329735 +1  151.0796316 +1     4     3     2
  H(HETATM   11 1H5  HET A   1)   1.11388800 +1  107.3729431 +1  -88.7940298 +1     5     4     3
  H(HETATM   12 2H5  HET A   1)   1.10699895 +1  109.9468664 +1  159.9607477 +1     5     4     3
  H(HETATM   13 1H6  HET A   1)   1.11606616 +1  107.1169936 +1   88.5573067 +1     6     1     2
  H(HETATM   14 2H6  HET A   1)   1.10282523 +1  110.2163005 +1 -161.2496448 +1     6     1     2
 
 *+*+*+*+*+*+*+*+*+*+*+*+*+*+*+*+*+*+*+*+*+*+*+*+*+*+*+*+*+*+*+*+*+*+*+*+*+*+*+*+
            BAR SHORTENED BY       1.000 PERCENT
 GRADIENT CRITERION IN FLEPO =    10.000


          FOR POINT   32 FIRST  STRUCTURE
 DISTANCE A - B      1.773602
 HEAT               34.380652
 GRADIENT NORM      38.483550
 DIRECTION COSINE    0.943285
 geo-ok HTML
 Transition state for the reaction Cyclohexadiene <=> Hexatriene

  C(HETATM    1  C1  HET A   1)   0.00000000 +0    0.0000000 +0    0.0000000 +0
  C(HETATM    2  C2  HET A   1)   1.34421328 +1    0.0000000 +0    0.0000000 +0     1     0     0
  C(HETATM    3  C3  HET A   1)   1.44785649 +1  119.8472981 +1    0.0000000 +0     2     1     0
  C(HETATM    4  C4  HET A   1)   1.34602397 +1  119.8146502 +1    0.1284059 +1     3     2     1
  C(HETATM    5  C5  HET A   1)   1.48624288 +1  120.9330863 +1  -28.5371182 +1     4     3     2
  C(HETATM    6  C6  HET A   1)   1.49020127 +1  120.7197881 +1   28.3592936 +1     1     2     3
  H(HETATM    7  H1  HET A   1)   1.08537044 +1  121.5526337 +1 -151.5332814 +1     1     2     3
  H(HETATM    8  H2  HET A   1)   1.08202409 +1  121.9790239 +1  171.4316481 +1     2     1     3
  H(HETATM    9  H3  HET A   1)   1.08385575 +1  117.4924122 +1  171.5435232 +1     3     2     1
  H(HETATM   10  H4  HET A   1)   1.08440201 +1  121.1709647 +1  150.7334442 +1     4     3     2
  H(HETATM   11 1H5  HET A   1)   1.11334590 +1  107.5038464 +1  -88.1600451 +1     5     4     3
  H(HETATM   12 2H5  HET A   1)   1.10263706 +1  110.1980051 +1  161.5077379 +1     5     4     3
  H(HETATM   13 1H6  HET A   1)   1.11188269 +1  107.1860049 +1   87.9206893 +1     6     1     2
  H(HETATM   14 2H6  HET A   1)   1.10719926 +1  109.9033554 +1 -161.7845686 +1     6     1     2
 
 TIME=     0.04
  REACTANTS AND PRODUCTS SWAPPED AROUND
 *+*+*+*+*+*+*+*+*+*+*+*+*+*+*+*+*+*+*+*+*+*+*+*+*+*+*+*+*+*+*+*+*+*+*+*+*+*+*+*+
            BAR SHORTENED BY       0.000 PERCENT
 GRADIENT CRITERION IN FLEPO =    10.000


          FOR POINT   33 SECOND STRUCTURE
 DISTANCE A - B      1.773602
 HEAT               44.662627
 GRADIENT NORM       9.025419
 DIRECTION COSINE    0.801429
 geo-ok HTML
 Transition state for the reaction Cyclohexadiene <=> Hexatriene

  C(HETATM    1  C1  HET A   1)   0.00000000 +0    0.0000000 +0    0.0000000 +0
  C(HETATM    2  C2  HET A   1)   1.45978307 +1    0.0000000 +0    0.0000000 +0     1     0     0
  C(HETATM    3  C3  HET A   1)   1.34050310 +1  124.2117172 +1    0.0000000 +0     2     1     0
  C(HETATM    4  C4  HET A   1)   1.45975361 +1  124.1787813 +1    0.1752205 +1     3     2     1
  C(HETATM    5  C5  HET A   1)   1.33311234 +1  125.4124813 +1  -60.4208323 +1     4     3     2
  C(HETATM    6  C6  HET A   1)   1.33335774 +1  125.3880977 +1   60.9155732 +1     1     2     3
  H(HETATM    7  H1  HET A   1)   1.09329526 +1  114.0721701 +1 -118.9580849 +1     1     2     3
  H(HETATM    8  H2  HET A   1)   1.09382821 +1  114.3355659 +1  176.6121478 +1     2     1     3
  H(HETATM    9  H3  HET A   1)   1.09292854 +1  121.1298140 +1  176.6321594 +1     3     2     1
  H(HETATM   10  H4  HET A   1)   1.09622175 +1  114.1591716 +1  119.2276936 +1     4     3     2
  H(HETATM   11 1H5  HET A   1)   1.07897989 +1  124.8425210 +1   -6.1052144 +1     5     4     3
  H(HETATM   12 2H5  HET A   1)   1.07814148 +1  122.5721296 +1  173.8253515 +1     5     4     3
  H(HETATM   13 1H6  HET A   1)   1.07834630 +1  124.8947307 +1    5.0992770 +1     6     1     2
  H(HETATM   14 2H6  HET A   1)   1.07765807 +1  122.5061567 +1 -174.8284562 +1     6     1     2
 
 TIME=     0.01
  REACTANTS AND PRODUCTS SWAPPED AROUND
 *+*+*+*+*+*+*+*+*+*+*+*+*+*+*+*+*+*+*+*+*+*+*+*+*+*+*+*+*+*+*+*+*+*+*+*+*+*+*+*+
            BAR SHORTENED BY       1.000 PERCENT
 GRADIENT CRITERION IN FLEPO =     6.025


          FOR POINT   34 FIRST  STRUCTURE
 DISTANCE A - B      1.755866
 HEAT               34.941871
 GRADIENT NORM      39.168324
 DIRECTION COSINE    0.763186
 geo-ok HTML
 Transition state for the reaction Cyclohexadiene <=> Hexatriene

  C(HETATM    1  C1  HET A   1)   0.00000000 +0    0.0000000 +0    0.0000000 +0
  C(HETATM    2  C2  HET A   1)   1.34762790 +1    0.0000000 +0    0.0000000 +0     1     0     0
  C(HETATM    3  C3  HET A   1)   1.44302583 +1  119.8396784 +1    0.0000000 +0     2     1     0
  C(HETATM    4  C4  HET A   1)   1.34444152 +1  119.9970682 +1    0.0331012 +1     3     2     1
  C(HETATM    5  C5  HET A   1)   1.49051182 +1  120.7052939 +1  -28.7674547 +1     4     3     2
  C(HETATM    6  C6  HET A   1)   1.48886363 +1  120.6494541 +1   28.6338523 +1     1     2     3
  H(HETATM    7  H1  HET A   1)   1.08570806 +1  121.5764356 +1 -150.9244363 +1     1     2     3
  H(HETATM    8  H2  HET A   1)   1.08156772 +1  121.8790381 +1  172.4092963 +1     2     1     3
  H(HETATM    9  H3  HET A   1)   1.08367762 +1  117.4871752 +1  171.3907387 +1     3     2     1
  H(HETATM   10  H4  HET A   1)   1.08977315 +1  121.2464639 +1  149.6935857 +1     4     3     2
  H(HETATM   11 1H5  HET A   1)   1.11306294 +1  107.3447436 +1  -87.7035886 +1     5     4     3
  H(HETATM   12 2H5  HET A   1)   1.10704446 +1  109.9792632 +1  161.7079834 +1     5     4     3
  H(HETATM   13 1H6  HET A   1)   1.11466232 +1  106.9436768 +1   87.4774627 +1     6     1     2
  H(HETATM   14 2H6  HET A   1)   1.10304084 +1  109.8513331 +1 -162.2507459 +1     6     1     2
 
 *+*+*+*+*+*+*+*+*+*+*+*+*+*+*+*+*+*+*+*+*+*+*+*+*+*+*+*+*+*+*+*+*+*+*+*+*+*+*+*+
            BAR SHORTENED BY       1.000 PERCENT
 GRADIENT CRITERION IN FLEPO =    10.000


          FOR POINT   35 FIRST  STRUCTURE
 DISTANCE A - B      1.738308
 HEAT               35.577308
 GRADIENT NORM      38.907520
 DIRECTION COSINE    0.935405
 geo-ok HTML
 Transition state for the reaction Cyclohexadiene <=> Hexatriene

  C(HETATM    1  C1  HET A   1)   0.00000000 +0    0.0000000 +0    0.0000000 +0
  C(HETATM    2  C2  HET A   1)   1.34440603 +1    0.0000000 +0    0.0000000 +0     1     0     0
  C(HETATM    3  C3  HET A   1)   1.44765799 +1  119.8984708 +1    0.0000000 +0     2     1     0
  C(HETATM    4  C4  HET A   1)   1.34651953 +1  119.8437508 +1    0.1725279 +1     3     2     1
  C(HETATM    5  C5  HET A   1)   1.48961812 +1  120.5523051 +1  -29.3234071 +1     4     3     2
  C(HETATM    6  C6  HET A   1)   1.49146788 +1  120.5006018 +1   29.0370398 +1     1     2     3
  H(HETATM    7  H1  HET A   1)   1.09096600 +1  121.3854321 +1 -149.5630270 +1     1     2     3
  H(HETATM    8  H2  HET A   1)   1.08431179 +1  121.9892723 +1  171.9115522 +1     2     1     3
  H(HETATM    9  H3  HET A   1)   1.08400150 +1  117.6177565 +1  171.1913313 +1     3     2     1
  H(HETATM   10  H4  HET A   1)   1.08594390 +1  121.1525526 +1  149.4291366 +1     4     3     2
  H(HETATM   11 1H5  HET A   1)   1.11613640 +1  107.0890992 +1  -86.9983002 +1     5     4     3
  H(HETATM   12 2H5  HET A   1)   1.10712732 +1  109.7843212 +1  162.5622999 +1     5     4     3
  H(HETATM   13 1H6  HET A   1)   1.11297584 +1  107.2126691 +1   86.9484847 +1     6     1     2
  H(HETATM   14 2H6  HET A   1)   1.10772009 +1  109.7491235 +1 -162.4516284 +1     6     1     2
 
 *+*+*+*+*+*+*+*+*+*+*+*+*+*+*+*+*+*+*+*+*+*+*+*+*+*+*+*+*+*+*+*+*+*+*+*+*+*+*+*+
            BAR SHORTENED BY       1.000 PERCENT
 GRADIENT CRITERION IN FLEPO =    10.000


          FOR POINT   36 FIRST  STRUCTURE
 DISTANCE A - B      1.720924
 HEAT               36.278524
 GRADIENT NORM      44.101658
 DIRECTION COSINE    0.985138
 geo-ok HTML
 Transition state for the reaction Cyclohexadiene <=> Hexatriene

  C(HETATM    1  C1  HET A   1)   0.00000000 +0    0.0000000 +0    0.0000000 +0
  C(HETATM    2  C2  HET A   1)   1.34541867 +1    0.0000000 +0    0.0000000 +0     1     0     0
  C(HETATM    3  C3  HET A   1)   1.44658630 +1  119.9473323 +1    0.0000000 +0     2     1     0
  C(HETATM    4  C4  HET A   1)   1.34751851 +1  119.8932546 +1    0.1715213 +1     3     2     1
  C(HETATM    5  C5  HET A   1)   1.48683116 +1  120.6087904 +1  -29.5835108 +1     4     3     2
  C(HETATM    6  C6  HET A   1)   1.48857539 +1  120.5596320 +1   29.3023756 +1     1     2     3
  H(HETATM    7  H1  HET A   1)   1.08966388 +1  121.3423059 +1 -149.2574623 +1     1     2     3
  H(HETATM    8  H2  HET A   1)   1.08421174 +1  121.9025936 +1  171.9578370 +1     2     1     3
  H(HETATM    9  H3  HET A   1)   1.08384668 +1  117.6587822 +1  171.2385100 +1     3     2     1
  H(HETATM   10  H4  HET A   1)   1.08480438 +1  121.1103098 +1  149.1258790 +1     4     3     2
  H(HETATM   11 1H5  HET A   1)   1.11257652 +1  107.4868654 +1  -86.4798717 +1     5     4     3
  H(HETATM   12 2H5  HET A   1)   1.10674020 +1  109.8942012 +1  162.7021311 +1     5     4     3
  H(HETATM   13 1H6  HET A   1)   1.10951671 +1  107.6146435 +1   86.4235610 +1     6     1     2
  H(HETATM   14 2H6  HET A   1)   1.10731361 +1  109.8563660 +1 -162.6019444 +1     6     1     2
 
 TIME=     0.03
  REACTANTS AND PRODUCTS SWAPPED AROUND
 *+*+*+*+*+*+*+*+*+*+*+*+*+*+*+*+*+*+*+*+*+*+*+*+*+*+*+*+*+*+*+*+*+*+*+*+*+*+*+*+
            BAR SHORTENED BY       0.000 PERCENT
 GRADIENT CRITERION IN FLEPO =    10.000


          FOR POINT   37 SECOND STRUCTURE
 DISTANCE A - B      1.720924
 HEAT               44.662627
 GRADIENT NORM       8.987515
 DIRECTION COSINE    0.798391
 geo-ok HTML
 Transition state for the reaction Cyclohexadiene <=> Hexatriene

  C(HETATM    1  C1  HET A   1)   0.00000000 +0    0.0000000 +0    0.0000000 +0
  C(HETATM    2  C2  HET A   1)   1.45978307 +1    0.0000000 +0    0.0000000 +0     1     0     0
  C(HETATM    3  C3  HET A   1)   1.34050310 +1  124.2117172 +1    0.0000000 +0     2     1     0
  C(HETATM    4  C4  HET A   1)   1.45975361 +1  124.1787813 +1    0.1752205 +1     3     2     1
  C(HETATM    5  C5  HET A   1)   1.33311234 +1  125.4124813 +1  -60.4208323 +1     4     3     2
  C(HETATM    6  C6  HET A   1)   1.33335774 +1  125.3880977 +1   60.9155732 +1     1     2     3
  H(HETATM    7  H1  HET A   1)   1.09329526 +1  114.0721701 +1 -118.9580849 +1     1     2     3
  H(HETATM    8  H2  HET A   1)   1.09382821 +1  114.3355659 +1  176.6121478 +1     2     1     3
  H(HETATM    9  H3  HET A   1)   1.09292854 +1  121.1298140 +1  176.6321594 +1     3     2     1
  H(HETATM   10  H4  HET A   1)   1.09622175 +1  114.1591716 +1  119.2276936 +1     4     3     2
  H(HETATM   11 1H5  HET A   1)   1.07897989 +1  124.8425210 +1   -6.1052144 +1     5     4     3
  H(HETATM   12 2H5  HET A   1)   1.07814148 +1  122.5721296 +1  173.8253515 +1     5     4     3
  H(HETATM   13 1H6  HET A   1)   1.07834630 +1  124.8947307 +1    5.0992770 +1     6     1     2
  H(HETATM   14 2H6  HET A   1)   1.07765807 +1  122.5061567 +1 -174.8284562 +1     6     1     2
 
 TIME=     0.01
  REACTANTS AND PRODUCTS SWAPPED AROUND
 *+*+*+*+*+*+*+*+*+*+*+*+*+*+*+*+*+*+*+*+*+*+*+*+*+*+*+*+*+*+*+*+*+*+*+*+*+*+*+*+
            BAR SHORTENED BY       1.000 PERCENT
 GRADIENT CRITERION IN FLEPO =     5.988


          FOR POINT   38 FIRST  STRUCTURE
 DISTANCE A - B      1.703715
 HEAT               36.946491
 GRADIENT NORM      44.076524
 DIRECTION COSINE    0.813661
 geo-ok HTML
 Transition state for the reaction Cyclohexadiene <=> Hexatriene

  C(HETATM    1  C1  HET A   1)   0.00000000 +0    0.0000000 +0    0.0000000 +0
  C(HETATM    2  C2  HET A   1)   1.34833336 +1    0.0000000 +0    0.0000000 +0     1     0     0
  C(HETATM    3  C3  HET A   1)   1.44710442 +1  119.8220514 +1    0.0000000 +0     2     1     0
  C(HETATM    4  C4  HET A   1)   1.34362901 +1  120.1150189 +1   -0.4523804 +1     3     2     1
  C(HETATM    5  C5  HET A   1)   1.49023529 +1  120.3977651 +1  -29.6279840 +1     4     3     2
  C(HETATM    6  C6  HET A   1)   1.48930770 +1  120.1625938 +1   30.1494966 +1     1     2     3
  H(HETATM    7  H1  HET A   1)   1.08647778 +1  121.4431708 +1 -148.4840273 +1     1     2     3
  H(HETATM    8  H2  HET A   1)   1.08142572 +1  121.7176723 +1  170.6744394 +1     2     1     3
  H(HETATM    9  H3  HET A   1)   1.08387777 +1  117.3948623 +1  170.7757278 +1     3     2     1
  H(HETATM   10  H4  HET A   1)   1.08602815 +1  121.2777537 +1  148.7991836 +1     4     3     2
  H(HETATM   11 1H5  HET A   1)   1.11168886 +1  107.6433946 +1  -86.1389736 +1     5     4     3
  H(HETATM   12 2H5  HET A   1)   1.10280630 +1  110.2655685 +1  164.1368805 +1     5     4     3
  H(HETATM   13 1H6  HET A   1)   1.11252509 +1  107.4612019 +1   85.6886795 +1     6     1     2
  H(HETATM   14 2H6  HET A   1)   1.10723920 +1  109.8494900 +1 -163.7383736 +1     6     1     2
 
 *+*+*+*+*+*+*+*+*+*+*+*+*+*+*+*+*+*+*+*+*+*+*+*+*+*+*+*+*+*+*+*+*+*+*+*+*+*+*+*+
            BAR SHORTENED BY       1.000 PERCENT
 GRADIENT CRITERION IN FLEPO =    10.000


          FOR POINT   39 FIRST  STRUCTURE
 DISTANCE A - B      1.686678
 HEAT               37.564128
 GRADIENT NORM      44.212340
 DIRECTION COSINE    0.938360
 geo-ok HTML
 Transition state for the reaction Cyclohexadiene <=> Hexatriene

  C(HETATM    1  C1  HET A   1)   0.00000000 +0    0.0000000 +0    0.0000000 +0
  C(HETATM    2  C2  HET A   1)   1.34530181 +1    0.0000000 +0    0.0000000 +0     1     0     0
  C(HETATM    3  C3  HET A   1)   1.44550429 +1  119.7384741 +1    0.0000000 +0     2     1     0
  C(HETATM    4  C4  HET A   1)   1.34870834 +1  119.8903999 +1   -0.0536466 +1     3     2     1
  C(HETATM    5  C5  HET A   1)   1.49052723 +1  120.1169425 +1  -30.4558670 +1     4     3     2
  C(HETATM    6  C6  HET A   1)   1.48478761 +1  120.3965600 +1   30.5154132 +1     1     2     3
  H(HETATM    7  H1  HET A   1)   1.08190825 +1  121.3458445 +1 -148.1307172 +1     1     2     3
  H(HETATM    8  H2  HET A   1)   1.08220496 +1  122.0879243 +1  172.2058332 +1     2     1     3
  H(HETATM    9  H3  HET A   1)   1.08410155 +1  117.5530738 +1  170.4851572 +1     3     2     1
  H(HETATM   10  H4  HET A   1)   1.08534762 +1  121.2137813 +1  148.0782860 +1     4     3     2
  H(HETATM   11 1H5  HET A   1)   1.11210935 +1  107.5009697 +1  -85.4398432 +1     5     4     3
  H(HETATM   12 2H5  HET A   1)   1.10728152 +1  109.9222075 +1  164.6041837 +1     5     4     3
  H(HETATM   13 1H6  HET A   1)   1.11491105 +1  107.4493284 +1   84.8831836 +1     6     1     2
  H(HETATM   14 2H6  HET A   1)   1.10635482 +1  109.8069321 +1 -164.5319134 +1     6     1     2
 
 *+*+*+*+*+*+*+*+*+*+*+*+*+*+*+*+*+*+*+*+*+*+*+*+*+*+*+*+*+*+*+*+*+*+*+*+*+*+*+*+
            BAR SHORTENED BY       1.000 PERCENT
 GRADIENT CRITERION IN FLEPO =    10.000


          FOR POINT   40 FIRST  STRUCTURE
 DISTANCE A - B      1.669811
 HEAT               38.249566
 GRADIENT NORM      46.633912
 DIRECTION COSINE    0.967791
 geo-ok HTML
 Transition state for the reaction Cyclohexadiene <=> Hexatriene

  C(HETATM    1  C1  HET A   1)   0.00000000 +0    0.0000000 +0    0.0000000 +0
[...]
  C(HETATM    6  C6  HET A   1)   1.40266009 +1  121.5894165 +1   41.7752693 +1     1     2     3
  H(HETATM    7  H1  HET A   1)   1.09228259 +1  118.0811047 +1 -131.1759328 +1     1     2     3
  H(HETATM    8  H2  HET A   1)   1.08979760 +1  119.5155343 +1  167.1312947 +1     2     1     3
  H(HETATM    9  H3  HET A   1)   1.08995316 +1  118.6897068 +1  167.2123440 +1     3     2     1
  H(HETATM   10  H4  HET A   1)   1.09042728 +1  118.0706218 +1  131.2394810 +1     4     3     2
  H(HETATM   11 1H5  HET A   1)   1.08592881 +1  118.2074285 +1  -56.9856064 +1     5     4     3
  H(HETATM   12 2H5  HET A   1)   1.08267365 +1  118.9942177 +1  161.9362023 +1     5     4     3
  H(HETATM   13 1H6  HET A   1)   1.08561476 +1  118.1576462 +1   56.4937979 +1     6     1     2
  H(HETATM   14 2H6  HET A   1)   1.08364326 +1  119.0444390 +1 -162.2600553 +1     6     1     2
 
 TIME=     0.01
  REACTANTS AND PRODUCTS SWAPPED AROUND
 *+*+*+*+*+*+*+*+*+*+*+*+*+*+*+*+*+*+*+*+*+*+*+*+*+*+*+*+*+*+*+*+*+*+*+*+*+*+*+*+
            BAR SHORTENED BY       1.000 PERCENT
 GRADIENT CRITERION IN FLEPO =    10.000


          FOR POINT  344 SECOND STRUCTURE
 DISTANCE A - B      0.103185
 HEAT               67.899279
 GRADIENT NORM      26.018163
 DIRECTION COSINE    0.923545
 geo-ok HTML
 Transition state for the reaction Cyclohexadiene <=> Hexatriene

  C(HETATM    1  C1  HET A   1)   0.00000000 +0    0.0000000 +0    0.0000000 +0
  C(HETATM    2  C2  HET A   1)   1.41699694 +1    0.0000000 +0    0.0000000 +0     1     0     0
  C(HETATM    3  C3  HET A   1)   1.37441519 +1  120.8123833 +1    0.0000000 +0     2     1     0
  C(HETATM    4  C4  HET A   1)   1.41692492 +1  120.7911874 +1    0.2597047 +1     3     2     1
  C(HETATM    5  C5  HET A   1)   1.37229780 +1  122.9768455 +1  -43.6913906 +1     4     3     2
  C(HETATM    6  C6  HET A   1)   1.37200449 +1  122.8568626 +1   43.6545518 +1     1     2     3
  H(HETATM    7  H1  HET A   1)   1.09104509 +1  117.0972743 +1 -130.1451583 +1     1     2     3
  H(HETATM    8  H2  HET A   1)   1.08979073 +1  118.6146341 +1  168.0417900 +1     2     1     3
  H(HETATM    9  H3  HET A   1)   1.08959019 +1  119.5256594 +1  167.8710490 +1     3     2     1
  H(HETATM   10  H4  HET A   1)   1.09057907 +1  117.0225190 +1  130.0583904 +1     4     3     2
  H(HETATM   11 1H5  HET A   1)   1.08279820 +1  120.4885937 +1  -50.5607060 +1     5     4     3
  H(HETATM   12 2H5  HET A   1)   1.07849132 +1  120.9595106 +1  158.7752815 +1     5     4     3
  H(HETATM   13 1H6  HET A   1)   1.08298657 +1  120.3706137 +1   49.8820043 +1     6     1     2
  H(HETATM   14 2H6  HET A   1)   1.07712653 +1  121.0900927 +1 -159.0087061 +1     6     1     2
 
 *+*+*+*+*+*+*+*+*+*+*+*+*+*+*+*+*+*+*+*+*+*+*+*+*+*+*+*+*+*+*+*+*+*+*+*+*+*+*+*+
            BAR SHORTENED BY       1.000 PERCENT
 GRADIENT CRITERION IN FLEPO =    10.000


          FOR POINT  345 SECOND STRUCTURE
 DISTANCE A - B      0.102153
 HEAT               67.925046
 GRADIENT NORM      25.738593
 DIRECTION COSINE    0.999958
 geo-ok HTML
 Transition state for the reaction Cyclohexadiene <=> Hexatriene

  C(HETATM    1  C1  HET A   1)   0.00000000 +0    0.0000000 +0    0.0000000 +0
  C(HETATM    2  C2  HET A   1)   1.41673920 +1    0.0000000 +0    0.0000000 +0     1     0     0
  C(HETATM    3  C3  HET A   1)   1.37464672 +1  120.8104497 +1    0.0000000 +0     2     1     0
  C(HETATM    4  C4  HET A   1)   1.41666875 +1  120.7889814 +1    0.2595749 +1     3     2     1
  C(HETATM    5  C5  HET A   1)   1.37259801 +1  122.9646355 +1  -43.6723405 +1     4     3     2
  C(HETATM    6  C6  HET A   1)   1.37230034 +1  122.8439954 +1   43.6350160 +1     1     2     3
  H(HETATM    7  H1  HET A   1)   1.09105453 +1  117.1072081 +1 -130.1553135 +1     1     2     3
  H(HETATM    8  H2  HET A   1)   1.08978934 +1  118.6236569 +1  168.0328124 +1     2     1     3
  H(HETATM    9  H3  HET A   1)   1.08959240 +1  119.5173043 +1  167.8644598 +1     3     2     1
  H(HETATM   10  H4  HET A   1)   1.09057414 +1  117.0331008 +1  130.0700190 +1     4     3     2
  H(HETATM   11 1H5  HET A   1)   1.08280038 +1  120.4682045 +1  -50.6278179 +1     5     4     3
  H(HETATM   12 2H5  HET A   1)   1.07852079 +1  120.9412113 +1  158.8080325 +1     5     4     3
  H(HETATM   13 1H6  HET A   1)   1.08298320 +1  120.3510572 +1   49.9509871 +1     6     1     2
  H(HETATM   14 2H6  HET A   1)   1.07717843 +1  121.0710741 +1 -159.0425131 +1     6     1     2
 
 TIME=     0.03
  REACTANTS AND PRODUCTS SWAPPED AROUND
 *+*+*+*+*+*+*+*+*+*+*+*+*+*+*+*+*+*+*+*+*+*+*+*+*+*+*+*+*+*+*+*+*+*+*+*+*+*+*+*+
            BAR SHORTENED BY       1.000 PERCENT
 GRADIENT CRITERION IN FLEPO =    10.000


          FOR POINT  346 FIRST  STRUCTURE
 DISTANCE A - B      0.101132
 HEAT               67.932745
 GRADIENT NORM      30.649877
 DIRECTION COSINE    0.919198
 geo-ok HTML
 Transition state for the reaction Cyclohexadiene <=> Hexatriene

  C(HETATM    1  C1  HET A   1)   0.00000000 +0    0.0000000 +0    0.0000000 +0
  C(HETATM    2  C2  HET A   1)   1.39149227 +1    0.0000000 +0    0.0000000 +0     1     0     0
  C(HETATM    3  C3  HET A   1)   1.39733863 +1  120.6171989 +1    0.0000000 +0     2     1     0
  C(HETATM    4  C4  HET A   1)   1.39157839 +1  120.5687572 +1    0.2476781 +1     3     2     1
  C(HETATM    5  C5  HET A   1)   1.40299325 +1  121.7878628 +1  -41.8755462 +1     4     3     2
  C(HETATM    6  C6  HET A   1)   1.40234623 +1  121.6017622 +1   41.7931554 +1     1     2     3
  H(HETATM    7  H1  HET A   1)   1.09226743 +1  118.0714630 +1 -131.1655764 +1     1     2     3
  H(HETATM    8  H2  HET A   1)   1.08979609 +1  119.5066304 +1  167.1404368 +1     2     1     3
  H(HETATM    9  H3  HET A   1)   1.08994816 +1  118.6979863 +1  167.2188636 +1     3     2     1
  H(HETATM   10  H4  HET A   1)   1.09042540 +1  118.0603502 +1  131.2276066 +1     4     3     2
  H(HETATM   11 1H5  HET A   1)   1.08586906 +1  118.2322377 +1  -56.9249210 +1     5     4     3
  H(HETATM   12 2H5  HET A   1)   1.08262006 +1  119.0149205 +1  161.9060692 +1     5     4     3
  H(HETATM   13 1H6  HET A   1)   1.08555946 +1  118.1819266 +1   56.4312816 +1     6     1     2
  H(HETATM   14 2H6  HET A   1)   1.08356568 +1  119.0660078 +1 -162.2291773 +1     6     1     2
 
 TIME=     0.01
  REACTANTS AND PRODUCTS SWAPPED AROUND
 *+*+*+*+*+*+*+*+*+*+*+*+*+*+*+*+*+*+*+*+*+*+*+*+*+*+*+*+*+*+*+*+*+*+*+*+*+*+*+*+
            BAR SHORTENED BY       1.000 PERCENT
 GRADIENT CRITERION IN FLEPO =    10.000


          FOR POINT  347 SECOND STRUCTURE
 DISTANCE A - B      0.100120
 HEAT               67.949982
 GRADIENT NORM      25.459441
 DIRECTION COSINE    0.916720
 geo-ok HTML
 Transition state for the reaction Cyclohexadiene <=> Hexatriene

  C(HETATM    1  C1  HET A   1)   0.00000000 +0    0.0000000 +0    0.0000000 +0
  C(HETATM    2  C2  HET A   1)   1.41648659 +1    0.0000000 +0    0.0000000 +0     1     0     0
  C(HETATM    3  C3  HET A   1)   1.37487363 +1  120.8085539 +1    0.0000000 +0     2     1     0
  C(HETATM    4  C4  HET A   1)   1.41641767 +1  120.7868185 +1    0.2594479 +1     3     2     1
  C(HETATM    5  C5  HET A   1)   1.37289245 +1  122.9526723 +1  -43.6536840 +1     4     3     2
  C(HETATM    6  C6  HET A   1)   1.37259051 +1  122.8313879 +1   43.6158838 +1     1     2     3
  H(HETATM    7  H1  HET A   1)   1.09106384 +1  117.1169424 +1 -130.1652695 +1     1     2     3
  H(HETATM    8  H2  HET A   1)   1.08978800 +1  118.6324999 +1  168.0240110 +1     2     1     3
  H(HETATM    9  H3  HET A   1)   1.08959460 +1  119.5091153 +1  167.8580017 +1     3     2     1
  H(HETATM   10  H4  HET A   1)   1.09056937 +1  117.0434701 +1  130.0814197 +1     4     3     2
  H(HETATM   11 1H5  HET A   1)   1.08280308 +1  120.4481701 +1  -50.6935403 +1     5     4     3
  H(HETATM   12 2H5  HET A   1)   1.07854991 +1  120.9232477 +1  158.8401100 +1     5     4     3
  H(HETATM   13 1H6  HET A   1)   1.08298049 +1  120.3318362 +1   50.0185434 +1     6     1     2
  H(HETATM   14 2H6  HET A   1)   1.07722956 +1  121.0524035 +1 -159.0756229 +1     6     1     2
 
 TIME=     0.01
  REACTANTS AND PRODUCTS SWAPPED AROUND
 *+*+*+*+*+*+*+*+*+*+*+*+*+*+*+*+*+*+*+*+*+*+*+*+*+*+*+*+*+*+*+*+*+*+*+*+*+*+*+*+
            BAR SHORTENED BY       1.000 PERCENT
 AT END OF STEPWISE ASCENT OF REACTION BARRIER

 -------------------------------------------------------------------------------
 geo-ok HTML
 Transition state for the reaction Cyclohexadiene <=> Hexatriene



     TRANSITION STATE LOCATED USING THE "SADDLE" TECHNIQUE    
     SCF FIELD WAS ACHIEVED                                   


                              PM7 CALCULATION
                                                       MOPAC2016 (Version: 21.153W)
                                                       Fri Jun  4 09:53:30 2021
                                                       No. of days remaining = 363




          FINAL H.O.F PLUS STRESS =         67.94998 KCAL/MOL =     284.30273 KJ/MOL
          FINAL STRESS            =          0.00000 KCAL/MOL =       0.00000 KJ/MOL
          FINAL HEAT OF FORMATION =         67.94998 KCAL/MOL =     284.30273 KJ/MOL
          TOTAL DISTORTION        =          0.00285 Angstroms
          AVERAGE DISTORTION      =          0.00020 Angstroms per atom (all atoms)
          RMS DISTORTION          =          0.00027 Angstroms per atom (all atoms)


          TOTAL ENERGY            =       -842.25921 EV
          ELECTRONIC ENERGY       =      -3541.16065 EV  POINT GROUP:     Cs  
          CORE-CORE REPULSION     =       2698.90144 EV
          COSMO AREA              =        126.59 SQUARE ANGSTROMS
          COSMO VOLUME            =        117.46 CUBIC ANGSTROMS

          GRADIENT NORM           =          7.02253 = 1.87685 PER ATOM
          IONIZATION POTENTIAL    =          8.702983 EV
          HOMO LUMO ENERGIES (EV) =         -8.703  0.212
          NO. OF FILLED LEVELS    =         16
          MOLECULAR WEIGHT        =         80.1292

          MOLECULAR DIMENSIONS (Angstroms)

            Atom       Atom       Distance
            H    12    H     8     5.02102
            H    14    H     9     4.48144
            H    13    H     7     2.42066


          SCF CALCULATIONS        =       1394
 
          WALL-CLOCK TIME         =          4.777 SECONDS
          COMPUTATION TIME        =         18.938 SECONDS



       FINAL  POINT  AND  DERIVATIVES

   PARAMETER     ATOM    TYPE            VALUE        GRADIENT
      1          1  C    CARTESIAN X    -0.759787      0.187900  KCAL/ANGSTROM
      2          1  C    CARTESIAN Y    -1.195811     -0.164680  KCAL/ANGSTROM
      3          1  C    CARTESIAN Z     0.247355      1.685988  KCAL/ANGSTROM
      4          2  C    CARTESIAN X     0.654982     -1.062630  KCAL/ANGSTROM
      5          2  C    CARTESIAN Y    -1.196354     -0.550707  KCAL/ANGSTROM
      6          2  C    CARTESIAN Z     0.182893      0.129176  KCAL/ANGSTROM
      7          3  C    CARTESIAN X     1.360221      0.251052  KCAL/ANGSTROM
      8          3  C    CARTESIAN Y    -0.015881      1.280328  KCAL/ANGSTROM
      9          3  C    CARTESIAN Z     0.178682     -0.377674  KCAL/ANGSTROM
     10          4  C    CARTESIAN X     0.689243      0.911547  KCAL/ANGSTROM
     11          4  C    CARTESIAN Y     1.229522      0.315822  KCAL/ANGSTROM
     12          4  C    CARTESIAN Z     0.244214      2.003643  KCAL/ANGSTROM
     13          5  C    CARTESIAN X    -0.437154     -1.146895  KCAL/ANGSTROM
     14          5  C    CARTESIAN Y     1.510342     -0.818580  KCAL/ANGSTROM
     15          5  C    CARTESIAN Z    -0.489274     -0.925923  KCAL/ANGSTROM
     16          6  C    CARTESIAN X    -1.538073     -1.468805  KCAL/ANGSTROM
     17          6  C    CARTESIAN Y    -0.341414      0.471763  KCAL/ANGSTROM
     18          6  C    CARTESIAN Z    -0.493637     -0.617723  KCAL/ANGSTROM
     19          7  H    CARTESIAN X    -1.223912     -0.256977  KCAL/ANGSTROM
     20          7  H    CARTESIAN Y    -1.839423      0.784280  KCAL/ANGSTROM
     21          7  H    CARTESIAN Z     0.996215      0.658205  KCAL/ANGSTROM
     22          8  H    CARTESIAN X     1.184473     -0.017796  KCAL/ANGSTROM
     23          8  H    CARTESIAN Y    -2.136575     -0.405570  KCAL/ANGSTROM
     24          8  H    CARTESIAN Z     0.335404     -1.578673  KCAL/ANGSTROM
     25          9  H    CARTESIAN X     2.439243     -0.010189  KCAL/ANGSTROM
     26          9  H    CARTESIAN Y    -0.034952      0.160321  KCAL/ANGSTROM
     27          9  H    CARTESIAN Z     0.328910     -1.540448  KCAL/ANGSTROM
     28         10  H    CARTESIAN X     1.040888     -0.717114  KCAL/ANGSTROM
     29         10  H    CARTESIAN Y     1.943787     -0.674419  KCAL/ANGSTROM
     30         10  H    CARTESIAN Z     0.989535      0.634552  KCAL/ANGSTROM
     31         11  H    CARTESIAN X    -0.454564     -0.136483  KCAL/ANGSTROM
     32         11  H    CARTESIAN Y     1.332612      0.214561  KCAL/ANGSTROM
     33         11  H    CARTESIAN Z    -1.557253      0.419930  KCAL/ANGSTROM
     34         12  H    CARTESIAN X    -1.110594      2.561785  KCAL/ANGSTROM
     35         12  H    CARTESIAN Y     2.298129      2.144218  KCAL/ANGSTROM
     36         12  H    CARTESIAN Z    -0.190609     -1.293730  KCAL/ANGSTROM
     37         13  H    CARTESIAN X    -1.378532     -0.018282  KCAL/ANGSTROM
     38         13  H    CARTESIAN Y    -0.242828      0.008996  KCAL/ANGSTROM
     39         13  H    CARTESIAN Z    -1.560253      0.634833  KCAL/ANGSTROM
     40         14  H    CARTESIAN X    -2.551571      0.279819  KCAL/ANGSTROM
     41         14  H    CARTESIAN Y    -0.120216     -3.103285  KCAL/ANGSTROM
     42         14  H    CARTESIAN Z    -0.203074     -1.355809  KCAL/ANGSTROM




   ATOM                 CHEMICAL                   X               Y               Z
  NUMBER                 SYMBOL               (ANGSTROMS)     (ANGSTROMS)     (ANGSTROMS)
 
     1       C(HETATM    1  C1  HET A   1)   -0.75978650  *  -1.19581146  *   0.24735473  *
     2       C(HETATM    2  C2  HET A   1)    0.65498210  *  -1.19635405  *   0.18289273  *
     3       C(HETATM    3  C3  HET A   1)    1.36022057  *  -0.01588115  *   0.17868228  *
     4       C(HETATM    4  C4  HET A   1)    0.68924341  *   1.22952247  *   0.24421396  *
     5       C(HETATM    5  C5  HET A   1)   -0.43715351  *   1.51034196  *  -0.48927432  *
     6       C(HETATM    6  C6  HET A   1)   -1.53807324  *  -0.34141396  *  -0.49363697  *
     7       H(HETATM    7  H1  HET A   1)   -1.22391200  *  -1.83942320  *   0.99621519  *
     8       H(HETATM    8  H2  HET A   1)    1.18447325  *  -2.13657456  *   0.33540361  *
     9       H(HETATM    9  H3  HET A   1)    2.43924290  *  -0.03495237  *   0.32890969  *
    10       H(HETATM   10  H4  HET A   1)    1.04088790  *   1.94378677  *   0.98953540  *
    11       H(HETATM   11 1H5  HET A   1)   -0.45456402  *   1.33261175  *  -1.55725295  *
    12       H(HETATM   12 2H5  HET A   1)   -1.11059427  *   2.29812947  *  -0.19060897  *
    13       H(HETATM   13 1H6  HET A   1)   -1.37853205  *  -0.24282849  *  -1.56025295  *
    14       H(HETATM   14 2H6  HET A   1)   -2.55157109  *  -0.12021628  *  -0.20307403  *

                             CARTESIAN COORDINATES

   1    C       -0.759786505    -1.195811464     0.247354728
   2    C        0.654982096    -1.196354048     0.182892732
   3    C        1.360220569    -0.015881150     0.178682280
   4    C        0.689243405     1.229522470     0.244213956
   5    C       -0.437153512     1.510341961    -0.489274318
   6    C       -1.538073235    -0.341413955    -0.493636971
   7    H       -1.223911999    -1.839423196     0.996215194
   8    H        1.184473252    -2.136574562     0.335403611
   9    H        2.439242897    -0.034952366     0.328909694
  10    H        1.040887896     1.943786769     0.989535400
  11    H       -0.454564015     1.332611754    -1.557252954
  12    H       -1.110594266     2.298129470    -0.190608967
  13    H       -1.378532045    -0.242828486    -1.560252954
  14    H       -2.551571086    -0.120216280    -0.203074028


           Empirical Formula: C6 H8  =    14 atoms



      MOLECULAR POINT GROUP   :   Cs  


                  EIGENVALUES  
 -29.54457 -26.09851 -25.42531 -21.44706 -20.37294 -17.25937 -16.71441 -15.53704
 -14.95001 -14.47466 -12.71482 -12.60288 -12.12156 -11.78124  -9.22294  -8.70298
   0.21159   0.28722   2.15707   4.73687   4.92843   5.39330   5.41860   5.88379
   5.95441   6.05602   6.07554   6.29520   6.36829   6.40167   6.41572   6.62960


              NET ATOMIC CHARGES AND DIPOLE CONTRIBUTIONS

  ATOM NO.                 TYPE                        CHARGE      No. of ELECS.   s-Pop       p-Pop       
    1          C(HETATM    1  C1  HET A   1)          -0.168454        4.1685     1.07916     3.08929
    2          C(HETATM    2  C2  HET A   1)          -0.153980        4.1540     1.08242     3.07156
    3          C(HETATM    3  C3  HET A   1)          -0.154149        4.1541     1.08240     3.07175
    4          C(HETATM    4  C4  HET A   1)          -0.168090        4.1681     1.07917     3.08891
    5          C(HETATM    5  C5  HET A   1)          -0.260475        4.2605     1.10321     3.15726
    6          C(HETATM    6  C6  HET A   1)          -0.259743        4.2597     1.10308     3.15667
    7          H(HETATM    7  H1  HET A   1)           0.149209        0.8508     0.85079
    8          H(HETATM    8  H2  HET A   1)           0.147081        0.8529     0.85292
    9          H(HETATM    9  H3  HET A   1)           0.146997        0.8530     0.85300
   10          H(HETATM   10  H4  HET A   1)           0.149078        0.8509     0.85092
   11          H(HETATM   11 1H5  HET A   1)           0.151364        0.8486     0.84864
   12          H(HETATM   12 2H5  HET A   1)           0.134925        0.8651     0.86508
   13          H(HETATM   13 1H6  HET A   1)           0.151289        0.8487     0.84871
   14          H(HETATM   14 2H6  HET A   1)           0.134948        0.8651     0.86505

          NET CHARGE ON RESIDUES

      Residue         Charge  Anion or
                              Cation?
      HET A   1       +0.000
 


 DIPOLE           X         Y         Z       TOTAL
 POINT-CHG.    -0.246     0.151    -0.066     0.296
 HYBRID        -0.097     0.062     0.022     0.117
 SUM           -0.343     0.213    -0.044     0.406


          ATOMIC ORBITAL ELECTRON POPULATIONS

                   Atom                  s        px        py        pz   
   C(HETATM    1  C1  HET A   1)   1.07916   1.00115   1.02622   1.06193
   C(HETATM    2  C2  HET A   1)   1.08242   1.00671   1.04478   1.02007
   C(HETATM    3  C3  HET A   1)   1.08240   1.06930   0.98235   1.02010
   C(HETATM    4  C4  HET A   1)   1.07917   1.00260   1.02435   1.06197
   C(HETATM    5  C5  HET A   1)   1.10321   1.00829   1.05546   1.09351
   C(HETATM    6  C6  HET A   1)   1.10308   1.08602   0.97761   1.09304
   H(HETATM    7  H1  HET A   1)   0.85079
   H(HETATM    8  H2  HET A   1)   0.85292
   H(HETATM    9  H3  HET A   1)   0.85300
   H(HETATM   10  H4  HET A   1)   0.85092
   H(HETATM   11 1H5  HET A   1)   0.84864
   H(HETATM   12 2H5  HET A   1)   0.86508
   H(HETATM   13 1H6  HET A   1)   0.84871
   H(HETATM   14 2H6  HET A   1)   0.86505

 **********************
 *                    *
 * JOB ENDED NORMALLY *
 *                    *
 **********************



 TOTAL JOB TIME:             4.80 SECONDS

 == MOPAC DONE ==
