 *******************************************************************************
 ** Site#: 9602  E-mail support:    MrMOPAC@ATT.net    Version 17.216W 64BITS **
 *******************************************************************************
 ** Cite this program as: MOPAC2016, Version: 17.216W, James J. P. Stewart,   **
 ** Stewart Computational Chemistry, web: HTTP://OpenMOPAC.net. Days left: 376**
 *******************************************************************************
 **                                                                           **
 **                                MOPAC2016                                  **
 **                                                                           **
 *******************************************************************************

                              PM7 CALCULATION RESULTS


 *******************************************************************************
 *  CALCULATION DONE:                                Fri Aug 04 16:54:53 2017  *
 *  START_RES  - STARTING RESIDUE NUMBERS DEFINED
 *  Keyword:   START_RES=(1E 16F 150G 250C 298F-300 297G-299) 
 *  CHAINS     - PDB CHAIN LETTERS EXPLICITLY DEFINED
 *  Keyword:   CHAINS=(EFGCFGEFGC) 
 *  MOZYME     - USE LOCALIZED M.O.s IN SOLVING THE SCF EQUATIONS
 *  NOOPT      - DO NOT OPTIMIZE ANY COORDINATES
 *  OPT-H      - OPTIMIZE COORDINATES OF ATOMS OF TYPE H
 *
 *
 *
 *                 CHARGE ON SYSTEM =    -1
 *
 *
 *
 *  EPS= 78.40 - USE ANDREAS KLAMT'S COSMO IMPLICIT SOLVATION MODEL
 *  T=         - A TIME OF 172800.0 SECONDS REQUESTED
 *  DUMP=N     - RESTART FILE WRITTEN EVERY  7200.000 SECONDS
 *  OUTPUT     - MINIMIZE OUTPUT
 *  HTML       - WRITE HTML SCRIPT TO READ PDB FILE USING JSMOL
 *******************************************************************************
 START_RES=(1E 16F 150G 250C 298F-300 297G-299)  CHAINS=(EFGCFGEFGC) html noopt opt-h mozyme output            charge=-1 EPS=78.4
 Adding hydrogen atoms to PDB file 8GCH, and ionizing various sites.

 

 General Reference for PM7:
 "Optimization of Parameters for Semiempirical Methods VI: More Modifications to the 
 NDDO Approximations and Re-optimization of Parameters", J. J. P. Stewart, J. Mol. Mod., 1:32, 19 (2013)
 http://www.springerlink.com/openurl.asp?genre=article&id=doi:10.1007/s00894-012-1667-x

           Empirical Formula: C1115 H2451 N302 O705 S16  =  4589 atoms

 Hydrogen atom 1117 bonds to "ATOM   1107  NZ  LYS F  82 " and "HETATM 4154  O   HOH F 607 "
            (Keeping bond to "ATOM   1107  NZ  LYS F  82 ")

   Ion Atom No.           Label               Charge (Distances are between charged sites predicted by Lewis structure theory)
 
    1   N  147   (ATOM    148  N   ILE F  16)   +1  (2.6 Angstroms from anion  O 2728, Label: ATOM   2730  OD2 ASP G 194)
    2   N 1529   (ATOM   1530  NZ  LYS F 107)   +1  (2.9 Angstroms from anion  O 3458, Label: ATOM   3460  OXT ASN G 245)
    3   C 2142   (ATOM   2144  CZ  ARG G 154)   +1  (4.8 Angstroms from anion  O  229, Label: ATOM    230  OE2 GLU F  21)
 
    1   O  229   (ATOM    230  OE2 GLU F  21)   -1  (4.8 Angstroms from cation  C 2142, Label: ATOM   2144  CZ  ARG G 154)
    2   O 1445   (ATOM   1446  OD2 ASP F 102)   -1
    3   O 2728   (ATOM   2730  OD2 ASP G 194)   -1  (2.6 Angstroms from cation  N  147, Label: ATOM    148  N   ILE F  16)
    4   O 3458   (ATOM   3460  OXT ASN G 245)   -1  (2.9 Angstroms from cation  N 1529, Label: ATOM   1530  NZ  LYS F 107)

          COMPUTED CHARGE ON SYSTEM: -1

          Geometry optimization using L-BFGS
