 *******************************************************************************
 ** Site#: 10005        For non-commercial use only     Version 15.317W 64BITS**
 *******************************************************************************
 ** Cite this work as:                                                        **
 **                                                                           **
 ** (a) MOPAC2012, James J. P. Stewart, Stewart Computational Chemistry,      **
 **  Version 15.317W web: HTTP://OpenMOPAC.net         Days remaining: 365    **
 **                                                                           **
 **                                 AND                                       **
 **                                                                           **
 ** (b) Maia, J.D.C., et al., J. Chem. Theory Comput. 2012, 8, 3072-3081.     **
 **                DOI: 10.1021/ct3004645.                                    **
 *******************************************************************************
 **                                                                           **
 **                                MOPAC2012                                  **
 **                                                                           **
 *******************************************************************************

                              PM7 CALCULATION RESULTS


 *******************************************************************************
 *  CALCULATION DONE:                                Fri Nov 13 09:50:28 2015  *
 *  GEO_DAT    - DATA SET GEOMETRY IS IN FILE "LOCATE_TS.ARC"
 *  TS         - USE EF ROUTINE FOR TS SEARCH
 *  T=         - A TIME OF 172800.0 SECONDS REQUESTED
 *  DUMP=N     - RESTART FILE WRITTEN EVERY  7200.000 SECONDS
 *  GNORM=     - EXIT WHEN GRADIENT NORM DROPS BELOW   2.00    
 *******************************************************************************
TS gnorm=2   geo_dat="Locate_TS.arc"
 Refine transition state for Cyclobutadiene_1 <=> Cyclobutadiene_2

   ATOM                 CHEMICAL                   X               Y               Z
  NUMBER                 SYMBOL               (ANGSTROMS)     (ANGSTROMS)     (ANGSTROMS)
 
     1       C(HETATM    1  C   HET A   1)   -0.30647654  *  -0.79828900  *   0.92018611  *
     2       H(HETATM    2 1HT  HET A   1)    1.10490161  *  -0.93769374  *   1.07286727  *
     3       C(HETATM    3  C   HET A   1)    0.58917234  *   0.38837622  *   0.94151406  *
     4       C(HETATM    4  C   HET A   1)    0.70806967      0.82680316     -0.39840438   
     5       H(HETATM    5 2HT  HET A   1)   -0.79967176     -1.21629469      1.77198050   
     6       H(HETATM    6 1HT  HET A   1)   -1.32440312     -1.76948690     -0.78006717   
     7       H(HETATM    7 2HT  HET A   1)   -0.12237366      0.05179913     -2.29050424   
     8       H(HETATM    8 3HT  HET A   1)    1.26789902      1.67865716     -0.71967382   
     9       H(HETATM    9 4HT  HET A   1)    0.83110802      0.96562733      1.81074722   
    10       C(HETATM   10  C   HET A   1)   -0.66872105     -1.00050701     -0.43063804   
    11       C(HETATM   11  C   HET A   1)   -0.03946823     -0.02879316     -1.22414341   
 

     ===================== shared-memory parallel CPU Section ======================
     **                                                                           **
     **  MOPAC calculations will run in shared-memory parallel CPUs               **
     **                                                                           **
     **  Number of Threads =  4                                                   **
     **                                                                           **
     **                                                                           **
     **  For information on this work, see:                                       **
     **                                                                           **
     **  Maia, J.D.C., et al., J. Chem. Theory Comput. 2012, 8, 3072-3081.        **
     **        DOI: 10.1021/ct3004645.                                            **
     **                                                                           **
     ===================== shared-memory parallel CPU Section ======================
      


 General Reference for PM7:
 "Optimization of Parameters for Semiempirical Methods VI: More Modifications to the 
 NDDO Approximations and Re-optimization of Parameters", J. J. P. Stewart, J. Mol. Mod., 1:32, 19 (2013)
 http://www.springerlink.com/openurl.asp?genre=article&id=doi:10.1007/s00894-012-1667-x

           Empirical Formula: C5 H6  =    11 atoms



      MOLECULAR POINT GROUP   :   C1  


      RHF CALCULATION, NO. OF DOUBLY OCCUPIED LEVELS =   13

      Transition state refinement using EF

          HESSIAN CALCULATED NUMERICALLY

 CYCLE:     1 TIME:   0.031 TIME LEFT:  2.00D  GRAD.:     3.038 HEAT:  71.56924
 CYCLE:     2 TIME:   0.000 TIME LEFT:  2.00D  GRAD.:     0.093 HEAT:  71.55316

     GRADIENT =  0.09259  IS LESS THAN CUTOFF =  2.00000



 -------------------------------------------------------------------------------
TS gnorm=2   geo_dat="Locate_TS.arc"
 Refine transition state for Cyclobutadiene_1 <=> Cyclobutadiene_2



     GEOMETRY OPTIMISED USING EIGENVECTOR FOLLOWING (TS).     
     SCF FIELD WAS ACHIEVED                                   


                              PM7 CALCULATION
                                                       MOPAC2012 (Version: 15.317W)
                                                       Fri Nov 13 09:50:28 2015
                                                       No. of days left = 365




          FINAL HEAT OF FORMATION =         71.55316 KCAL/MOL =     299.37840 KJ/MOL


          TOTAL ENERGY            =       -692.36543 EV
          ELECTRONIC ENERGY       =      -2612.19692 EV  POINT GROUP:     C1  
          CORE-CORE REPULSION     =       1919.83149 EV
          COSMO AREA              =        107.25 SQUARE ANGSTROMS
          COSMO VOLUME            =         94.34 CUBIC ANGSTROMS

          GRADIENT NORM           =          0.09259
          IONIZATION POTENTIAL    =          9.039276 EV
          HOMO LUMO ENERGIES (EV) =         -9.039  0.622
          NO. OF FILLED LEVELS    =         13
          MOLECULAR WEIGHT        =         66.102

          MOLECULAR DIMENSIONS (Angstroms)

            Atom       Atom       Distance
            H     8    H     5     4.34326
            H     9    H     6     4.12092
            H     7    H     2     1.45520


          SCF CALCULATIONS        =         12
 
          WALL-CLOCK TIME         =          0.047 SECONDS
          COMPUTATION TIME        =          0.094 SECONDS




   ATOM                 CHEMICAL                   X               Y               Z
  NUMBER                 SYMBOL               (ANGSTROMS)     (ANGSTROMS)     (ANGSTROMS)
 
     1       C(HETATM    1  C   HET A   1)   -0.30848145  *  -0.79560711  *   0.92112095  *
     2       H(HETATM    2 1HT  HET A   1)    1.10139645  *  -0.92711478  *   1.08404381  *
     3       C(HETATM    3  C   HET A   1)    0.58498543  *   0.39447310  *   0.94208908  *
     4       C(HETATM    4  C   HET A   1)    0.70806967      0.82680316     -0.39840438   
     5       H(HETATM    5 2HT  HET A   1)   -0.79967176     -1.21629469      1.77198050   
     6       H(HETATM    6 1HT  HET A   1)   -1.32440312     -1.76948690     -0.78006717   
     7       H(HETATM    7 2HT  HET A   1)   -0.12237366      0.05179913     -2.29050424   
     8       H(HETATM    8 3HT  HET A   1)    1.26789902      1.67865716     -0.71967382   
     9       H(HETATM    9 4HT  HET A   1)    0.83110802      0.96562733      1.81074722   
    10       C(HETATM   10  C   HET A   1)   -0.66872105     -1.00050701     -0.43063804   
    11       C(HETATM   11  C   HET A   1)   -0.03946823     -0.02879316     -1.22414341   

                             CARTESIAN COORDINATES

   1    C       -0.308481453    -0.795607115     0.921120953
   2    H        1.101396453    -0.927114783     1.084043806
   3    C        0.584985433     0.394473096     0.942089084
   4    C        0.708069670     0.826803160    -0.398404380
   5    H       -0.799671760    -1.216294690     1.771980500
   6    H       -1.324403120    -1.769486900    -0.780067170
   7    H       -0.122373660     0.051799130    -2.290504240
   8    H        1.267899020     1.678657160    -0.719673820
   9    H        0.831108020     0.965627330     1.810747220
  10    C       -0.668721050    -1.000507010    -0.430638040
  11    C       -0.039468230    -0.028793160    -1.224143410


           Empirical Formula: C5 H6  =    11 atoms



      MOLECULAR POINT GROUP   :   C1  


                  EIGENVALUES  
 -31.20927 -24.53076 -23.95070 -18.66324 -18.64888 -17.57947 -14.99634 -13.42248
 -12.88364 -12.85822 -12.85383  -9.76673  -9.03928   0.62242   1.30966   2.99216
   3.73872   4.51580   4.99984   5.67560   5.84806   6.05587   6.18527   6.46530
   6.57279   6.60323


              NET ATOMIC CHARGES AND DIPOLE CONTRIBUTIONS

  ATOM NO.                 TYPE                        CHARGE      No. of ELECS.   s-Pop       p-Pop       
    1          C(HETATM    1  C   HET A   1)          -0.252682        4.2527     1.07403     3.17865
    2          H(HETATM    2 1HT  HET A   1)           0.292938        0.7071     0.70706
    3          C(HETATM    3  C   HET A   1)          -0.251892        4.2519     1.07399     3.17790
    4          C(HETATM    4  C   HET A   1)          -0.196764        4.1968     1.08126     3.11551
    5          H(HETATM    5 2HT  HET A   1)           0.163108        0.8369     0.83689
    6          H(HETATM    6 1HT  HET A   1)           0.150856        0.8491     0.84914
    7          H(HETATM    7 2HT  HET A   1)           0.148530        0.8515     0.85147
    8          H(HETATM    8 3HT  HET A   1)           0.150905        0.8491     0.84910
    9          H(HETATM    9 4HT  HET A   1)           0.163179        0.8368     0.83682
   10          C(HETATM   10  C   HET A   1)          -0.196408        4.1964     1.08114     3.11527
   11          C(HETATM   11  C   HET A   1)          -0.171770        4.1718     1.08535     3.08642
 DIPOLE           X         Y         Z       TOTAL
 POINT-CHG.     1.108    -0.854     1.147     1.809
 HYBRID         0.284    -0.219     0.209     0.415
 SUM            1.391    -1.073     1.356     2.219


          ATOMIC ORBITAL ELECTRON POPULATIONS

                   Atom                  s        px        py        pz   
   C(HETATM    1  C   HET A   1)   1.07403   0.97711   1.13133   1.07021
   H(HETATM    2 1HT  HET A   1)   0.70706
   C(HETATM    3  C   HET A   1)   1.07399   1.16099   0.94510   1.07181
   C(HETATM    4  C   HET A   1)   1.08126   1.06850   1.06545   0.98156
   H(HETATM    5 2HT  HET A   1)   0.83689
   H(HETATM    6 1HT  HET A   1)   0.84914
   H(HETATM    7 2HT  HET A   1)   0.85147
   H(HETATM    8 3HT  HET A   1)   0.84910
   H(HETATM    9 4HT  HET A   1)   0.83682
   C(HETATM   10  C   HET A   1)   1.08114   1.06708   1.06561   0.98258
   C(HETATM   11  C   HET A   1)   1.08535   1.01675   1.00316   1.06651
 *******************************************************************************
 ** Site#: 10005        For non-commercial use only     Version 15.317W 64BITS**
 *******************************************************************************
 ** Cite this work as:                                                        **
 **                                                                           **
 ** (a) MOPAC2012, James J. P. Stewart, Stewart Computational Chemistry,      **
 **  Version 15.317W web: HTTP://OpenMOPAC.net         Days remaining: 365    **
 **                                                                           **
 **                                 AND                                       **
 **                                                                           **
 ** (b) Maia, J.D.C., et al., J. Chem. Theory Comput. 2012, 8, 3072-3081.     **
 **                DOI: 10.1021/ct3004645.                                    **
 *******************************************************************************
 **                                                                           **
 **                                MOPAC2012                                  **
 **                                                                           **
 *******************************************************************************

                              PM7 CALCULATION RESULTS


 *******************************************************************************
 *  CALCULATION DONE:                                Fri Nov 13 09:50:28 2015  *
 *  IRC=N      - INTRINSIC REACTION COORDINATE -1 DEFINED
 *  DRC        - DYNAMIC REACTION COORDINATE CALCULATION
 *  OLDGEO     - PREVIOUS GEOMETRY TO BE USED
 *  T=         - A TIME OF 172800.0 SECONDS REQUESTED
 *  DUMP=N     - RESTART FILE WRITTEN EVERY  7200.000 SECONDS
 *  CYCLES=    - DO A MAXIMUM OF   200 STEPS
 *  GNORM=     - EXIT WHEN GRADIENT NORM DROPS BELOW   0.00    
 *  T-PRIOR    - TIME TAKES PRIORITY IN DRC
 *******************************************************************************
oldgeo   IRC=-1* DRC HTML T-priority=1 cycles=200 gnorm=0
 Reaction path for Cyclobutadiene_1 <=> Cyclobutadiene_2

   ATOM                 CHEMICAL                   X               Y               Z
  NUMBER                 SYMBOL               (ANGSTROMS)     (ANGSTROMS)     (ANGSTROMS)
 
     1       C(HETATM    1  C   HET A   1)   -0.30848145  *  -0.79560711  *   0.92112095  *
     2       H(HETATM    2 1HT  HET A   1)    1.10139645  *  -0.92711478  *   1.08404381  *
     3       C(HETATM    3  C   HET A   1)    0.58498543  *   0.39447310  *   0.94208908  *
     4       C(HETATM    4  C   HET A   1)    0.70806967      0.82680316     -0.39840438   
     5       H(HETATM    5 1HT  HET A   1)   -0.79967176     -1.21629469      1.77198050   
     6       H(HETATM    6 2HT  HET A   1)   -1.32440312     -1.76948690     -0.78006717   
     7       H(HETATM    7 3HT  HET A   1)   -0.12237366      0.05179913     -2.29050424   
     8       H(HETATM    8 4HT  HET A   1)    1.26789902      1.67865716     -0.71967382   
     9       H(HETATM    9 5HT  HET A   1)    0.83110802      0.96562733      1.81074722   
    10       C(HETATM   10  C   HET A   1)   -0.66872105     -1.00050701     -0.43063804   
    11       C(HETATM   11  C   HET A   1)   -0.03946823     -0.02879316     -1.22414341   
 

 General Reference for PM7:
 "Optimization of Parameters for Semiempirical Methods VI: More Modifications to the 
 NDDO Approximations and Re-optimization of Parameters", J. J. P. Stewart, J. Mol. Mod., 1:32, 19 (2013)
 http://www.springerlink.com/openurl.asp?genre=article&id=doi:10.1007/s00894-012-1667-x

           Empirical Formula: C5 H6  =    11 atoms



      MOLECULAR POINT GROUP   :   C1  


      RHF CALCULATION, NO. OF DOUBLY OCCUPIED LEVELS =   13



          HEAT OF FORMATION =      71.553160 KCALS/MOLE


          GRADIENT NORM =   4.23539

          MOLECULAR WEIGHT =   66.10


    FOR POINT-GROUP C1   THERE ARE   1 UNIQUE SYMMETRY FUNCTIONS.

 STEP:   1 TIME =     0.00 SECS, INTEGRAL =      0.00 TIME LEFT: 172800.00
 STEP:   2 TIME =     0.00 SECS, INTEGRAL =      0.00 TIME LEFT: 172800.00
 STEP:   3 TIME =     0.02 SECS, INTEGRAL =      0.02 TIME LEFT: 172799.98
 STEP:   4 TIME =     0.00 SECS, INTEGRAL =      0.02 TIME LEFT: 172799.98
 STEP:   5 TIME =     0.00 SECS, INTEGRAL =      0.02 TIME LEFT: 172799.98
 STEP:   6 TIME =     0.00 SECS, INTEGRAL =      0.02 TIME LEFT: 172799.98
 STEP:   7 TIME =     0.02 SECS, INTEGRAL =      0.03 TIME LEFT: 172799.97
 STEP:   8 TIME =     0.00 SECS, INTEGRAL =      0.03 TIME LEFT: 172799.97
 STEP:   9 TIME =     0.00 SECS, INTEGRAL =      0.03 TIME LEFT: 172799.97
 STEP:  10 TIME =     0.00 SECS, INTEGRAL =      0.03 TIME LEFT: 172799.97
 STEP:  11 TIME =     0.00 SECS, INTEGRAL =      0.03 TIME LEFT: 172799.97
 STEP:  12 TIME =     0.02 SECS, INTEGRAL =      0.05 TIME LEFT: 172799.95
 STEP:  13 TIME =     0.00 SECS, INTEGRAL =      0.05 TIME LEFT: 172799.95
 STEP:  14 TIME =     0.00 SECS, INTEGRAL =      0.05 TIME LEFT: 172799.95
 STEP:  15 TIME =     0.00 SECS, INTEGRAL =      0.05 TIME LEFT: 172799.95
 STEP:  16 TIME =     0.02 SECS, INTEGRAL =      0.06 TIME LEFT: 172799.94
 STEP:  17 TIME =     0.00 SECS, INTEGRAL =      0.06 TIME LEFT: 172799.94
 STEP:  18 TIME =     0.00 SECS, INTEGRAL =      0.06 TIME LEFT: 172799.94
 STEP:  19 TIME =     0.00 SECS, INTEGRAL =      0.06 TIME LEFT: 172799.94
 STEP:  20 TIME =     0.02 SECS, INTEGRAL =      0.08 TIME LEFT: 172799.92
 STEP:  21 TIME =     0.00 SECS, INTEGRAL =      0.08 TIME LEFT: 172799.92
 STEP:  22 TIME =     0.00 SECS, INTEGRAL =      0.08 TIME LEFT: 172799.92
 STEP:  23 TIME =     0.00 SECS, INTEGRAL =      0.08 TIME LEFT: 172799.92
 STEP:  24 TIME =     0.00 SECS, INTEGRAL =      0.08 TIME LEFT: 172799.92
 STEP:  25 TIME =     0.02 SECS, INTEGRAL =      0.09 TIME LEFT: 172799.91
 STEP:  26 TIME =     0.00 SECS, INTEGRAL =      0.09 TIME LEFT: 172799.91
 STEP:  27 TIME =     0.00 SECS, INTEGRAL =      0.09 TIME LEFT: 172799.91
 STEP:  28 TIME =     0.00 SECS, INTEGRAL =      0.09 TIME LEFT: 172799.91
 STEP:  29 TIME =     0.00 SECS, INTEGRAL =      0.09 TIME LEFT: 172799.91
 STEP:  30 TIME =     0.02 SECS, INTEGRAL =      0.11 TIME LEFT: 172799.89
 STEP:  31 TIME =     0.00 SECS, INTEGRAL =      0.11 TIME LEFT: 172799.89
 STEP:  32 TIME =     0.00 SECS, INTEGRAL =      0.11 TIME LEFT: 172799.89
 STEP:  33 TIME =     0.00 SECS, INTEGRAL =      0.11 TIME LEFT: 172799.89
           INITIAL VELOCITY IN DRC (Angstroms/Femtosecond)
        -0.06558         0.00954        -0.01273
         0.31109         0.50347        -0.01507
         0.03602        -0.05511         0.01453
        -0.00790        -0.00263        -0.02009
         0.08004        -0.05313        -0.00315
         0.00776        -0.00321        -0.00893
         0.00096        -0.00495        -0.00147
        -0.00584         0.00454         0.00932
        -0.07734         0.03602         0.00544
         0.00039        -0.00711         0.02093
         0.01049         0.01480        -0.00148
 THE VIBRATIONAL FREQUENCY ( -1314.56CM(-1)) IS TOO SMALL
 FOR ONE QUANTUM TO BE USED
 INSTEAD 0.3KCAL/MOLE WILL BE USED TO START THE IRC

 TIME PRIORITY, INTERVAL = 1.00 FEMTOSECONDS



 FEMTOSECONDS  POINT  POTENTIAL + KINETIC  =   TOTAL     ERROR    REF%   MOVEMENT
     0.000       1    71.55316    0.30000    71.85316   0.00000     1   %  0.0000
     1.000       1    71.53383   -0.13241    71.40143  -0.45173     2   %  0.0226
     2.000       1    71.43397    0.30997    71.74394  -0.10922     3   %  0.0471
     3.000       1    71.25357    1.62712    72.88069   1.02754     4   %  0.0732
     4.000      15    70.87655    0.97522    71.85177  -0.00139     5   %  0.1178
     5.000      20    70.21713    1.63243    71.84956  -0.00359     6   %  0.1662
     6.000      25    69.04974    2.79938    71.84912  -0.00403     7   %  0.2274
     7.000      30    67.07791    4.77081    71.84872  -0.00444     8   %  0.3062
     8.000      35    63.96797    7.88162    71.84958  -0.00356     9   %  0.4079
     9.000      39    59.50757   12.33771    71.84528  -0.00786    10   %  0.5372
    10.000      43    53.85193   17.99897    71.85090  -0.00223    11   %  0.6971
    11.000      48    47.69663   24.15525    71.85188  -0.00123    12   %  0.8878
    12.000      57    42.16072   29.69189    71.85260  -0.00049    13   %  1.1065
    13.000      67    38.41256   33.44015    71.85271  -0.00036    14   %  1.3470
    14.000      77    37.24780   34.60497    71.85277  -0.00028    15   %  1.6006
    15.000      87    38.80683   33.04593    71.85276  -0.00027    16   %  1.8569
    16.000      97    42.49819   29.35461    71.85281  -0.00020    17   %  2.1048
    17.000     107    47.20362   24.64902    71.85264  -0.00034    18   %  2.3339
    18.000     115    51.72488   20.12772    71.85260  -0.00037    19   %  2.5356
    19.000     125    55.23541   16.61736    71.85277  -0.00018    20   %  2.7042
    20.000     135    57.51288   14.33997    71.85285  -0.00010    21   %  2.8365
    21.000     145    58.87760   12.97513    71.85273  -0.00020    22   %  2.9326
    22.000     155    59.82789   12.02474    71.85264  -0.00029    23   %  2.9949
    23.000     165    60.45383   11.39865    71.85248  -0.00044    24   %  3.0275
    24.000     175    60.08789   11.76458    71.85247  -0.00044    25   %  3.0358
    25.000     182    57.87254   13.98046    71.85300   0.00010    26   %  3.0249
    26.000     191    54.00852   17.84452    71.85304   0.00015    27   %  2.9994
    27.000     201    50.08819   21.76464    71.85283  -0.00005    28   %  2.9623
    28.000     211    47.72841   24.12419    71.85261  -0.00026    29   %  2.9155
    29.000     221    47.15616   24.69623    71.85240  -0.00045    30   %  2.8596
    30.000     231    47.35642   24.49600    71.85241  -0.00042    31   %  2.7962
    31.000     241    47.20433   24.64819    71.85251  -0.00030    32   %  2.7311
    32.000     251    46.33919   25.51336    71.85255  -0.00024    33   %  2.6748
    33.000     261    45.40352   26.44902    71.85253  -0.00024    34   %  2.6371
    34.000     271    45.69265   26.15975    71.85240  -0.00036    35   %  2.6176
    35.000     281    48.14865   23.70343    71.85208  -0.00066    36   %  2.6150
    36.000     291    52.12223   19.72971    71.85194  -0.00079    37   %  2.6335
    37.000     300    55.34772   16.50411    71.85182  -0.00089    38   %  2.6789
    38.000     308    55.90113   15.95158    71.85271   0.00001    39   %  2.7543
    39.000     318    54.17982   17.67284    71.85265  -0.00004    40   %  2.8586
    40.000     328    52.33906   19.51353    71.85259  -0.00009    41   %  2.9876
    41.000     338    51.96306   19.88923    71.85228  -0.00038    42   %  3.1354
    42.000     348    52.86738   18.98485    71.85223  -0.00042    43   %  3.2932
    43.000     358    53.81418   18.03806    71.85224  -0.00039    44   %  3.4521
    44.000     368    53.69610   18.15618    71.85228  -0.00034    45   %  3.6052
    45.000     377    52.18898   19.66341    71.85239  -0.00022    46   %  3.7490
    46.000     387    49.93614   21.91630    71.85244  -0.00015    47   %  3.8832
    47.000     397    48.36888   23.48351    71.85239  -0.00019    48   %  4.0094
    48.000     407    48.88448   22.96767    71.85215  -0.00042    49   %  4.1293
    49.000     417    51.51327   20.33871    71.85198  -0.00057    50   %  4.2434
    50.000     427    54.49647   17.35574    71.85221  -0.00032    51   %  4.3501
    51.000     437    55.91458   15.93799    71.85258   0.00005    52   %  4.4463
    52.000     447    55.67974   16.17302    71.85276   0.00025    53   %  4.5280
    53.000     457    55.29940   16.55315    71.85254   0.00004    54   %  4.5910
    54.000     467    55.93925   15.91301    71.85226  -0.00023    55   %  4.6313
    55.000     477    57.35156   14.50071    71.85227  -0.00021    56   %  4.6460
    56.000     487    58.42024   13.43201    71.85225  -0.00022    57   %  4.6337
    57.000     495    58.14087   13.71154    71.85242  -0.00005    58   %  4.5939
    58.000     504    56.21406   15.63842    71.85247   0.00002    59   %  4.5252
    59.000     514    53.27837   18.57409    71.85246   0.00002    60   %  4.4281
    60.000     524    50.70947   21.14276    71.85223  -0.00020    61   %  4.3068
    61.000     534    49.67955   22.17233    71.85188  -0.00053    62   %  4.1684
    62.000     544    50.02636   21.82534    71.85171  -0.00069    63   %  4.0208
    63.000     554    50.46529   21.38663    71.85192  -0.00046    64   %  3.8693
    64.000     564    50.22047   21.63157    71.85204  -0.00033    65   %  3.7168
    65.000     574    49.83986   22.01214    71.85199  -0.00036    66   %  3.5644
    66.000     584    50.17820   21.67356    71.85176  -0.00058    67   %  3.4247
    67.000     594    51.26979   20.58190    71.85169  -0.00063    68   %  3.3357
    68.000     604    52.44674   19.40489    71.85163  -0.00068    69   %  3.2588
    69.000     614    53.09832   18.75348    71.85180  -0.00049    70   %  3.2077
    70.000     624    53.11531   18.73650    71.85181  -0.00047    71   %  3.1845
    71.000     634    52.84862   19.00320    71.85181  -0.00045    72   %  3.1653
    72.000     644    52.80940   19.04242    71.85182  -0.00044    73   %  3.1401
    73.000     654    53.24243   18.60935    71.85178  -0.00046    74   %  3.1154
    74.000     664    53.78245   18.06941    71.85185  -0.00037    75   %  3.1175
    75.000     674    53.69514   18.15688    71.85202  -0.00019    76   %  3.1270
    76.000     684    52.71568   19.13661    71.85229   0.00009    77   %  3.1284
    77.000     694    51.41626   20.43592    71.85218  -0.00001    78   %  3.1213
    78.000     704    50.50894   21.34314    71.85208  -0.00010    79   %  3.1224
    79.000     714    50.07564   21.77630    71.85193  -0.00023    80   %  3.1495
    80.000     724    49.67144   22.18051    71.85195  -0.00019    81   %  3.1733
    81.000     734    48.95685   22.89510    71.85195  -0.00018    82   %  3.1819
    82.000     744    48.09412   23.75799    71.85211  -0.00001    83   %  3.1730
    83.000     754    47.64058   24.21149    71.85208  -0.00002    84   %  3.1475
    84.000     764    48.12977   23.72211    71.85188  -0.00020    85   %  3.1073
    85.000     774    49.62810   22.22389    71.85199  -0.00007    86   %  3.0534
    86.000     784    51.52156   20.33026    71.85182  -0.00022    87   %  2.9867
    87.000     794    52.78710   19.06464    71.85174  -0.00030    88   %  2.9094
    88.000     804    52.77471   19.07719    71.85190  -0.00013    89   %  2.8302
    89.000     814    51.82855   20.02332    71.85187  -0.00014    90   %  2.7676
    90.000     824    50.94274   20.90903    71.85177  -0.00023    91   %  2.7296
    91.000     834    50.78926   21.06229    71.85155  -0.00043    92   %  2.7091
    92.000     844    51.23319   20.61825    71.85144  -0.00052    93   %  2.7040
    93.000     854    51.68810   20.16355    71.85165  -0.00031    94   %  2.7045
    94.000     864    51.74690   20.10474    71.85164  -0.00030    95   %  2.6942
    95.000     874    51.54374   20.30797    71.85171  -0.00021    96   %  2.6664
    96.000     884    51.67646   20.17530    71.85175  -0.00016    97   %  2.6232
    97.000     894    52.73260   19.11913    71.85173  -0.00017    98   %  2.5699
    98.000     904    54.68015   17.17142    71.85157  -0.00031    99   %  2.5101
    99.000     914    56.67572   15.17589    71.85161  -0.00026   100   %  2.4446
   100.000     924    57.68994   14.16181    71.85175  -0.00011   101   %  2.3771
   101.000     934    57.42936   14.42233    71.85169  -0.00017   102   %  2.3313
   102.000     944    56.48491   15.36666    71.85157  -0.00027   103   %  2.3358
   103.000     954    55.57644   16.27499    71.85143  -0.00040   104   %  2.3592
   104.000     964    54.87817   16.97327    71.85143  -0.00039   105   %  2.3698
   105.000     974    54.05892   17.79245    71.85137  -0.00044   106   %  2.3575
   106.000     984    52.72861   19.12284    71.85146  -0.00034   107   %  2.3235
   107.000     994    50.82118   21.03031    71.85149  -0.00029   108   %  2.2808
   108.000    1004    48.77120   23.08053    71.85173  -0.00003   109   %  2.2712
   109.000    1014    47.42592   24.42569    71.85160  -0.00015   110   %  2.3325
   110.000    1024    47.56306   24.28852    71.85158  -0.00015   111   %  2.4226
   111.000    1034    49.18600   22.66551    71.85151  -0.00020   112   %  2.5220
   112.000    1044    51.33413   20.51728    71.85141  -0.00029   113   %  2.6366
   113.000    1054    52.89853   18.95302    71.85155  -0.00013   114   %  2.7630
   114.000    1064    53.65898   18.19265    71.85163  -0.00004   115   %  2.8766
   115.000    1074    54.30368   17.54782    71.85149  -0.00017   116   %  2.9654
   116.000    1084    55.49078   16.36069    71.85147  -0.00018   117   %  3.0273
   117.000    1094    57.11008   14.74142    71.85151  -0.00013   118   %  3.0672
   118.000    1104    58.36082   13.49075    71.85157  -0.00006   119   %  3.1164
   119.000    1114    58.34058   13.51100    71.85158  -0.00004   120   %  3.1766
   120.000    1123    56.71203   15.13979    71.85182   0.00021   121   %  3.2151
   121.000    1133    54.10692   17.74472    71.85164   0.00004   122   %  3.2251
   122.000    1143    51.83816   20.01319    71.85135  -0.00024   123   %  3.2066
   123.000    1153    50.86912   20.98187    71.85099  -0.00058   124   %  3.1631
   124.000    1163    50.93105   20.91990    71.85095  -0.00061   125   %  3.1015
   125.000    1173    50.85018   21.00094    71.85112  -0.00042   126   %  3.0253
   126.000    1183    49.78957   22.06153    71.85110  -0.00043   127   %  2.9305
   127.000    1193    47.96942   23.88174    71.85116  -0.00035   128   %  2.8176
   128.000    1203    46.24444   25.60659    71.85104  -0.00046   129   %  2.6956
   129.000    1213    45.34372   26.50727    71.85098  -0.00049   130   %  2.5988
   130.000    1223    45.54341   26.30735    71.85076  -0.00070   131   %  2.5912
   131.000    1233    46.65522   25.19552    71.85074  -0.00070   132   %  2.6830
   132.000    1243    48.09668   23.75426    71.85094  -0.00048   133   %  2.8298
   133.000    1253    49.24590   22.60511    71.85102  -0.00039   134   %  2.9860
   134.000    1263    50.05000   21.80122    71.85122  -0.00017   135   %  3.1363
   135.000    1273    51.14874   20.70240    71.85115  -0.00023   136   %  3.2748
   136.000    1283    53.08405   18.76698    71.85103  -0.00033   137   %  3.3981
   137.000    1293    55.47233   16.37875    71.85108  -0.00028   138   %  3.5021
   138.000    1303    57.22803   14.62310    71.85114  -0.00021   139   %  3.5824
   139.000    1312    57.51137   14.33997    71.85134   0.00001   140   %  3.6362
   140.000    1322    56.27323   15.57812    71.85135   0.00003   141   %  3.6637
   141.000    1332    54.11210   17.73917    71.85127  -0.00004   142   %  3.6690
   142.000    1342    51.94061   19.91073    71.85134   0.00004   143   %  3.6591
   143.000    1352    50.60527   21.24599    71.85126  -0.00003   144   %  3.6444
   144.000    1362    50.32391   21.52718    71.85109  -0.00017   145   %  3.6439
   145.000    1372    50.42089   21.43018    71.85108  -0.00017   146   %  3.7131
   146.000    1382    50.01842   21.83275    71.85117  -0.00007   147   %  3.8357
   147.000    1392    49.08793   22.76322    71.85116  -0.00006   148   %  3.9827
   148.000    1402    48.47563   23.37524    71.85087  -0.00033   149   %  4.1460
   149.000    1412    48.88597   22.96501    71.85098  -0.00021   150   %  4.3145
   150.000    1422    50.23921   21.61172    71.85093  -0.00024   151   %  4.4774
   151.000    1432    52.00693   19.84385    71.85078  -0.00038   152   %  4.6251
   152.000    1442    53.70949   18.14135    71.85084  -0.00030   153   %  4.7494
   153.000    1452    55.01097   16.83986    71.85083  -0.00030   154   %  4.8436
   154.000    1462    55.75951   16.09133    71.85083  -0.00029   155   %  4.9039
   155.000    1472    56.15300   15.69792    71.85092  -0.00019   156   %  4.9300
   156.000    1482    56.60156   15.24923    71.85079  -0.00031   157   %  4.9246
   157.000    1492    57.17303   14.67768    71.85071  -0.00038   158   %  4.8926
   158.000    1502    57.34695   14.50385    71.85080  -0.00028   159   %  4.8384
   159.000    1511    56.61704   15.23388    71.85092  -0.00015   160   %  4.7662
   160.000    1521    55.20102   16.64996    71.85097  -0.00008   161   %  4.6791
   161.000    1531    53.83829   18.01252    71.85081  -0.00024   162   %  4.5800
   162.000    1541    53.02324   18.82745    71.85069  -0.00034   163   %  4.4702
   163.000    1551    52.70518   19.14549    71.85067  -0.00035   164   %  4.3505
   164.000    1561    52.55748   19.29314    71.85062  -0.00039   165   %  4.2210
   165.000    1571    52.26526   19.58552    71.85078  -0.00022   166   %  4.0821
   166.000    1581    51.67619   20.17458    71.85077  -0.00022   167   %  3.9354
   167.000    1591    50.93252   20.91821    71.85073  -0.00024   168   %  3.7856
   168.000    1601    50.43910   21.41156    71.85066  -0.00030   169   %  3.6426
   169.000    1611    50.48541   21.36516    71.85058  -0.00036   170   %  3.5218
   170.000    1621    50.84184   21.00863    71.85046  -0.00046   171   %  3.4377
   171.000    1631    50.97010   20.88039    71.85050  -0.00041   172   %  3.3913
   172.000    1641    50.77382   21.07688    71.85070  -0.00019   173   %  3.3733
   173.000    1651    50.83733   21.01324    71.85057  -0.00030   174   %  3.3760
   174.000    1661    51.69608   20.15440    71.85049  -0.00038   175   %  3.3962
   175.000    1671    53.11156   18.73887    71.85043  -0.00042   176   %  3.4276
   176.000    1681    54.19601   17.65450    71.85052  -0.00032   177   %  3.4559
   177.000    1690    54.07909   17.77172    71.85081  -0.00002   178   %  3.4665
   178.000    1700    52.50816   19.34272    71.85088   0.00007   179   %  3.4518
   179.000    1710    50.07924   21.77144    71.85068  -0.00011   180   %  3.4107
   180.000    1720    47.94567   23.90518    71.85085   0.00007   181   %  3.3462
   181.000    1730    47.03430   24.81628    71.85058  -0.00019   182   %  3.2623
   182.000    1740    47.24785   24.60250    71.85035  -0.00040   183   %  3.1631
   183.000    1750    47.52514   24.32524    71.85038  -0.00036   184   %  3.0532
   184.000    1760    47.05544   24.79518    71.85062  -0.00010   185   %  2.9411
   185.000    1770    46.38412   25.46646    71.85058  -0.00012   186   %  2.8516
   186.000    1780    46.92043   24.92984    71.85026  -0.00042   187   %  2.7921
   187.000    1790    49.40803   22.44211    71.85014  -0.00052   188   %  2.7585
   188.000    1800    53.15088   18.69925    71.85013  -0.00052   189   %  2.7412
   189.000    1809    56.57223   15.27781    71.85004  -0.00060   190   %  2.7234
   190.000    1817    58.34543   13.50486    71.85029  -0.00034   191   %  2.6921
   191.000    1827    58.23847   13.61208    71.85055  -0.00007   192   %  2.6418
   192.000    1837    57.16447   14.68616    71.85063   0.00002   193   %  2.5740
   193.000    1847    56.34405   15.50644    71.85049  -0.00010   194   %  2.4939
   194.000    1857    56.09528   15.75507    71.85035  -0.00024   195   %  2.4057
   195.000    1867    55.38360   16.46681    71.85042  -0.00016   196   %  2.3122
   196.000    1877    52.93377   18.91696    71.85073   0.00016   197   %  2.2230
   197.000    1887    48.87748   22.97303    71.85051  -0.00004   198   %  2.1649
   198.000    1897    44.88896   26.96136    71.85032  -0.00021   199   %  2.1614
   199.000    1907    42.67800   29.17205    71.85005  -0.00046   200   %  2.2147


           INITIAL VELOCITY IN DRC (Angstroms/Femtosecond)
         0.06558        -0.00954         0.01273
        -0.31109        -0.50347         0.01507
        -0.03602         0.05511        -0.01453
         0.00790         0.00263         0.02009
        -0.08004         0.05313         0.00315
        -0.00776         0.00321         0.00893
        -0.00096         0.00495         0.00147
         0.00584        -0.00454        -0.00932
         0.07734        -0.03602        -0.00544
        -0.00039         0.00711        -0.02093
        -0.01049        -0.01480         0.00148
 THE VIBRATIONAL FREQUENCY ( -1314.56CM(-1)) IS TOO SMALL
 FOR ONE QUANTUM TO BE USED
 INSTEAD 0.3KCAL/MOLE WILL BE USED TO START THE IRC

 TIME PRIORITY, INTERVAL = 1.00 FEMTOSECONDS



 FEMTOSECONDS  POINT  POTENTIAL + KINETIC  =   TOTAL     ERROR    REF%   MOVEMENT
     0.000       1    71.55316    0.30000    71.85316   0.00000     1   %  0.0000
     1.000       1    71.53699   -0.10217    71.43482  -0.41834     2   %  0.0224
     2.000       1    71.43867    0.30651    71.74518  -0.10798     3   %  0.0464
     3.000       1    71.25821    1.52603    72.78424   0.93108     4   %  0.0720
     4.000      16    70.88861    0.96284    71.85145  -0.00171     5   %  0.1154
     5.000      21    70.23684    1.61301    71.84985  -0.00331     6   %  0.1625
     6.000      25    69.08315    2.76491    71.84807  -0.00509     7   %  0.2219
     7.000      30    67.13282    4.71445    71.84727  -0.00588     8   %  0.2984
     8.000      35    64.05424    7.79248    71.84671  -0.00644     9   %  0.3975
     9.000      39    59.63309   12.21051    71.84361  -0.00954    10   %  0.5239
    10.000      43    54.01657   17.82951    71.84608  -0.00705    11   %  0.6809
    11.000      48    47.88624   23.96550    71.85175  -0.00137    12   %  0.8686
    12.000      57    42.35257   29.50017    71.85274  -0.00036    13   %  1.0842
    13.000      67    38.57787   33.27506    71.85293  -0.00014    14   %  1.3215
    14.000      77    37.35937   34.49365    71.85302  -0.00004    15   %  1.5722
    15.000      87    38.84838   33.00466    71.85304   0.00001    16   %  1.8259
    16.000      97    42.47056   29.38250    71.85306   0.00006    17   %  2.0718
    17.000     106    47.12245   24.73035    71.85281  -0.00018    18   %  2.2994
    18.000     115    51.61132   20.24145    71.85277  -0.00021    19   %  2.5003
    19.000     124    55.10739   16.74534    71.85272  -0.00024    20   %  2.6686
    20.000     134    57.38137   14.47141    71.85277  -0.00018    21   %  2.8013
    21.000     144    58.75042   13.10220    71.85262  -0.00032    22   %  2.8982
    22.000     154    59.71997   12.13261    71.85258  -0.00035    23   %  2.9618
    23.000     164    60.39682   11.45563    71.85245  -0.00047    24   %  2.9960
    24.000     174    60.12350   11.72893    71.85243  -0.00049    25   %  3.0062
    25.000     182    58.02263   13.83018    71.85281  -0.00010    26   %  2.9975
    26.000     190    54.24831   17.60466    71.85298   0.00008    27   %  2.9742
    27.000     200    50.36070   21.49210    71.85280  -0.00008    28   %  2.9396
    28.000     210    47.98785   23.86475    71.85260  -0.00026    29   %  2.8957
    29.000     220    47.38951   24.46289    71.85240  -0.00045    30   %  2.8435
    30.000     230    47.56835   24.28410    71.85244  -0.00039    31   %  2.7846
    31.000     240    47.39335   24.45921    71.85256  -0.00026    32   %  2.7243
    32.000     250    46.48627   25.36639    71.85265  -0.00014    33   %  2.6708
    33.000     260    45.47498   26.37768    71.85266  -0.00012    34   %  2.6286
    34.000     270    45.65622   26.19635    71.85257  -0.00019    35   %  2.5996
    35.000     280    47.99956   23.85268    71.85223  -0.00051    36   %  2.5873
    36.000     290    51.90005   19.95193    71.85198  -0.00075    37   %  2.5973
    37.000     300    55.11586   16.73600    71.85186  -0.00086    38   %  2.6355
    38.000     308    55.69893   16.15357    71.85250  -0.00021    39   %  2.7056
    39.000     318    54.00249   17.85018    71.85268  -0.00002    40   %  2.8065
    40.000     328    52.16708   19.68551    71.85259  -0.00009    41   %  2.9340
    41.000     338    51.79905   20.05327    71.85232  -0.00035    42   %  3.0812
    42.000     348    52.73935   19.11290    71.85225  -0.00040    43   %  3.2392
    43.000     358    53.75472   18.09761    71.85234  -0.00030    44   %  3.3987
    44.000     367    53.72250   18.12988    71.85238  -0.00025    45   %  3.5526
    45.000     377    52.29162   19.56098    71.85260  -0.00001    46   %  3.6974
    46.000     387    50.07472   21.77791    71.85263   0.00003    47   %  3.8327
    47.000     397    48.48263   23.37005    71.85268   0.00009    48   %  3.9600
    48.000     407    48.92535   22.92713    71.85248  -0.00009    49   %  4.0813
    49.000     417    51.48362   20.36860    71.85222  -0.00034    50   %  4.1969
    50.000     427    54.44291   17.40951    71.85243  -0.00011    51   %  4.3053
    51.000     437    55.87106   15.98159    71.85265   0.00012    52   %  4.4034
    52.000     447    55.62997   16.22278    71.85275   0.00023    53   %  4.4872
    53.000     457    55.20516   16.64736    71.85253   0.00002    54   %  4.5525
    54.000     467    55.78806   16.06421    71.85226  -0.00023    55   %  4.5954
    55.000     477    57.16800   14.68420    71.85220  -0.00029    56   %  4.6129
    56.000     486    58.24821   13.60396    71.85218  -0.00030    57   %  4.6034
    57.000     495    58.02336   13.82891    71.85227  -0.00019    58   %  4.5663
    58.000     504    56.17493   15.67743    71.85236  -0.00010    59   %  4.5005
    59.000     514    53.30836   18.54399    71.85235  -0.00009    60   %  4.4062
    60.000     524    50.77264   21.07949    71.85213  -0.00030    61   %  4.2874
    61.000     534    49.74586   22.10598    71.85183  -0.00058    62   %  4.1514
    62.000     544    50.09539   21.75622    71.85161  -0.00079    63   %  4.0057
    63.000     554    50.54578   21.30594    71.85172  -0.00066    64   %  3.8560
    64.000     564    50.29968   21.55209    71.85177  -0.00060    65   %  3.7051
    65.000     574    49.89510   21.95660    71.85170  -0.00065    66   %  3.5545
    66.000     584    50.20813   21.64342    71.85155  -0.00079    67   %  3.4181
    67.000     594    51.29526   20.55625    71.85151  -0.00082    68   %  3.3322
    68.000     604    52.48637   19.36518    71.85155  -0.00076    69   %  3.2609
    69.000     614    53.15485   18.69693    71.85179  -0.00051    70   %  3.2177
    70.000     624    53.18338   18.66849    71.85187  -0.00041    71   %  3.1985
    71.000     634    52.92835   18.92357    71.85191  -0.00036    72   %  3.1806
    72.000     644    52.90947   18.94251    71.85198  -0.00028    73   %  3.1565
    73.000     654    53.37105   18.48100    71.85205  -0.00019    74   %  3.1338
    74.000     664    53.93414   17.91791    71.85205  -0.00018    75   %  3.1368
    75.000     674    53.84370   18.00840    71.85210  -0.00013    76   %  3.1455
    76.000     684    52.82544   19.02680    71.85224   0.00003    77   %  3.1454
    77.000     694    51.46858   20.38364    71.85221   0.00002    78   %  3.1350
    78.000     704    50.51650   21.33547    71.85196  -0.00021    79   %  3.1288
    79.000     714    50.06809   21.78374    71.85183  -0.00034    80   %  3.1543
    80.000     724    49.67006   22.18166    71.85173  -0.00042    81   %  3.1787
    81.000     734    48.96304   22.88877    71.85182  -0.00031    82   %  3.1880
    82.000     744    48.09554   23.75639    71.85193  -0.00019    83   %  3.1804
    83.000     754    47.62674   24.22511    71.85185  -0.00025    84   %  3.1567
    84.000     764    48.10316   23.74860    71.85176  -0.00032    85   %  3.1186
    85.000     774    49.60541   22.24640    71.85181  -0.00026    86   %  3.0670
    86.000     784    51.52368   20.32802    71.85170  -0.00035    87   %  3.0020
    87.000     794    52.82012   19.03175    71.85187  -0.00017    88   %  2.9248
    88.000     804    52.81643   19.03552    71.85196  -0.00007    89   %  2.8427
    89.000     814    51.84091   20.01101    71.85192  -0.00009    90   %  2.7741
    90.000     824    50.90304   20.94882    71.85186  -0.00014    91   %  2.7320
    91.000     834    50.70580   21.14584    71.85164  -0.00034    92   %  2.7098
    92.000     844    51.13095   20.72055    71.85151  -0.00046    93   %  2.7033
    93.000     854    51.58543   20.26617    71.85160  -0.00036    94   %  2.7037
    94.000     864    51.64458   20.20704    71.85162  -0.00032    95   %  2.6942
    95.000     874    51.42929   20.42233    71.85162  -0.00031    96   %  2.6678
    96.000     884    51.53795   20.31372    71.85167  -0.00025    97   %  2.6263
    97.000     894    52.57559   19.27598    71.85157  -0.00033    98   %  2.5751
    98.000     904    54.53608   17.31535    71.85142  -0.00046    99   %  2.5179
    99.000     914    56.58787   15.26354    71.85142  -0.00046   100   %  2.4547
   100.000     924    57.68255   14.16906    71.85161  -0.00026   101   %  2.3877
   101.000     934    57.49110   14.36048    71.85157  -0.00028   102   %  2.3380
   102.000     944    56.58354   15.26801    71.85154  -0.00030   103   %  2.3392
   103.000     954    55.68228   16.16920    71.85148  -0.00036   104   %  2.3629
   104.000     964    54.97160   16.87838    71.84999  -0.00184   105   %  2.3744
   105.000     974    54.12597   17.72549    71.85146  -0.00035   106   %  2.3628
   106.000     984    52.75921   19.09232    71.85153  -0.00027   107   %  2.3284
   107.000     994    50.80688   21.04470    71.85158  -0.00020   108   %  2.2843
   108.000    1004    48.70097   23.15082    71.85179   0.00002   109   %  2.2708
   109.000    1014    47.28787   24.56379    71.85166  -0.00009   110   %  2.3259
   110.000    1024    47.36133   24.49012    71.85145  -0.00029   111   %  2.4126
   111.000    1034    48.95720   22.89417    71.85137  -0.00035   112   %  2.5123
   112.000    1044    51.13491   20.71650    71.85141  -0.00029   113   %  2.6305
   113.000    1054    52.76785   19.08378    71.85163  -0.00006   114   %  2.7601
   114.000    1064    53.59709   18.25466    71.85176   0.00008   115   %  2.8764
   115.000    1074    54.28945   17.56211    71.85156  -0.00011   116   %  2.9680
   116.000    1084    55.51095   16.34056    71.85151  -0.00014   117   %  3.0333
   117.000    1094    57.17166   14.67977    71.85143  -0.00021   118   %  3.0769
   118.000    1104    58.48550   13.36605    71.85155  -0.00008   119   %  3.1247
   119.000    1113    58.54835   13.30324    71.85159  -0.00003   120   %  3.1846
   120.000    1123    56.99820   14.85342    71.85162   0.00001   121   %  3.2232
   121.000    1133    54.42961   17.42191    71.85152  -0.00008   122   %  3.2329
   122.000    1143    52.13741   19.71382    71.85123  -0.00036   123   %  3.2136
   123.000    1153    51.10811   20.74285    71.85096  -0.00062   124   %  3.1694
   124.000    1163    51.11618   20.73467    71.85086  -0.00070   125   %  3.1060
   125.000    1173    51.00660   20.84440    71.85101  -0.00054   126   %  3.0267
   126.000    1183    49.92288   21.92810    71.85098  -0.00055   127   %  2.9289
   127.000    1193    48.05702   23.79398    71.85100  -0.00052   128   %  2.8126
   128.000    1203    46.25644   25.59461    71.85104  -0.00046   129   %  2.6846
   129.000    1213    45.26490   26.58610    71.85100  -0.00048   130   %  2.5729
   130.000    1223    45.38388   26.46703    71.85092  -0.00054   131   %  2.5480
   131.000    1233    46.45243   25.39855    71.85098  -0.00046   132   %  2.6310
   132.000    1243    47.90177   23.94937    71.85114  -0.00029   133   %  2.7770
   133.000    1253    49.09175   22.75956    71.85130  -0.00011   134   %  2.9323
   134.000    1263    49.93067   21.92092    71.85160   0.00020   135   %  3.0819
   135.000    1273    51.04279   20.80863    71.85142   0.00004   136   %  3.2199
   136.000    1283    52.99964   18.85166    71.85130  -0.00006   137   %  3.3431
   137.000    1293    55.45548   16.39579    71.85127  -0.00008   138   %  3.4476
   138.000    1302    57.32058   14.53068    71.85126  -0.00009   139   %  3.5288
   139.000    1311    57.70957   14.14181    71.85139   0.00005   140   %  3.5837
   140.000    1321    56.52831   15.32282    71.85113  -0.00020   141   %  3.6126
   141.000    1331    54.35993   17.49138    71.85132   0.00001   142   %  3.6193
   142.000    1341    52.12993   19.72141    71.85134   0.00004   143   %  3.6109
   143.000    1351    50.71079   21.14052    71.85132   0.00003   144   %  3.5971
   144.000    1361    50.34801   21.50322    71.85123  -0.00004   145   %  3.5940
   145.000    1371    50.37559   21.47559    71.85118  -0.00008   146   %  3.6659
   146.000    1381    49.89952   21.95186    71.85137   0.00013   147   %  3.7916
   147.000    1391    48.87765   22.97364    71.85129   0.00007   148   %  3.9389
   148.000    1401    48.17913   23.67192    71.85105  -0.00016   149   %  4.1022
   149.000    1411    48.55416   23.29677    71.85093  -0.00026   150   %  4.2717
   150.000    1421    49.94196   21.90896    71.85091  -0.00026   151   %  4.4366
   151.000    1431    51.78657   20.06434    71.85091  -0.00026   152   %  4.5874
   152.000    1441    53.56488   18.28600    71.85088  -0.00027   153   %  4.7154
   153.000    1451    54.91724   16.93372    71.85096  -0.00018   154   %  4.8138
   154.000    1461    55.69179   16.15917    71.85096  -0.00016   155   %  4.8784
   155.000    1471    56.09664   15.75437    71.85101  -0.00010   156   %  4.9089
   156.000    1481    56.55626   15.29461    71.85087  -0.00024   157   %  4.9080
   157.000    1491    57.15117   14.69966    71.85083  -0.00027   158   %  4.8804
   158.000    1501    57.35764   14.49327    71.85092  -0.00017   159   %  4.8304
   159.000    1511    56.64970   15.20130    71.85100  -0.00007   160   %  4.7619
   160.000    1521    55.23565   16.61534    71.85100  -0.00007   161   %  4.6782
   161.000    1531    53.87297   17.97788    71.85084  -0.00021   162   %  4.5817
   162.000    1541    53.07883   18.77183    71.85066  -0.00038   163   %  4.4741
   163.000    1551    52.79986   19.05072    71.85058  -0.00044   164   %  4.3558
   164.000    1561    52.68493   19.16568    71.85061  -0.00040   165   %  4.2271
   165.000    1571    52.39877   19.45197    71.85075  -0.00025   166   %  4.0881
   166.000    1581    51.78644   20.06435    71.85079  -0.00019   167   %  3.9403
   167.000    1591    51.00123   20.84972    71.85095  -0.00002   168   %  3.7880
   168.000    1601    50.46653   21.38424    71.85077  -0.00019   169   %  3.6407
   169.000    1611    50.49185   21.35891    71.85076  -0.00018   170   %  3.5128
   170.000    1621    50.85493   20.99580    71.85073  -0.00020   171   %  3.4183
   171.000    1630    51.00069   20.85007    71.85076  -0.00015   172   %  3.3605
   172.000    1640    50.80714   21.04381    71.85094   0.00004   173   %  3.3328
   173.000    1650    50.85524   20.99548    71.85073  -0.00015   174   %  3.3315
   174.000    1660    51.70281   20.14775    71.85056  -0.00031   175   %  3.3561
   175.000    1670    53.13201   18.71857    71.85058  -0.00028   176   %  3.3967
   176.000    1680    54.25548   17.59520    71.85068  -0.00016   177   %  3.4340
   177.000    1690    54.18701   17.66387    71.85088   0.00005   178   %  3.4523
   178.000    1699    52.65180   19.19924    71.85104   0.00022   179   %  3.4441
   179.000    1709    50.22781   21.62307    71.85088   0.00007   180   %  3.4082
   180.000    1719    48.06897   23.78190    71.85088   0.00009   181   %  3.3479
   181.000    1729    47.12792   24.72266    71.85058  -0.00019   182   %  3.2675
   182.000    1739    47.33841   24.51181    71.85022  -0.00053   183   %  3.1713
   183.000    1749    47.63809   24.21241    71.85051  -0.00023   184   %  3.0631
   184.000    1759    47.17593   24.67474    71.85067  -0.00005   185   %  2.9489
   185.000    1769    46.46407   25.38662    71.85069  -0.00001   186   %  2.8503
   186.000    1779    46.92738   24.92302    71.85040  -0.00028   187   %  2.7933
   187.000    1789    49.35549   22.49479    71.85028  -0.00039   188   %  2.7691
   188.000    1799    53.08288   18.76734    71.85022  -0.00043   189   %  2.7642
   189.000    1809    56.52855   15.32150    71.85005  -0.00059   190   %  2.7562
   190.000    1816    58.33594   13.51435    71.85029  -0.00035   191   %  2.7315
   191.000    1826    58.23936   13.61109    71.85045  -0.00018   192   %  2.6849
   192.000    1836    57.13720   14.71329    71.85049  -0.00013   193   %  2.6183
   193.000    1846    56.26843   15.58193    71.85035  -0.00025   194   %  2.5369
   194.000    1856    55.99026   15.85993    71.85019  -0.00040   195   %  2.4448
   195.000    1866    55.28710   16.56318    71.85028  -0.00030   196   %  2.3443
   196.000    1876    52.85561   18.99504    71.85065   0.00008   197   %  2.2462
   197.000    1886    48.78502   23.06552    71.85055  -0.00001   198   %  2.1859
   198.000    1896    44.74779   27.10257    71.85036  -0.00017   199   %  2.1823
   199.000    1906    42.49288   29.35720    71.85009  -0.00043   200   %  2.2381



 **********************
 *                    *
 * JOB ENDED NORMALLY *
 *                    *
 **********************



 TOTAL JOB TIME:             6.65 SECONDS

 == MOPAC DONE ==
