 *******************************************************************************
 ** Site#: 10005        For non-commercial use only     Version 15.317W 64BITS**
 *******************************************************************************
 ** Cite this work as:                                                        **
 **                                                                           **
 ** (a) MOPAC2012, James J. P. Stewart, Stewart Computational Chemistry,      **
 **  Version 15.317W web: HTTP://OpenMOPAC.net         Days remaining: 365    **
 **                                                                           **
 **                                 AND                                       **
 **                                                                           **
 ** (b) Maia, J.D.C., et al., J. Chem. Theory Comput. 2012, 8, 3072-3081.     **
 **                DOI: 10.1021/ct3004645.                                    **
 *******************************************************************************
 **                                                                           **
 **                                MOPAC2012                                  **
 **                                                                           **
 *******************************************************************************

                              PM7 CALCULATION RESULTS


 *******************************************************************************
 *  CALCULATION DONE:                                Fri Nov 13 09:50:33 2015  *
 *  GEO_DAT    - DATA SET GEOMETRY IS IN FILE "LOCATE_TS.ARC"
 *  TS         - USE EF ROUTINE FOR TS SEARCH
 *  T=         - A TIME OF 172800.0 SECONDS REQUESTED
 *  DUMP=N     - RESTART FILE WRITTEN EVERY  7200.000 SECONDS
 *  GNORM=     - EXIT WHEN GRADIENT NORM DROPS BELOW   2.00    
 *******************************************************************************
TS gnorm=2   geo_dat="Locate_TS.arc"
 Refine transition state for Cyclobutadiene_1 <=> Cyclobutadiene_2

   ATOM                 CHEMICAL                   X               Y               Z
  NUMBER                 SYMBOL               (ANGSTROMS)     (ANGSTROMS)     (ANGSTROMS)
 
     1       C(HETATM    1  C   HET A   1)   -0.30647654  *  -0.79828900  *   0.92018611  *
     2       H(HETATM    2 1HT  HET A   1)    1.10490161  *  -0.93769374  *   1.07286727  *
     3       C(HETATM    3  C   HET A   1)    0.58917234  *   0.38837622  *   0.94151406  *
     4       C(HETATM    4  C   HET A   1)    0.70806967      0.82680316     -0.39840438   
     5       H(HETATM    5 2HT  HET A   1)   -0.79967176     -1.21629469      1.77198050   
     6       H(HETATM    6 1HT  HET A   1)   -1.32440312     -1.76948690     -0.78006717   
     7       H(HETATM    7 2HT  HET A   1)   -0.12237366      0.05179913     -2.29050424   
     8       H(HETATM    8 3HT  HET A   1)    1.26789902      1.67865716     -0.71967382   
     9       H(HETATM    9 4HT  HET A   1)    0.83110802      0.96562733      1.81074722   
    10       C(HETATM   10  C   HET A   1)   -0.66872105     -1.00050701     -0.43063804   
    11       C(HETATM   11  C   HET A   1)   -0.03946823     -0.02879316     -1.22414341   
 

     ===================== shared-memory parallel CPU Section ======================
     **                                                                           **
     **  MOPAC calculations will run in shared-memory parallel CPUs               **
     **                                                                           **
     **  Number of Threads =  4                                                   **
     **                                                                           **
     **                                                                           **
     **  For information on this work, see:                                       **
     **                                                                           **
     **  Maia, J.D.C., et al., J. Chem. Theory Comput. 2012, 8, 3072-3081.        **
     **        DOI: 10.1021/ct3004645.                                            **
     **                                                                           **
     ===================== shared-memory parallel CPU Section ======================
      


 General Reference for PM7:
 "Optimization of Parameters for Semiempirical Methods VI: More Modifications to the 
 NDDO Approximations and Re-optimization of Parameters", J. J. P. Stewart, J. Mol. Mod., 1:32, 19 (2013)
 http://www.springerlink.com/openurl.asp?genre=article&id=doi:10.1007/s00894-012-1667-x

           Empirical Formula: C5 H6  =    11 atoms



      MOLECULAR POINT GROUP   :   C1  


      RHF CALCULATION, NO. OF DOUBLY OCCUPIED LEVELS =   13

      Transition state refinement using EF

          HESSIAN CALCULATED NUMERICALLY

 CYCLE:     1 TIME:   0.047 TIME LEFT:  2.00D  GRAD.:     3.038 HEAT:  71.56924
 CYCLE:     2 TIME:   0.000 TIME LEFT:  2.00D  GRAD.:     0.093 HEAT:  71.55316

     GRADIENT =  0.09259  IS LESS THAN CUTOFF =  2.00000



 -------------------------------------------------------------------------------
TS gnorm=2   geo_dat="Locate_TS.arc"
 Refine transition state for Cyclobutadiene_1 <=> Cyclobutadiene_2



     GEOMETRY OPTIMISED USING EIGENVECTOR FOLLOWING (TS).     
     SCF FIELD WAS ACHIEVED                                   


                              PM7 CALCULATION
                                                       MOPAC2012 (Version: 15.317W)
                                                       Fri Nov 13 09:50:33 2015
                                                       No. of days left = 365




          FINAL HEAT OF FORMATION =         71.55316 KCAL/MOL =     299.37840 KJ/MOL


          TOTAL ENERGY            =       -692.36543 EV
          ELECTRONIC ENERGY       =      -2612.19692 EV  POINT GROUP:     C1  
          CORE-CORE REPULSION     =       1919.83149 EV
          COSMO AREA              =        107.25 SQUARE ANGSTROMS
          COSMO VOLUME            =         94.34 CUBIC ANGSTROMS

          GRADIENT NORM           =          0.09259
          IONIZATION POTENTIAL    =          9.039276 EV
          HOMO LUMO ENERGIES (EV) =         -9.039  0.622
          NO. OF FILLED LEVELS    =         13
          MOLECULAR WEIGHT        =         66.102

          MOLECULAR DIMENSIONS (Angstroms)

            Atom       Atom       Distance
            H     8    H     5     4.34326
            H     9    H     6     4.12092
            H     7    H     2     1.45520


          SCF CALCULATIONS        =         12
 
          WALL-CLOCK TIME         =          0.059 SECONDS
          COMPUTATION TIME        =          0.172 SECONDS




   ATOM                 CHEMICAL                   X               Y               Z
  NUMBER                 SYMBOL               (ANGSTROMS)     (ANGSTROMS)     (ANGSTROMS)
 
     1       C(HETATM    1  C   HET A   1)   -0.30848145  *  -0.79560711  *   0.92112095  *
     2       H(HETATM    2 1HT  HET A   1)    1.10139645  *  -0.92711478  *   1.08404381  *
     3       C(HETATM    3  C   HET A   1)    0.58498543  *   0.39447310  *   0.94208908  *
     4       C(HETATM    4  C   HET A   1)    0.70806967      0.82680316     -0.39840438   
     5       H(HETATM    5 2HT  HET A   1)   -0.79967176     -1.21629469      1.77198050   
     6       H(HETATM    6 1HT  HET A   1)   -1.32440312     -1.76948690     -0.78006717   
     7       H(HETATM    7 2HT  HET A   1)   -0.12237366      0.05179913     -2.29050424   
     8       H(HETATM    8 3HT  HET A   1)    1.26789902      1.67865716     -0.71967382   
     9       H(HETATM    9 4HT  HET A   1)    0.83110802      0.96562733      1.81074722   
    10       C(HETATM   10  C   HET A   1)   -0.66872105     -1.00050701     -0.43063804   
    11       C(HETATM   11  C   HET A   1)   -0.03946823     -0.02879316     -1.22414341   

                             CARTESIAN COORDINATES

   1    C       -0.308481453    -0.795607113     0.921120954
   2    H        1.101396454    -0.927114778     1.084043809
   3    C        0.584985434     0.394473098     0.942089085
   4    C        0.708069670     0.826803160    -0.398404380
   5    H       -0.799671760    -1.216294690     1.771980500
   6    H       -1.324403120    -1.769486900    -0.780067170
   7    H       -0.122373660     0.051799130    -2.290504240
   8    H        1.267899020     1.678657160    -0.719673820
   9    H        0.831108020     0.965627330     1.810747220
  10    C       -0.668721050    -1.000507010    -0.430638040
  11    C       -0.039468230    -0.028793160    -1.224143410


           Empirical Formula: C5 H6  =    11 atoms



      MOLECULAR POINT GROUP   :   C1  


                  EIGENVALUES  
 -31.20927 -24.53076 -23.95070 -18.66324 -18.64888 -17.57947 -14.99634 -13.42248
 -12.88364 -12.85822 -12.85383  -9.76673  -9.03928   0.62242   1.30966   2.99216
   3.73872   4.51580   4.99984   5.67560   5.84806   6.05587   6.18527   6.46530
   6.57279   6.60323


              NET ATOMIC CHARGES AND DIPOLE CONTRIBUTIONS

  ATOM NO.                 TYPE                        CHARGE      No. of ELECS.   s-Pop       p-Pop       
    1          C(HETATM    1  C   HET A   1)          -0.252682        4.2527     1.07403     3.17865
    2          H(HETATM    2 1HT  HET A   1)           0.292938        0.7071     0.70706
    3          C(HETATM    3  C   HET A   1)          -0.251892        4.2519     1.07399     3.17790
    4          C(HETATM    4  C   HET A   1)          -0.196764        4.1968     1.08126     3.11551
    5          H(HETATM    5 2HT  HET A   1)           0.163108        0.8369     0.83689
    6          H(HETATM    6 1HT  HET A   1)           0.150856        0.8491     0.84914
    7          H(HETATM    7 2HT  HET A   1)           0.148530        0.8515     0.85147
    8          H(HETATM    8 3HT  HET A   1)           0.150905        0.8491     0.84910
    9          H(HETATM    9 4HT  HET A   1)           0.163179        0.8368     0.83682
   10          C(HETATM   10  C   HET A   1)          -0.196408        4.1964     1.08114     3.11527
   11          C(HETATM   11  C   HET A   1)          -0.171770        4.1718     1.08535     3.08642
 DIPOLE           X         Y         Z       TOTAL
 POINT-CHG.     1.108    -0.854     1.147     1.809
 HYBRID         0.284    -0.219     0.209     0.415
 SUM            1.391    -1.073     1.356     2.219


          ATOMIC ORBITAL ELECTRON POPULATIONS

                   Atom                  s        px        py        pz   
   C(HETATM    1  C   HET A   1)   1.07403   0.97711   1.13133   1.07021
   H(HETATM    2 1HT  HET A   1)   0.70706
   C(HETATM    3  C   HET A   1)   1.07399   1.16099   0.94510   1.07181
   C(HETATM    4  C   HET A   1)   1.08126   1.06850   1.06545   0.98156
   H(HETATM    5 2HT  HET A   1)   0.83689
   H(HETATM    6 1HT  HET A   1)   0.84914
   H(HETATM    7 2HT  HET A   1)   0.85147
   H(HETATM    8 3HT  HET A   1)   0.84910
   H(HETATM    9 4HT  HET A   1)   0.83682
   C(HETATM   10  C   HET A   1)   1.08114   1.06708   1.06561   0.98258
   C(HETATM   11  C   HET A   1)   1.08535   1.01675   1.00316   1.06651
 *******************************************************************************
 ** Site#: 10005        For non-commercial use only     Version 15.317W 64BITS**
 *******************************************************************************
 ** Cite this work as:                                                        **
 **                                                                           **
 ** (a) MOPAC2012, James J. P. Stewart, Stewart Computational Chemistry,      **
 **  Version 15.317W web: HTTP://OpenMOPAC.net         Days remaining: 365    **
 **                                                                           **
 **                                 AND                                       **
 **                                                                           **
 ** (b) Maia, J.D.C., et al., J. Chem. Theory Comput. 2012, 8, 3072-3081.     **
 **                DOI: 10.1021/ct3004645.                                    **
 *******************************************************************************
 **                                                                           **
 **                                MOPAC2012                                  **
 **                                                                           **
 *******************************************************************************

                              PM7 CALCULATION RESULTS


 *******************************************************************************
 *  CALCULATION DONE:                                Fri Nov 13 09:50:33 2015  *
 *  IRC=N      - INTRINSIC REACTION COORDINATE -1 DEFINED
 *  OLDGEO     - PREVIOUS GEOMETRY TO BE USED
 *  T=         - A TIME OF 172800.0 SECONDS REQUESTED
 *  DUMP=N     - RESTART FILE WRITTEN EVERY  7200.000 SECONDS
 *  X-PRIOR    - GEOMETRY CHANGES TAKE PRIORITY IN DRC
 *******************************************************************************
oldgeo   IRC=-1* HTML X-priority=0.2
 Reaction path for Cyclobutadiene_1 <=> Cyclobutadiene_2

   ATOM                 CHEMICAL                   X               Y               Z
  NUMBER                 SYMBOL               (ANGSTROMS)     (ANGSTROMS)     (ANGSTROMS)
 
     1       C(HETATM    1  C   HET A   1)   -0.30848145  *  -0.79560711  *   0.92112095  *
     2       H(HETATM    2 1HT  HET A   1)    1.10139645  *  -0.92711478  *   1.08404381  *
     3       C(HETATM    3  C   HET A   1)    0.58498543  *   0.39447310  *   0.94208908  *
     4       C(HETATM    4  C   HET A   1)    0.70806967      0.82680316     -0.39840438   
     5       H(HETATM    5 1HT  HET A   1)   -0.79967176     -1.21629469      1.77198050   
     6       H(HETATM    6 2HT  HET A   1)   -1.32440312     -1.76948690     -0.78006717   
     7       H(HETATM    7 3HT  HET A   1)   -0.12237366      0.05179913     -2.29050424   
     8       H(HETATM    8 4HT  HET A   1)    1.26789902      1.67865716     -0.71967382   
     9       H(HETATM    9 5HT  HET A   1)    0.83110802      0.96562733      1.81074722   
    10       C(HETATM   10  C   HET A   1)   -0.66872105     -1.00050701     -0.43063804   
    11       C(HETATM   11  C   HET A   1)   -0.03946823     -0.02879316     -1.22414341   
 

 General Reference for PM7:
 "Optimization of Parameters for Semiempirical Methods VI: More Modifications to the 
 NDDO Approximations and Re-optimization of Parameters", J. J. P. Stewart, J. Mol. Mod., 1:32, 19 (2013)
 http://www.springerlink.com/openurl.asp?genre=article&id=doi:10.1007/s00894-012-1667-x

           Empirical Formula: C5 H6  =    11 atoms



      MOLECULAR POINT GROUP   :   C1  


      RHF CALCULATION, NO. OF DOUBLY OCCUPIED LEVELS =   13



          HEAT OF FORMATION =      71.553160 KCALS/MOLE


          GRADIENT NORM =   4.23539

          MOLECULAR WEIGHT =   66.10


    FOR POINT-GROUP C1   THERE ARE   1 UNIQUE SYMMETRY FUNCTIONS.

 STEP:   1 TIME =     0.00 SECS, INTEGRAL =      0.00 TIME LEFT: 172800.00
 STEP:   2 TIME =     0.00 SECS, INTEGRAL =      0.00 TIME LEFT: 172800.00
 STEP:   3 TIME =     0.00 SECS, INTEGRAL =      0.00 TIME LEFT: 172800.00
 STEP:   4 TIME =     0.02 SECS, INTEGRAL =      0.02 TIME LEFT: 172799.98
 STEP:   5 TIME =     0.00 SECS, INTEGRAL =      0.02 TIME LEFT: 172799.98
 STEP:   6 TIME =     0.00 SECS, INTEGRAL =      0.02 TIME LEFT: 172799.98
 STEP:   7 TIME =     0.00 SECS, INTEGRAL =      0.02 TIME LEFT: 172799.98
 STEP:   8 TIME =     0.01 SECS, INTEGRAL =      0.03 TIME LEFT: 172799.97
 STEP:   9 TIME =     0.02 SECS, INTEGRAL =      0.05 TIME LEFT: 172799.95
 STEP:  10 TIME =     0.00 SECS, INTEGRAL =      0.05 TIME LEFT: 172799.95
 STEP:  11 TIME =     0.00 SECS, INTEGRAL =      0.05 TIME LEFT: 172799.95
 STEP:  12 TIME =     0.00 SECS, INTEGRAL =      0.05 TIME LEFT: 172799.95
 STEP:  13 TIME =     0.02 SECS, INTEGRAL =      0.06 TIME LEFT: 172799.94
 STEP:  14 TIME =     0.00 SECS, INTEGRAL =      0.06 TIME LEFT: 172799.94
 STEP:  15 TIME =     0.00 SECS, INTEGRAL =      0.06 TIME LEFT: 172799.94
 STEP:  16 TIME =     0.00 SECS, INTEGRAL =      0.06 TIME LEFT: 172799.94
 STEP:  17 TIME =     0.02 SECS, INTEGRAL =      0.08 TIME LEFT: 172799.92
 STEP:  18 TIME =     0.00 SECS, INTEGRAL =      0.08 TIME LEFT: 172799.92
 STEP:  19 TIME =     0.00 SECS, INTEGRAL =      0.08 TIME LEFT: 172799.92
 STEP:  20 TIME =     0.00 SECS, INTEGRAL =      0.08 TIME LEFT: 172799.92
 STEP:  21 TIME =     0.02 SECS, INTEGRAL =      0.10 TIME LEFT: 172799.90
 STEP:  22 TIME =     0.00 SECS, INTEGRAL =      0.10 TIME LEFT: 172799.90
 STEP:  23 TIME =     0.00 SECS, INTEGRAL =      0.10 TIME LEFT: 172799.90
 STEP:  24 TIME =     0.00 SECS, INTEGRAL =      0.10 TIME LEFT: 172799.90
 STEP:  25 TIME =     0.01 SECS, INTEGRAL =      0.11 TIME LEFT: 172799.89
 STEP:  26 TIME =     0.00 SECS, INTEGRAL =      0.11 TIME LEFT: 172799.89
 STEP:  27 TIME =     0.00 SECS, INTEGRAL =      0.11 TIME LEFT: 172799.89
 STEP:  28 TIME =     0.00 SECS, INTEGRAL =      0.11 TIME LEFT: 172799.89
 STEP:  29 TIME =     0.02 SECS, INTEGRAL =      0.12 TIME LEFT: 172799.88
 STEP:  30 TIME =     0.00 SECS, INTEGRAL =      0.12 TIME LEFT: 172799.88
 STEP:  31 TIME =     0.00 SECS, INTEGRAL =      0.12 TIME LEFT: 172799.88
 STEP:  32 TIME =     0.00 SECS, INTEGRAL =      0.12 TIME LEFT: 172799.88
 STEP:  33 TIME =     0.02 SECS, INTEGRAL =      0.14 TIME LEFT: 172799.86
           INITIAL VELOCITY IN DRC (Angstroms/Femtosecond)
        -0.06558         0.00954        -0.01273
         0.31109         0.50347        -0.01507
         0.03602        -0.05511         0.01453
        -0.00790        -0.00263        -0.02009
         0.08004        -0.05313        -0.00315
         0.00776        -0.00321        -0.00893
         0.00096        -0.00495        -0.00147
        -0.00584         0.00454         0.00932
        -0.07734         0.03602         0.00544
         0.00039        -0.00711         0.02093
         0.01049         0.01480        -0.00148

 GEOMETRY PRIORITY, STEP = 0.2000 ANGSTROMS



     POINT   POTENTIAL  +  ENERGY LOST   =   TOTAL      ERROR    REF%   MOVEMENT
       1      71.55316      0.00000         71.55316   0.00000     1   %  0.0000
      13      71.30465      0.58300         71.88765   0.33449     2   %  0.0866
      28      67.61236      4.23657         71.84893   0.29577     3   %  0.2899
      43      61.33720     10.49720         71.83440   0.28125     4   %  0.4869
      58      54.38446     17.43509         71.81955   0.26640     5   %  0.6844
      72      48.00146     23.80145         71.80292   0.24976     6   %  0.8822
      86      42.77017     29.01451         71.78468   0.23153     7   %  1.0799
     100      38.85696     32.90956         71.76652   0.21336     8   %  1.2762
     114      36.18952     35.56067         71.75019   0.19704     9   %  1.4685
     127      34.57368     37.16348         71.73716   0.18401    10   %  1.6481
     140      33.70211     38.02695         71.72906   0.17590    11   %  1.7985
     151      33.19121     38.53362         71.72483   0.17167    12   %  1.9275
     161      32.83060     38.89088         71.72148   0.16833    13   %  2.0600
     169      32.63869     39.29019         71.92888   0.37572    14   %  2.1587
     179      32.52890     39.81062         72.33952   0.78637    15   %  2.2284
     188      32.45105     40.36843         72.81949   1.26633    16   %  2.2893
     199      32.39631     40.96665         73.36295   1.80980    17   %  2.3429
     210      32.35753     41.61604         73.97357   2.42041    18   %  2.3899
     221      32.33131     42.32243         74.65374   3.10058    19   %  2.4308
     233      32.31548     43.04329         75.35877   3.80561    20   %  2.4632
     245      32.30488     43.73311         76.03799   4.48483    21   %  2.4861
     255      32.29959     44.39959         76.69918   5.14602    22   %  2.5067
     266      32.29436     45.05542         77.34979   5.79663    23   %  2.5199
     277      32.29178     45.70204         77.99381   6.44066    24   %  2.5319
     287      32.29098     46.34777         78.63875   7.08560    25   %  2.5430
     297      32.29071     46.99144         79.28214   7.72899    26   %  2.5516
     308      32.28866     47.63606         79.92473   8.37157    27   %  2.5571
     318      32.28625     48.25100         80.53725   8.98409    28   %  2.5628
     328      32.29110     48.93050         81.22160   9.66844    29   %  2.5652
     339      32.29233     49.56335         81.85568  10.30253    30   %  2.5686
     349      32.29384     50.20220         82.49604  10.94288    31   %  2.5713
     359      32.29493     50.84217         83.13709  11.58394    32   %  2.5736
     370      32.28247     51.54317         83.82563  12.27248    33   %  2.5778
     380      32.28212     52.18129         84.46341  12.91025    34   %  2.5793
     391      32.29703     52.89934         85.19636  13.64321    35   %  2.5785
     401      32.29559     53.54604         85.84162  14.28846    36   %  2.5796
     411      32.29391     54.19260         86.48651  14.93335    37   %  2.5805
     422      32.28203     54.89704         87.17907  15.62591    38   %  2.5833
     432      32.28167     55.54801         87.82969  16.27653    39   %  2.5838
     443      32.30198     56.28641         88.58839  17.03523    40   %  2.5820
     453      32.30256     56.97615         89.27870  17.72555    41   %  2.5824
     463      32.30265     57.65885         89.96150  18.40835    42   %  2.5827
     474      32.28062     58.42751         90.70813  19.15497    43   %  2.5850
     484      32.28062     59.14593         91.42655  19.87339    44   %  2.5852
     495      32.30708     59.94457         92.25165  20.69849    45   %  2.5835
     505      32.31070     60.67603         92.98673  21.43358    46   %  2.5836


           POTENTIAL ENERGY HAS STOPPED DROPPING

           INITIAL VELOCITY IN DRC (Angstroms/Femtosecond)
         0.06558        -0.00954         0.01273
        -0.31109        -0.50347         0.01507
        -0.03602         0.05511        -0.01453
         0.00790         0.00263         0.02009
        -0.08004         0.05313         0.00315
        -0.00776         0.00321         0.00893
        -0.00096         0.00495         0.00147
         0.00584        -0.00454        -0.00932
         0.07734        -0.03602        -0.00544
        -0.00039         0.00711        -0.02093
        -0.01049        -0.01480         0.00148

 GEOMETRY PRIORITY, STEP = 0.2000 ANGSTROMS



     POINT   POTENTIAL  +  ENERGY LOST   =   TOTAL      ERROR    REF%   MOVEMENT
       1      71.55316      0.00000         71.55316   0.00000     1   %  0.0000
      13      71.18004      0.62513         71.80517   0.25201     2   %  0.0958
      29      67.11188      4.65297         71.76486   0.21170     3   %  0.2983
      44      60.63041     11.11784         71.74825   0.19509     4   %  0.4965
      58      53.67089     18.06240         71.73330   0.18014     5   %  0.6941
      73      47.37433     24.34269         71.71702   0.16386     6   %  0.8918
      87      42.26890     29.43051         71.69941   0.14625     7   %  1.0892
     100      38.48722     33.19495         71.68217   0.12901     8   %  1.2852
     114      35.94032     35.72617         71.66649   0.11333     9   %  1.4767
     128      34.42048     37.23366         71.65414   0.10098    10   %  1.6546
     140      33.61084     38.03556         71.64640   0.09324    11   %  1.8026
     150      33.12590     38.51738         71.64328   0.09012    12   %  1.9330
     158      32.82443     38.81700         71.64143   0.08827    13   %  2.0475
     168      32.61926     39.33537         71.95463   0.40147    14   %  2.1540
     178      32.50982     39.87554         72.38536   0.83220    15   %  2.2265
     188      32.43560     40.43613         72.87173   1.31857    16   %  2.2876
     198      32.38555     41.01759         73.40314   1.84998    17   %  2.3383
     208      32.35197     41.62341         73.97538   2.42222    18   %  2.3807
     219      32.32861     42.26481         74.59342   3.04026    19   %  2.4185
     231      32.31447     42.95129         75.26576   3.71260    20   %  2.4475
     242      32.30581     43.64926         75.95507   4.40191    21   %  2.4718
     253      32.29677     44.32829         76.62507   5.07191    22   %  2.4927
     264      32.29551     44.99492         77.29043   5.73727    23   %  2.5064
     274      32.29425     45.65353         77.94778   6.39462    24   %  2.5177
     285      32.28992     46.30541         78.59533   7.04217    25   %  2.5288
     295      32.28832     46.95408         79.24240   7.68924    26   %  2.5374
     306      32.28836     47.59868         79.88704   8.33388    27   %  2.5431
     316      32.28738     48.24396         80.53133   8.97817    28   %  2.5474
     326      32.28573     48.88851         81.17424   9.62108    29   %  2.5512
     337      32.28741     49.53515         81.82256  10.26940    30   %  2.5558
     347      32.28881     50.18197         82.47078  10.91762    31   %  2.5594
     357      32.28827     50.82583         83.11410  11.56094    32   %  2.5620
     368      32.28721     51.46826         83.75547  12.20231    33   %  2.5627


           POTENTIAL ENERGY HAS STOPPED DROPPING


 **********************
 *                    *
 * JOB ENDED NORMALLY *
 *                    *
 **********************



 TOTAL JOB TIME:             2.23 SECONDS

 == MOPAC DONE ==
