 *******************************************************************************
 ** Site#: 10005        For non-commercial use only     Version 15.310W 64BITS**
 *******************************************************************************
 ** Cite this work as:                                                        **
 **                                                                           **
 ** (a) MOPAC2012, James J. P. Stewart, Stewart Computational Chemistry,      **
 **  Version 15.310W web: HTTP://OpenMOPAC.net         Days remaining: 365    **
 **                                                                           **
 **                                 AND                                       **
 **                                                                           **
 ** (b) Maia, J.D.C., et al., J. Chem. Theory Comput. 2012, 8, 3072-3081.     **
 **                DOI: 10.1021/ct3004645.                                    **
 *******************************************************************************
 **                                                                           **
 **                                MOPAC2012                                  **
 **                                                                           **
 *******************************************************************************

                              PM7 CALCULATION RESULTS


 *******************************************************************************
 *  CALCULATION DONE:                                Fri Nov 06 10:46:41 2015  *
 *  GEO-OK     - OVERRIDE INTERATOMIC DISTANCE AND OTHER SAFETY CHECKS
 *  GEO_DAT    - DATA SET GEOMETRY IS IN FILE "CYCLOBUTADIENE_2.ARC"
 *  GEO_REF    - REFERENCE GEOMETRY IS IN FILE "CYCLOBUTADIENE_1.ARC"
 *  OPT        - OPTIMIZE COORDINATES OF ALL ATOMS
 *  XYZ        - CARTESIAN COORDINATE SYSTEM TO BE USED
 *  LOCATE-TS  - LOCATE A TRANSITION STATE IN A PROTEIN MECHANISM
 *  T=         - A TIME OF 172800.0 SECONDS REQUESTED
 *  DUMP=N     - RESTART FILE WRITTEN EVERY  7200.000 SECONDS
 *******************************************************************************
geo-ok geo_ref="Cyclobutadiene_1.arc" geo_dat="Cyclobutadiene_2.arc" locate-ts(C:30,120,120;SET:1) opt xyz HTML
 Transition state for CH3Cl --- Cl(-) <=> Cl(-) --- CH3Cl

   ATOM                 CHEMICAL                   X               Y               Z
  NUMBER                 SYMBOL               (ANGSTROMS)     (ANGSTROMS)     (ANGSTROMS)
 
     1       C(HETATM    1  C   HET A   1)   -0.11905165  *  -0.76862463  *   0.96879468  *
     2       H(HETATM    2  H   HET A   1)    0.56792685  *  -1.58769964  *   1.24993812  *
     3       C(HETATM    3  C   HET A   1)    0.58946871  *   0.56414056  *   0.90206708  *
     4       C(HETATM    4  C   HET A   1)    0.47869076  *   1.07212819  *  -0.34724321  *
     5       H(HETATM    5  H   HET A   1)   -0.93276124  *  -0.76648235  *   1.71713730  *
     6       H(HETATM    6  H   HET A   1)   -1.20866887  *  -1.79429223  *  -0.72819487  *
     7       H(HETATM    7  H   HET A   1)   -0.50780592  *   0.33108318  *  -2.21316471  *
     8       H(HETATM    8  H   HET A   1)    0.86886285  *   1.99778277  *  -0.72135279  *
     9       H(HETATM    9  H   HET A   1)    1.08245484  *   0.98009534  *   1.75519450  *
    10       C(HETATM   10  C   HET A   1)   -0.64646971  *  -0.93236551  *  -0.43742213  *
    11       C(HETATM   11  C   HET A   1)   -0.29055955  *   0.14060609  *  -1.18098599  *
 

          By default, a restraining force of 3 kcal/mol/A^2 will be used
 ----------------------------------------

                 After docking

              Atoms that move a lot
                   Atom Label               Movement    Integral

          (HETATM    2  H   HET A   1)        1.69        1.69
          (HETATM    9  H   HET A   1)        0.70        2.40
          (HETATM    5  H   HET A   1)        0.70        3.10
          (HETATM    8  H   HET A   1)        0.63        3.73
          (HETATM    6  H   HET A   1)        0.63        4.36
          (HETATM    1  C   HET A   1)        0.37        4.73
          (HETATM    3  C   HET A   1)        0.37        5.10
          (HETATM   10  C   HET A   1)        0.34        5.44
          (HETATM    4  C   HET A   1)        0.34        5.77

   Difference between data-set and GEO_REF:    5.84 = total,  0.5305 = Average,  0.6846 = RMS, in Angstroms

    The rotated-translated reference geometry will be written to: 'M:\Individual JSmol paths\Cyclobutadiene\Cyclobutadiene_1.new'

     ===================== shared-memory parallel CPU Section ======================
     **                                                                           **
     **  MOPAC calculations will run in shared-memory parallel CPUs               **
     **                                                                           **
     **  Number of Threads =  4                                                   **
     **                                                                           **
     **                                                                           **
     **  For information on this work, see:                                       **
     **                                                                           **
     **  Maia, J.D.C., et al., J. Chem. Theory Comput. 2012, 8, 3072-3081.        **
     **        DOI: 10.1021/ct3004645.                                            **
     **                                                                           **
     ===================== shared-memory parallel CPU Section ======================
      


 General Reference for PM7:
 "Optimization of Parameters for Semiempirical Methods VI: More Modifications to the 
 NDDO Approximations and Re-optimization of Parameters", J. J. P. Stewart, J. Mol. Mod., 1:32, 19 (2013)
 http://www.springerlink.com/openurl.asp?genre=article&id=doi:10.1007/s00894-012-1667-x

           Empirical Formula: C5 H6  =    11 atoms



      MOLECULAR POINT GROUP   :   C2v 

 Set 1: Atoms involved in covalent bond-breaking and bond-making                  Connectivity of atoms

                                                                          Data-set                     Reference

   1    Atom:   C     1  PDB Label: (HETATM    1  C   HET A   1)           2     3     5    10          3     5    10
   2    Atom:   H     2  PDB Label: (HETATM    2 1HT  HET A   1)           1                            3
   3    Atom:   C     3  PDB Label: (HETATM    3  C   HET A   1)           1     4     9                1     2     4     9

 Set 2 : Atoms involved in covalent bond-breaking and bond-making, plus nearest neighbors

   1    Atom:   C     1  PDB Label: (HETATM    1  C   HET A   1)
   2    Atom:   H     2  PDB Label: (HETATM    2 1HT  HET A   1)
   3    Atom:   C     3  PDB Label: (HETATM    3  C   HET A   1)
   4    Atom:   H     5  PDB Label: (HETATM    5 2HT  HET A   1)
   5    Atom:   C    10  PDB Label: (HETATM   10  C   HET A   1)
   6    Atom:   C     4  PDB Label: (HETATM    4  C   HET A   1)
   7    Atom:   H     9  PDB Label: (HETATM    9 4HT  HET A   1)

          Set 1 selected by keywork 'SET' within keyword 'LOCATE-TS'

          Constraining constant: 30.00 Kcal/mol/Angstrom^2


          Current value of GEO_REF constraint:               30.00  Kcal/mol/Angstrom^2
          Distance between the geometries:                    5.84  Angstroms

          Heat of formation of the first geometry:           32.295 Kcal/mol
          Heat of formation of the second geometry:          32.296 Kcal/mol
          Contribution to heat of formation due to stress:  309.36  Kcal/mol
          Gradient arising from first geometry:             272.46  Kcal/mol/Angstrom
          Gradient arising from second geometry:            272.46  Kcal/mol/Angstrom
          Angle between gradient vectors:                   179.78  degrees

 CYCLE:     1 TIME:   0.000 TIME LEFT:  4.96W  GRAD.:   192.650 HEAT:  373.9493
 CYCLE:     2 TIME:   0.000 TIME LEFT:  4.96W  GRAD.:   191.960 HEAT:  373.3933
 CYCLE:     3 TIME:   0.016 TIME LEFT:  4.96W  GRAD.:   803.633 HEAT:  320.8967
 CYCLE:     4 TIME:   0.000 TIME LEFT:  4.96W  GRAD.:   216.760 HEAT:  224.0816
 CYCLE:     5 TIME:   0.000 TIME LEFT:  4.96W  GRAD.:    99.044 HEAT:  216.4594
 CYCLE:     6 TIME:   0.000 TIME LEFT:  4.96W  GRAD.:    53.290 HEAT:  225.0008
 CYCLE:     7 TIME:   0.000 TIME LEFT:  4.96W  GRAD.:    34.038 HEAT:  220.4329
 CYCLE:     8 TIME:   0.000 TIME LEFT:  4.96W  GRAD.:    24.544 HEAT:  219.0086
 CYCLE:     9 TIME:   0.016 TIME LEFT:  4.96W  GRAD.:    21.747 HEAT:  218.6205
 CYCLE:    10 TIME:   0.000 TIME LEFT:  4.96W  GRAD.:    12.821 HEAT:  218.3867
 CYCLE:    11 TIME:   0.016 TIME LEFT:  4.96W  GRAD.:    10.194 HEAT:  218.7400
 CYCLE:    12 TIME:   0.000 TIME LEFT:  4.96W  GRAD.:    25.233 HEAT:  219.0648
 CYCLE:    13 TIME:   0.000 TIME LEFT:  4.96W  GRAD.:     5.571 HEAT:  218.6578
 CYCLE:    14 TIME:   0.016 TIME LEFT:  4.96W  GRAD.:     3.866 HEAT:  218.5020

     GRADIENT =  3.86625  IS LESS THAN CUTOFF =  4.00000



          First geometry (derived from data-set) after optimization subject to 
          GEO_REF constraint of 30.0 Kcal/mol/Angstrom^2 towards the reference geometry written to file:
          'M:\Individual JSmol paths\Cyclobutadiene\Locate_TS_30p0_first.mop'


          Second geometry (derived from reference geometry)after optimization subject to 
          GEO_REF constraint of 30.0 Kcal/mol/Angstrom^2 towards the data-set geometry written to file:
          'M:\Individual JSmol paths\Cyclobutadiene\Locate_TS_30p0_second.mop'


          Job name:                                        'M:\Individual JSmol paths\Cyclobutadiene\Locate_TS'
          Current value of GEO_REF constraint:               30.00  Kcal/mol/Angstrom^2
          Distance between the geometries:                    3.77  Angstroms

              Atoms that move a lot
                   Atom Label               Movement    Integral

          (HETATM    2 1HT  HET A   1)        1.05        1.05
          (HETATM    9 4HT  HET A   1)        0.39        1.44
          (HETATM    5 2HT  HET A   1)        0.39        1.83
          (HETATM    1  C   HET A   1)        0.34        2.17
          (HETATM    3  C   HET A   1)        0.34        2.51
          (HETATM    6 1HT  HET A   1)        0.32        2.84
          (HETATM    8 3HT  HET A   1)        0.32        3.16
          (HETATM   10  C   HET A   1)        0.25        3.40
          (HETATM    4  C   HET A   1)        0.25        3.65

          Heat of formation of the first geometry:           50.121 Kcal/mol
          Heat of formation of the second geometry:          49.969 Kcal/mol
          Contribution to heat of formation due to stress:  118.41  Kcal/mol
          Gradient arising from first geometry:              84.17  Kcal/mol/Angstrom
          Gradient arising from second geometry:             84.27  Kcal/mol/Angstrom
          Angle between gradient vectors:                   177.60  degrees

          Average of first and second geometries after optimization subject to 
          GEO_REF constraint of 30.0 Kcal/mol/Angstrom^2 towards the data-set geometry written to file:
          'M:\Individual JSmol paths\Cyclobutadiene\Locate_TS_30p0_average.mop'


          Constraining constant: 120.00 Kcal/mol/Angstrom^2

 CYCLE:     1 TIME:   0.016 TIME LEFT:  4.96W  GRAD.:   427.660 HEAT:  551.8379
 CYCLE:     2 TIME:   0.016 TIME LEFT:  4.96W  GRAD.:   424.460 HEAT:  549.0051
 CYCLE:     3 TIME:   0.000 TIME LEFT:  4.96W  GRAD.:   712.341 HEAT:  356.4305
 CYCLE:     4 TIME:   0.016 TIME LEFT:  4.96W  GRAD.:   618.326 HEAT:  326.7403
 CYCLE:     5 TIME:   0.000 TIME LEFT:  4.96W  GRAD.:   246.482 HEAT:  226.0652
 CYCLE:     6 TIME:   0.000 TIME LEFT:  4.96W  GRAD.:   196.599 HEAT:  270.8206
 CYCLE:     7 TIME:   0.016 TIME LEFT:  4.96W  GRAD.:    75.181 HEAT:  257.4418
 CYCLE:     8 TIME:   0.000 TIME LEFT:  4.96W  GRAD.:    69.224 HEAT:  235.3901
 CYCLE:     9 TIME:   0.000 TIME LEFT:  4.96W  GRAD.:    52.565 HEAT:  229.9066
 CYCLE:    10 TIME:   0.016 TIME LEFT:  4.96W  GRAD.:    33.187 HEAT:  239.0589
 CYCLE:    11 TIME:   0.000 TIME LEFT:  4.96W  GRAD.:    16.888 HEAT:  240.6924
 CYCLE:    12 TIME:   0.000 TIME LEFT:  4.96W  GRAD.:    20.456 HEAT:  234.6114
 CYCLE:    13 TIME:   0.000 TIME LEFT:  4.96W  GRAD.:    10.465 HEAT:  233.7766
 CYCLE:    14 TIME:   0.000 TIME LEFT:  4.96W  GRAD.:    20.921 HEAT:  238.2015
 CYCLE:    15 TIME:   0.000 TIME LEFT:  4.96W  GRAD.:    10.786 HEAT:  238.4318
 CYCLE:    16 TIME:   0.000 TIME LEFT:  4.96W  GRAD.:     8.077 HEAT:  235.6179
 CYCLE:    17 TIME:   0.016 TIME LEFT:  4.96W  GRAD.:     5.095 HEAT:  235.2660
 CYCLE:    18 TIME:   0.000 TIME LEFT:  4.96W  GRAD.:     8.995 HEAT:  237.4866
 CYCLE:    19 TIME:   0.000 TIME LEFT:  4.96W  GRAD.:     6.238 HEAT:  237.3038
 CYCLE:    20 TIME:   0.000 TIME LEFT:  4.96W  GRAD.:     7.671 HEAT:  235.5739
 CYCLE:    21 TIME:   0.000 TIME LEFT:  4.96W  GRAD.:     5.373 HEAT:  235.4138
 CYCLE:    22 TIME:   0.000 TIME LEFT:  4.96W  GRAD.:     4.028 HEAT:  236.3266
 CYCLE:    23 TIME:   0.000 TIME LEFT:  4.96W  GRAD.:     2.623 HEAT:  236.4766

     GRADIENT =  2.62303  IS LESS THAN CUTOFF =  4.00000



          First geometry (derived from data-set) after optimization subject to 
          GEO_REF constraint of 120.0 Kcal/mol/Angstrom^2 towards the reference geometry written to file:
          'M:\Individual JSmol paths\Cyclobutadiene\Locate_TS_120p0_first.mop'


          Second geometry (derived from reference geometry)after optimization subject to 
          GEO_REF constraint of 120.0 Kcal/mol/Angstrom^2 towards the data-set geometry written to file:
          'M:\Individual JSmol paths\Cyclobutadiene\Locate_TS_120p0_second.mop'


          Job name:                                        'M:\Individual JSmol paths\Cyclobutadiene\Locate_TS'
          Current value of GEO_REF constraint:              120.00  Kcal/mol/Angstrom^2
          Distance between the geometries:                    1.67  Angstroms

              Atoms that move a lot
                   Atom Label               Movement    Integral

          (HETATM    2 1HT  HET A   1)        0.41        0.41
          (HETATM    3  C   HET A   1)        0.27        0.69
          (HETATM    1  C   HET A   1)        0.27        0.96
          (HETATM   10  C   HET A   1)        0.13        1.09
          (HETATM    4  C   HET A   1)        0.13        1.22
          (HETATM    5 2HT  HET A   1)        0.11        1.33
          (HETATM    9 4HT  HET A   1)        0.11        1.44

          Heat of formation of the first geometry:           71.221 Kcal/mol
          Heat of formation of the second geometry:          70.796 Kcal/mol
          Contribution to heat of formation due to stress:   94.46  Kcal/mol
          Gradient arising from first geometry:             151.53  Kcal/mol/Angstrom
          Gradient arising from second geometry:            151.25  Kcal/mol/Angstrom
          Angle between gradient vectors:                   179.27  degrees

          Average of first and second geometries after optimization subject to 
          GEO_REF constraint of 120.0 Kcal/mol/Angstrom^2 towards the data-set geometry written to file:
          'M:\Individual JSmol paths\Cyclobutadiene\Locate_TS_120p0_average.mop'


          Constraining constant: 120.00 Kcal/mol/Angstrom^2

 CYCLE:     1 TIME:   0.000 TIME LEFT:  4.96W  GRAD.:   121.842 HEAT:  209.5913
 CYCLE:     2 TIME:   0.000 TIME LEFT:  4.96W  GRAD.:   119.892 HEAT:  209.3364
 CYCLE:     3 TIME:   0.000 TIME LEFT:  4.96W  GRAD.:    48.545 HEAT:  193.6521
 CYCLE:     4 TIME:   0.000 TIME LEFT:  4.96W  GRAD.:    49.296 HEAT:  183.1955
 CYCLE:     5 TIME:   0.000 TIME LEFT:  4.96W  GRAD.:    20.830 HEAT:  182.0014
 CYCLE:     6 TIME:   0.016 TIME LEFT:  4.96W  GRAD.:    17.131 HEAT:  182.8883
 CYCLE:     7 TIME:   0.000 TIME LEFT:  4.96W  GRAD.:    16.563 HEAT:  183.6364
 CYCLE:     8 TIME:   0.000 TIME LEFT:  4.96W  GRAD.:    19.785 HEAT:  184.0294
 CYCLE:     9 TIME:   0.000 TIME LEFT:  4.96W  GRAD.:    10.092 HEAT:  183.8462
 CYCLE:    10 TIME:   0.000 TIME LEFT:  4.96W  GRAD.:     7.737 HEAT:  183.5697
 CYCLE:    11 TIME:   0.000 TIME LEFT:  4.96W  GRAD.:     5.078 HEAT:  183.3096
 CYCLE:    12 TIME:   0.000 TIME LEFT:  4.96W  GRAD.:     6.571 HEAT:  183.1609
 CYCLE:    13 TIME:   0.016 TIME LEFT:  4.96W  GRAD.:     3.974 HEAT:  183.2376

     GRADIENT =  3.97398  IS LESS THAN CUTOFF =  4.00000



          First geometry (derived from data-set) after optimization subject to 
          GEO_REF constraint of 120.0 Kcal/mol/Angstrom^2 towards the reference geometry written to file:
          'M:\Individual JSmol paths\Cyclobutadiene\Locate_TS_120p0_first.mop'


          Second geometry (derived from reference geometry)after optimization subject to 
          GEO_REF constraint of 120.0 Kcal/mol/Angstrom^2 towards the data-set geometry written to file:
          'M:\Individual JSmol paths\Cyclobutadiene\Locate_TS_120p0_second.mop'


          Job name:                                        'M:\Individual JSmol paths\Cyclobutadiene\Locate_TS'
          Current value of GEO_REF constraint:              120.00  Kcal/mol/Angstrom^2
          Distance between the geometries:                    1.21  Angstroms

              Atoms that move a lot
                   Atom Label               Movement    Integral

          (HETATM    2 1HT  HET A   1)        0.32        0.32
          (HETATM    1  C   HET A   1)        0.24        0.55
          (HETATM    3  C   HET A   1)        0.24        0.79

          Heat of formation of the first geometry:           63.024 Kcal/mol
          Heat of formation of the second geometry:          62.622 Kcal/mol
          Contribution to heat of formation due to stress:   57.59  Kcal/mol
          Gradient arising from first geometry:             116.73  Kcal/mol/Angstrom
          Gradient arising from second geometry:            118.36  Kcal/mol/Angstrom
          Angle between gradient vectors:                   177.92  degrees

          Average of first and second geometries after optimization subject to 
          GEO_REF constraint of 120.0 Kcal/mol/Angstrom^2 towards the data-set geometry written to file:
          'M:\Individual JSmol paths\Cyclobutadiene\Locate_TS_120p0_average.mop'

  Loop:   1  Energy minimization, excluding active site
 CYCLE:     1 TIME:   0.016 TIME LEFT:  4.96W  GRAD.:    23.391 HEAT:  74.30945
 CYCLE:     2 TIME:   0.000 TIME LEFT:  4.96W  GRAD.:    22.973 HEAT:  74.29895
 CYCLE:     3 TIME:   0.000 TIME LEFT:  4.96W  GRAD.:    23.051 HEAT:  74.05427
 CYCLE:     4 TIME:   0.000 TIME LEFT:  4.96W  GRAD.:    23.113 HEAT:  74.29587
 CYCLE:     5 TIME:   0.000 TIME LEFT:  4.96W  GRAD.:    23.408 HEAT:  74.05502
 CYCLE:     6 TIME:   0.016 TIME LEFT:  4.96W  GRAD.:    16.519 HEAT:  73.86739
 CYCLE:     7 TIME:   0.000 TIME LEFT:  4.96W  GRAD.:    15.311 HEAT:  73.45218
 CYCLE:     8 TIME:   0.000 TIME LEFT:  4.96W  GRAD.:    13.605 HEAT:  73.20673
 CYCLE:     9 TIME:   0.000 TIME LEFT:  4.96W  GRAD.:    14.380 HEAT:  72.97613
 CYCLE:    10 TIME:   0.000 TIME LEFT:  4.96W  GRAD.:    11.646 HEAT:  72.88069
 CYCLE:    11 TIME:   0.000 TIME LEFT:  4.96W  GRAD.:     5.709 HEAT:  72.82868
 CYCLE:    12 TIME:   0.000 TIME LEFT:  4.96W  GRAD.:     5.975 HEAT:  72.78084
 CYCLE:    13 TIME:   0.016 TIME LEFT:  4.96W  GRAD.:     5.513 HEAT:  72.72783
 CYCLE:    14 TIME:   0.000 TIME LEFT:  4.96W  GRAD.:     6.251 HEAT:  72.67463
 CYCLE:    15 TIME:   0.000 TIME LEFT:  4.96W  GRAD.:     8.840 HEAT:  72.61691
 CYCLE:    16 TIME:   0.000 TIME LEFT:  4.96W  GRAD.:     5.545 HEAT:  72.57023
 CYCLE:    17 TIME:   0.000 TIME LEFT:  4.96W  GRAD.:    10.118 HEAT:  72.46004
 CYCLE:    18 TIME:   0.000 TIME LEFT:  4.96W  GRAD.:    11.999 HEAT:  72.33904
 CYCLE:    19 TIME:   0.016 TIME LEFT:  4.96W  GRAD.:    11.808 HEAT:  72.18987
 CYCLE:    20 TIME:   0.000 TIME LEFT:  4.96W  GRAD.:    14.083 HEAT:  72.08118
 CYCLE:    21 TIME:   0.016 TIME LEFT:  4.96W  GRAD.:     9.198 HEAT:  71.94449
 CYCLE:    22 TIME:   0.000 TIME LEFT:  4.96W  GRAD.:    17.100 HEAT:  71.93754
 CYCLE:    23 TIME:   0.000 TIME LEFT:  4.96W  GRAD.:    21.088 HEAT:  71.88797
 CYCLE:    24 TIME:   0.016 TIME LEFT:  4.96W  GRAD.:    28.980 HEAT:  71.99314
 CYCLE:    25 TIME:   0.000 TIME LEFT:  4.96W  GRAD.:     5.365 HEAT:  71.77025
 CYCLE:    26 TIME:   0.000 TIME LEFT:  4.96W  GRAD.:     6.370 HEAT:  71.78593
 CYCLE:    27 TIME:   0.016 TIME LEFT:  4.96W  GRAD.:     2.803 HEAT:  71.75443

     GRADIENT =  2.80254  IS LESS THAN CUTOFF =  5.00000


  Loop:   1  Gradient minimization of atoms in the active site

          Transition state on cycle 1 written to file:
          'M:\Individual JSmol paths\Cyclobutadiene\Locate_TS_Loop1.mop'


          HESSIAN CALCULATED NUMERICALLY

 CYCLE:     1 TIME:   0.016 TIME LEFT:  4.96W  GRAD.:    15.744 HEAT:  71.75340
 CYCLE:     2 TIME:   0.000 TIME LEFT:  4.96W  GRAD.:     3.274 HEAT:  71.56285
 CYCLE:     3 TIME:   0.000 TIME LEFT:  4.96W  GRAD.:     2.784 HEAT:  71.58628

     GRADIENT =  2.78407  IS LESS THAN CUTOFF =  3.00000


  Loop:   2  Energy minimization, excluding active site
 CYCLE:     1 TIME:   0.000 TIME LEFT:  4.96W  GRAD.:     4.452 HEAT:  71.58335

     GRADIENT =  4.45186  IS LESS THAN CUTOFF =  5.00000


  Loop:   2  Gradient minimization of atoms in the active site

          Transition state on cycle 2 written to file:
          'M:\Individual JSmol paths\Cyclobutadiene\Locate_TS_Loop2.mop'


     GRADIENT =  2.87382  IS LESS THAN CUTOFF =  3.00000



 -------------------------------------------------------------------------------
geo-ok GEO_REF="M:\Individual JSmol paths\Cyclobutadiene\Locate_TS_120p0_first.mop"  locate-ts(C:30,120,120;SET:1) opt xyz HTML
 Transition state for CH3Cl --- Cl(-) <=> Cl(-) --- CH3Cl



     GRADIENTS WERE INITIALLY ACCEPTABLY SMALL                
     SCF FIELD WAS ACHIEVED                                   


                              PM7 CALCULATION
                                                       MOPAC2012 (Version: 15.310W)
                                                       Fri Nov 06 10:46:42 2015
                                                       No. of days left = 365




          FINAL HEAT OF FORMATION =         71.58325 KCAL/MOL =     299.50433 KJ/MOL


          TOTAL ENERGY            =       -692.36474 EV
          ELECTRONIC ENERGY       =      -2612.16912 EV
          CORE-CORE REPULSION     =       1919.80438 EV

          GRADIENT NORM           =          2.87382
          NO. OF FILLED LEVELS    =         13
          MOLECULAR WEIGHT        =         66.102

          MOLECULAR DIMENSIONS (Angstroms)

            Atom       Atom       Distance
            H     8    H     5     4.34326
            H     9    H     6     4.12092
            H     7    H     2     1.46471


          SCF CALCULATIONS        =         50
 



       FINAL  POINT  AND  DERIVATIVES

                                         Cartesian Gradients         Cartesian Coordinates          |Gradient|
  Atom                                   X        Y        Z        X          Y          Z
 
    1  C(HETATM    1  C   HET A   1)   -0.165    0.300   -0.865   -0.30648   -0.79829    0.92019       0.930
    2  H(HETATM    2 1HT  HET A   1)    0.465   -0.935   -0.602    1.10490   -0.93769    1.07287       1.205
    3  C(HETATM    3  C   HET A   1)   -0.182   -2.410   -0.319    0.58917    0.38838    0.94151       2.438
 




   ATOM                 CHEMICAL                   X               Y               Z
  NUMBER                 SYMBOL               (ANGSTROMS)     (ANGSTROMS)     (ANGSTROMS)
 
     1       C(HETATM    1  C   HET A   1)   -0.30647654  *  -0.79828900  *   0.92018611  *
     2       H(HETATM    2 1HT  HET A   1)    1.10490161  *  -0.93769374  *   1.07286727  *
     3       C(HETATM    3  C   HET A   1)    0.58917234  *   0.38837622  *   0.94151406  *
     4       C(HETATM    4  C   HET A   1)    0.70806967      0.82680316     -0.39840438   
     5       H(HETATM    5 2HT  HET A   1)   -0.79967176     -1.21629469      1.77198050   
     6       H(HETATM    6 1HT  HET A   1)   -1.32440312     -1.76948690     -0.78006717   
     7       H(HETATM    7 2HT  HET A   1)   -0.12237366      0.05179913     -2.29050424   
     8       H(HETATM    8 3HT  HET A   1)    1.26789902      1.67865716     -0.71967382   
     9       H(HETATM    9 4HT  HET A   1)    0.83110802      0.96562733      1.81074722   
    10       C(HETATM   10  C   HET A   1)   -0.66872105     -1.00050701     -0.43063804   
    11       C(HETATM   11  C   HET A   1)   -0.03946823     -0.02879316     -1.22414341   

                             CARTESIAN COORDINATES

   1    C       -0.306476536    -0.798289003     0.920186108
   2    H        1.104901610    -0.937693736     1.072867271
   3    C        0.589172344     0.388376219     0.941514058
   4    C        0.708069668     0.826803164    -0.398404384
   5    H       -0.799671762    -1.216294692     1.771980497
   6    H       -1.324403120    -1.769486900    -0.780067173
   7    H       -0.122373659     0.051799133    -2.290504240
   8    H        1.267899020     1.678657159    -0.719673821
   9    H        0.831108016     0.965627326     1.810747215
  10    C       -0.668721047    -1.000507014    -0.430638041
  11    C       -0.039468226    -0.028793162    -1.224143412


           Empirical Formula: C5 H6  =    11 atoms



              NET ATOMIC CHARGES AND DIPOLE CONTRIBUTIONS

  ATOM NO.                 TYPE                        CHARGE      No. of ELECS.   s-Pop       p-Pop       
    1          C(HETATM    1  C   HET A   1)          -0.252143        4.2521     1.07397     3.17817
    2          H(HETATM    2 1HT  HET A   1)           0.293642        0.7064     0.70636
    3          C(HETATM    3  C   HET A   1)          -0.252860        4.2529     1.07448     3.17838
    4          C(HETATM    4  C   HET A   1)          -0.196710        4.1967     1.08154     3.11517
    5          H(HETATM    5 2HT  HET A   1)           0.163342        0.8367     0.83666
    6          H(HETATM    6 1HT  HET A   1)           0.150835        0.8492     0.84916
    7          H(HETATM    7 2HT  HET A   1)           0.148481        0.8515     0.85152
    8          H(HETATM    8 3HT  HET A   1)           0.150873        0.8491     0.84913
    9          H(HETATM    9 4HT  HET A   1)           0.163869        0.8361     0.83613
   10          C(HETATM   10  C   HET A   1)          -0.197427        4.1974     1.08094     3.11649
   11          C(HETATM   11  C   HET A   1)          -0.171902        4.1719     1.08537     3.08653
 DIPOLE           X         Y         Z       TOTAL
 POINT-CHG.     1.110    -0.859     1.146     1.812
 HYBRID         0.279    -0.219     0.202     0.408
 SUM            1.389    -1.078     1.348     2.216


          ATOMIC ORBITAL ELECTRON POPULATIONS

                   Atom                  s        px        py        pz   
    1  C(HETATM    1  C   HET A   1)   1.07397   0.97583   1.13197   1.07037
    2  H(HETATM    2 1HT  HET A   1)   0.70636
    3  C(HETATM    3  C   HET A   1)   1.07448   1.16081   0.94520   1.07237
    4  C(HETATM    4  C   HET A   1)   1.08154   1.06835   1.06497   0.98185
    5  H(HETATM    5 2HT  HET A   1)   0.83666
    6  H(HETATM    6 1HT  HET A   1)   0.84916
    7  H(HETATM    7 2HT  HET A   1)   0.85152
    8  H(HETATM    8 3HT  HET A   1)   0.84913
    9  H(HETATM    9 4HT  HET A   1)   0.83613
   10  C(HETATM   10  C   HET A   1)   1.08094   1.06755   1.06601   0.98293
   11  C(HETATM   11  C   HET A   1)   1.08537   1.01692   1.00314   1.06647

 **********************
 *                    *
 * JOB ENDED NORMALLY *
 *                    *
 **********************



 TOTAL JOB TIME:             0.41 SECONDS

 == MOPAC DONE ==
