 *******************************************************************************
 ** Site#: 37037        For non-commercial use only           Version 21.148W **
 *******************************************************************************
 ** Cite this program as: MOPAC2016, Version: 21.148W, James J. P. Stewart,   **
 ** Stewart Computational Chemistry, web: HTTP://OpenMOPAC.net. Days left: 364**
 *******************************************************************************
 **                                                                           **
 **                                MOPAC2016                                  **
 **                                                                           **
 *******************************************************************************

                              PM7 CALCULATION RESULTS

 *******************************************************************************
 *  CALCULATION DONE:                                Sat May 29 10:53:27 2021  *
 *  RESIDUES   - DETERMINE THE SEQUENCE OF RESIDUES
 *  STEP       - STEP-SIZE IN PATH =  -5.000
 *  POINT      - NUMBER OF POINTS IN PATH = 72
 *  T=         - A TIME OF 172800.0 SECONDS REQUESTED
 *  DUMP=N     - RESTART FILE WRITTEN EVERY 7200.0 SECONDS REQUESTED
 *  HTML       - WRITE HTML SCRIPT TO GENERATE ANIMATION USING JSMOL
 *             - TO DISPLAY IN PDB FORMAT, ADD "PDBOUT"
 *  GRAPH      - GENERATE FILE FOR GRAPHICS
 *******************************************************************************
step=-5 points=72 graphf html
 n-Butane, rotation about the C-C-C-C dihedral

  ATOM    CHEMICAL      BOND LENGTH      BOND ANGLE     TWIST ANGLE 
 NUMBER    SYMBOL       (ANGSTROMS)      (DEGREES)       (DEGREES) 
   (I)                     NA:I           NB:NA:I       NC:NB:NA:I       NA    NB    NC 
     1       H          0.00000000       0.0000000       0.0000000        0     0     0
     2       C          1.09467446  *    0.0000000       0.0000000        1     0     0
     3       H          1.09468179  *  108.3060120  *    0.0000000        2     1     0
     4       H          1.09451692  *  108.0828818  *  116.8640524  *     2     1     3
     5       C          1.52032069  *  111.0009945  * -122.0973649  *     2     1     3
     6       H          1.09624936  *  109.1543327  *  -61.3083930  *     5     2     1
     7       H          1.09628873  *  109.1522025  * -178.1804455  *     5     2     1
     8       C          1.52730534  *  111.4939851  *   60.2569333  *     5     2     1
     9       H          1.09624936  *  109.8695164  *   58.8505531  *     8     5     2
    10       H          1.09628873  *  109.8685080  *  -58.8539241  *     8     5     2
    11       C          1.52032069  *  111.4939851  *  180.0000000  +     8     5     2
    12       H          1.09451692  *  110.2642241  *  179.9978269  *    11     8     5
    13       H          1.09468489  *  111.0061140  *   60.2600133  *    11     8     5
    14       H          1.09467662  *  111.0029543  *  -60.2645782  *    11     8     5
 


          CARTESIAN COORDINATES 

    NO.       ATOM           X           Y           Z

     1         H          0.0000      0.0000      0.0000
     2         C          1.0947      0.0000      0.0000
     3         H          1.4385      1.0393      0.0000
     4         H          1.4344     -0.4702      0.9282
     5         C          1.6395     -0.7542     -1.2024
     6         H          1.3043     -1.7968     -1.1551
     7         H          2.7348     -0.7633     -1.1551
     8         C          1.1819     -0.1208     -2.5146
     9         H          1.5171      0.9219     -2.5619
    10         H          0.0867     -0.1116     -2.5619
    11         C          1.7268     -0.8749     -3.7170
    12         H          1.3870     -0.4048     -4.6452
    13         H          1.3829     -1.9142     -3.7171
    14         H          2.8214     -0.8748     -3.7171

 General Reference for PM7:
 "Optimization of Parameters for Semiempirical Methods VI: More Modifications to the 
 NDDO Approximations and Re-optimization of Parameters", J. J. P. Stewart, J. Mol. Mod., 1:32, 19 (2013)
 https://link.springer.com/article/10.1007/s00894-012-1667-x

           Empirical Formula: C4 H10  =    14 atoms



      MOLECULAR POINT GROUP   :   C2h 


      RHF CALCULATION, NO. OF DOUBLY OCCUPIED LEVELS = 13

  ABOUT TO ENTER EF FROM PATHK

          Geometry optimization using EF

          DIAGONAL MATRIX USED AS START HESSIAN

 CYCLE:     1 TIME:   0.000 TIME LEFT:  2.00D  GRAD.:    26.134 HEAT: -27.73416
 CYCLE:     2 TIME:   0.016 TIME LEFT:  2.00D  GRAD.:     5.212 HEAT: -28.15706
 CYCLE:     3 TIME:   0.000 TIME LEFT:  2.00D  GRAD.:     2.767 HEAT: -28.18565
 CYCLE:     4 TIME:   0.000 TIME LEFT:  2.00D  GRAD.:     1.563 HEAT: -28.20242
 CYCLE:     5 TIME:   0.000 TIME LEFT:  2.00D  GRAD.:     1.247 HEAT: -28.20613
 CYCLE:     6 TIME:   0.000 TIME LEFT:  2.00D  GRAD.:     0.523 HEAT: -28.20899

     GRADIENT =  0.52330 IS LESS THAN CUTOFF =  1.00000



          VARIABLE        FUNCTION
 :       180.00000      -28.208994
*REMARK   3 HET = Not identified; C 4 H 10           =    14 atoms res:    1
 step=-5 points=72 graphf html
 n-Butane, rotation about the C-C-C-C dihedral

  H(HETATM    1 1H1  HET A   1)   0.00000000 +0    0.0000000 +0    0.0000000 +0
  C(HETATM    2  C1  HET A   1)   1.09575405 +1    0.0000000 +0    0.0000000 +0     1     0     0
  H(HETATM    3 2H1  HET A   1)   1.09546689 +1  107.6219106 +1    0.0000000 +0     2     1     0
  H(HETATM    4 3H1  HET A   1)   1.09534888 +1  107.6004440 +1  115.6020159 +1     2     1     3
  C(HETATM    5  C2  HET A   1)   1.52881965 +1  111.2487496 +1 -122.3175068 +1     2     1     3
  H(HETATM    6 1H2  HET A   1)   1.10638333 +1  110.0323125 +1  -61.6768890 +1     5     2     1
  H(HETATM    7 2H2  HET A   1)   1.10639933 +1  110.0468446 +1 -177.8699295 +1     5     2     1
  C(HETATM    8  C3  HET A   1)   1.53479463 +1  110.9973114 +1   60.2234639 +1     5     2     1
  H(HETATM    9 1H3  HET A   1)   1.10641575 +1  109.9535151 +1   58.0646220 +1     8     5     2
  H(HETATM   10 2H3  HET A   1)   1.10638994 +1  109.9547297 +1  -58.0573583 +1     8     5     2
  C(HETATM   11  C4  HET A   1)   1.52834672 +1  110.9609913 +1  180.0000000 -1     8     5     2
  H(HETATM   12 1H4  HET A   1)   1.09564125 +1  111.2818947 +1  179.9916299 +1    11     8     5
  H(HETATM   13 2H4  HET A   1)   1.09567194 +1  111.4934411 +1   60.0536889 +1    11     8     5
  H(HETATM   14 3H4  HET A   1)   1.09568482 +1  111.4917401 +1  -60.0697558 +1    11     8     5
 

          Geometry optimization using EF

          DIAGONAL MATRIX USED AS START HESSIAN

 CYCLE:     1 TIME:   0.000 TIME LEFT:  2.00D  GRAD.:    10.308 HEAT: -27.68687
 CYCLE:     2 TIME:   0.000 TIME LEFT:  2.00D  GRAD.:     5.415 HEAT: -27.99647
 CYCLE:     3 TIME:   0.000 TIME LEFT:  2.00D  GRAD.:     2.993 HEAT: -28.16125
 CYCLE:     4 TIME:   0.000 TIME LEFT:  2.00D  GRAD.:     2.010 HEAT: -28.17083
 CYCLE:     5 TIME:   0.016 TIME LEFT:  2.00D  GRAD.:     1.074 HEAT: -28.18028
 CYCLE:     6 TIME:   0.000 TIME LEFT:  2.00D  GRAD.:     0.874 HEAT: -28.18247

     GRADIENT =  0.87431 IS LESS THAN CUTOFF =  1.00000



          VARIABLE        FUNCTION
 :       175.00000      -28.182470
*REMARK   3 HET = Not identified; C 4 H 10           =    14 atoms res:    1
 step=-5 points=72 graphf html
 n-Butane, rotation about the C-C-C-C dihedral

  H(HETATM    1 1H1  HET A   1)   0.00000000 +0    0.0000000 +0    0.0000000 +0
  C(HETATM    2  C1  HET A   1)   1.09556064 +1    0.0000000 +0    0.0000000 +0     1     0     0
  H(HETATM    3 2H1  HET A   1)   1.09561873 +1  107.5524189 +1    0.0000000 +0     2     1     0
  H(HETATM    4 3H1  HET A   1)   1.09554647 +1  107.5041841 +1  115.4894254 +1     2     1     3
  C(HETATM    5  C2  HET A   1)   1.52880773 +1  111.3934331 +1 -122.4257918 +1     2     1     3
  H(HETATM    6 1H2  HET A   1)   1.10595488 +1  110.0965159 +1  -61.8242892 +1     5     2     1
  H(HETATM    7 2H2  HET A   1)   1.10639117 +1  109.9284484 +1 -178.0365802 +1     5     2     1
  C(HETATM    8  C3  HET A   1)   1.53517886 +1  111.0003699 +1   60.1400407 +1     5     2     1
  H(HETATM    9 1H3  HET A   1)   1.10575449 +1  109.7561280 +1   53.3111816 +1     8     5     2
  H(HETATM   10 2H3  HET A   1)   1.10659584 +1  110.0909169 +1  -62.8088989 +1     8     5     2
  C(HETATM   11  C4  HET A   1)   1.52881886 +1  110.9937126 +1  175.0000000 -1     8     5     2
  H(HETATM   12 1H4  HET A   1)   1.09550602 +1  111.2455869 +1 -179.9939488 +1    11     8     5
  H(HETATM   13 2H4  HET A   1)   1.09550063 +1  111.4193840 +1   60.0117756 +1    11     8     5
  H(HETATM   14 3H4  HET A   1)   1.09577778 +1  111.4458533 +1  -60.0930928 +1    11     8     5
 

          Geometry optimization using EF

          DIAGONAL MATRIX USED AS START HESSIAN

 CYCLE:     1 TIME:   0.000 TIME LEFT:  2.00D  GRAD.:    10.521 HEAT: -27.60234
 CYCLE:     2 TIME:   0.020 TIME LEFT:  2.00D  GRAD.:     5.392 HEAT: -27.91487
 CYCLE:     3 TIME:   0.000 TIME LEFT:  2.00D  GRAD.:     3.184 HEAT: -28.08042
 CYCLE:     4 TIME:   0.000 TIME LEFT:  2.00D  GRAD.:     2.191 HEAT: -28.09180
 CYCLE:     5 TIME:   0.000 TIME LEFT:  2.00D  GRAD.:     1.125 HEAT: -28.10361
 CYCLE:     6 TIME:   0.000 TIME LEFT:  2.00D  GRAD.:     0.924 HEAT: -28.10606

     GRADIENT =  0.92355 IS LESS THAN CUTOFF =  1.00000



          VARIABLE        FUNCTION
 :       170.00000      -28.106065
*REMARK   3 HET = Not identified; C 4 H 10           =    14 atoms res:    1
 step=-5 points=72 graphf html
 n-Butane, rotation about the C-C-C-C dihedral

  H(HETATM    1 1H1  HET A   1)   0.00000000 +0    0.0000000 +0    0.0000000 +0
  C(HETATM    2  C1  HET A   1)   1.09559048 +1    0.0000000 +0    0.0000000 +0     1     0     0
  H(HETATM    3 2H1  HET A   1)   1.09558759 +1  107.5690780 +1    0.0000000 +0     2     1     0
  H(HETATM    4 3H1  HET A   1)   1.09560278 +1  107.4722757 +1  115.4588719 +1     2     1     3
  C(HETATM    5  C2  HET A   1)   1.52874861 +1  111.3994907 +1 -122.4767953 +1     2     1     3
  H(HETATM    6 1H2  HET A   1)   1.10573486 +1  110.1920352 +1  -62.0606959 +1     5     2     1
  H(HETATM    7 2H2  HET A   1)   1.10660149 +1  109.8000792 +1 -178.2211507 +1     5     2     1
  C(HETATM    8  C3  HET A   1)   1.53543969 +1  111.0469236 +1   59.9916503 +1     5     2     1
  H(HETATM    9 1H3  HET A   1)   1.10590808 +1  109.7633569 +1   48.4228392 +1     8     5     2
  H(HETATM   10 2H3  HET A   1)   1.10643561 +1  110.1036850 +1  -67.6784267 +1     8     5     2
  C(HETATM   11  C4  HET A   1)   1.52883285 +1  111.0391189 +1  170.0000000 -1     8     5     2
  H(HETATM   12 1H4  HET A   1)   1.09551712 +1  111.2472516 +1  179.9399742 +1    11     8     5
  H(HETATM   13 2H4  HET A   1)   1.09551461 +1  111.4102808 +1   59.9426113 +1    11     8     5
  H(HETATM   14 3H4  HET A   1)   1.09579395 +1  111.4584731 +1  -60.1697477 +1    11     8     5
 

          Geometry optimization using EF

          DIAGONAL MATRIX USED AS START HESSIAN

 CYCLE:     1 TIME:   0.000 TIME LEFT:  2.00D  GRAD.:    10.511 HEAT: -27.48378
 CYCLE:     2 TIME:   0.000 TIME LEFT:  2.00D  GRAD.:     5.486 HEAT: -27.79382
 CYCLE:     3 TIME:   0.000 TIME LEFT:  2.00D  GRAD.:     3.414 HEAT: -27.95827
 CYCLE:     4 TIME:   0.000 TIME LEFT:  2.00D  GRAD.:     2.228 HEAT: -27.97030
 CYCLE:     5 TIME:   0.016 TIME LEFT:  2.00D  GRAD.:     1.202 HEAT: -27.98202
 CYCLE:     6 TIME:   0.000 TIME LEFT:  2.00D  GRAD.:     0.915 HEAT: -27.98484

     GRADIENT =  0.91525 IS LESS THAN CUTOFF =  1.00000



          VARIABLE        FUNCTION
 :       165.00000      -27.984846
*REMARK   3 HET = Not identified; C 4 H 10           =    14 atoms res:    1
 step=-5 points=72 graphf html
 n-Butane, rotation about the C-C-C-C dihedral

  H(HETATM    1 1H1  HET A   1)   0.00000000 +0    0.0000000 +0    0.0000000 +0
  C(HETATM    2  C1  HET A   1)   1.09556855 +1    0.0000000 +0    0.0000000 +0     1     0     0
  H(HETATM    3 2H1  HET A   1)   1.09559345 +1  107.5842658 +1    0.0000000 +0     2     1     0
  H(HETATM    4 3H1  HET A   1)   1.09563289 +1  107.4553968 +1  115.4494910 +1     2     1     3
  C(HETATM    5  C2  HET A   1)   1.52877300 +1  111.3872298 +1 -122.5031583 +1     2     1     3
  H(HETATM    6 1H2  HET A   1)   1.10552333 +1  110.2591229 +1  -62.3756773 +1     5     2     1
  H(HETATM    7 2H2  HET A   1)   1.10678560 +1  109.6732389 +1 -178.4548449 +1     5     2     1
  C(HETATM    8  C3  HET A   1)   1.53582089 +1  111.1091429 +1   59.7838392 +1     5     2     1
  H(HETATM    9 1H3  HET A   1)   1.10617470 +1  109.7798813 +1   43.5801790 +1     8     5     2
  H(HETATM   10 2H3  HET A   1)   1.10616403 +1  110.1175957 +1  -72.4944613 +1     8     5     2
  C(HETATM   11  C4  HET A   1)   1.52886237 +1  111.1094059 +1  165.0000000 -1     8     5     2
  H(HETATM   12 1H4  HET A   1)   1.09552615 +1  111.2432984 +1  179.8234038 +1    11     8     5
  H(HETATM   13 2H4  HET A   1)   1.09552688 +1  111.4041562 +1   59.8312844 +1    11     8     5
  H(HETATM   14 3H4  HET A   1)   1.09579306 +1  111.4613560 +1  -60.2953886 +1    11     8     5
 

          Geometry optimization using EF

          DIAGONAL MATRIX USED AS START HESSIAN

 CYCLE:     1 TIME:   0.000 TIME LEFT:  2.00D  GRAD.:    10.594 HEAT: -27.31382
 CYCLE:     2 TIME:   0.000 TIME LEFT:  2.00D  GRAD.:     5.433 HEAT: -27.62983
 CYCLE:     3 TIME:   0.020 TIME LEFT:  2.00D  GRAD.:     3.252 HEAT: -27.79892
 CYCLE:     4 TIME:   0.000 TIME LEFT:  2.00D  GRAD.:     2.247 HEAT: -27.81108
 CYCLE:     5 TIME:   0.000 TIME LEFT:  2.00D  GRAD.:     1.146 HEAT: -27.82407
 CYCLE:     6 TIME:   0.000 TIME LEFT:  2.00D  GRAD.:     0.950 HEAT: -27.82662

     GRADIENT =  0.94986 IS LESS THAN CUTOFF =  1.00000



          VARIABLE        FUNCTION
 :       160.00000      -27.826622
*REMARK   3 HET = Not identified; C 4 H 10           =    14 atoms res:    1
 step=-5 points=72 graphf html
 n-Butane, rotation about the C-C-C-C dihedral

  H(HETATM    1 1H1  HET A   1)   0.00000000 +0    0.0000000 +0    0.0000000 +0
  C(HETATM    2  C1  HET A   1)   1.09558673 +1    0.0000000 +0    0.0000000 +0     1     0     0
  H(HETATM    3 2H1  HET A   1)   1.09556462 +1  107.6242851 +1    0.0000000 +0     2     1     0
  H(HETATM    4 3H1  HET A   1)   1.09566051 +1  107.4486302 +1  115.4465381 +1     2     1     3
  C(HETATM    5  C2  HET A   1)   1.52882019 +1  111.3937122 +1 -122.5263698 +1     2     1     3
  H(HETATM    6 1H2  HET A   1)   1.10538876 +1  110.2981011 +1  -62.6943439 +1     5     2     1
  H(HETATM    7 2H2  HET A   1)   1.10692127 +1  109.5462817 +1 -178.6569902 +1     5     2     1
  C(HETATM    8  C3  HET A   1)   1.53631043 +1  111.2067543 +1   59.5373959 +1     5     2     1
  H(HETATM    9 1H3  HET A   1)   1.10619616 +1  109.8251974 +1   38.5931106 +1     8     5     2
  H(HETATM   10 2H3  HET A   1)   1.10612447 +1  110.1204849 +1  -77.4437727 +1     8     5     2
  C(HETATM   11  C4  HET A   1)   1.52894941 +1  111.1902033 +1  160.0000000 -1     8     5     2
  H(HETATM   12 1H4  HET A   1)   1.09553673 +1  111.2423210 +1  179.6875630 +1    11     8     5
  H(HETATM   13 2H4  HET A   1)   1.09551918 +1  111.3977834 +1   59.6951178 +1    11     8     5
  H(HETATM   14 3H4  HET A   1)   1.09582522 +1  111.4620101 +1  -60.4474845 +1    11     8     5
 

          Geometry optimization using EF

          DIAGONAL MATRIX USED AS START HESSIAN

 CYCLE:     1 TIME:   0.012 TIME LEFT:  2.00D  GRAD.:    10.540 HEAT: -27.13631
 CYCLE:     2 TIME:   0.000 TIME LEFT:  2.00D  GRAD.:     5.482 HEAT: -27.44678
 CYCLE:     3 TIME:   0.000 TIME LEFT:  2.00D  GRAD.:     3.416 HEAT: -27.61369
 CYCLE:     4 TIME:   0.000 TIME LEFT:  2.00D  GRAD.:     2.250 HEAT: -27.62607
 CYCLE:     5 TIME:   0.000 TIME LEFT:  2.00D  GRAD.:     1.126 HEAT: -27.63893
 CYCLE:     6 TIME:   0.016 TIME LEFT:  2.00D  GRAD.:     0.919 HEAT: -27.64155

     GRADIENT =  0.91906 IS LESS THAN CUTOFF =  1.00000



          VARIABLE        FUNCTION
 :       155.00000      -27.641552
*REMARK   3 HET = Not identified; C 4 H 10           =    14 atoms res:    1
 step=-5 points=72 graphf html
 n-Butane, rotation about the C-C-C-C dihedral

  H(HETATM    1 1H1  HET A   1)   0.00000000 +0    0.0000000 +0    0.0000000 +0
  C(HETATM    2  C1  HET A   1)   1.09558261 +1    0.0000000 +0    0.0000000 +0     1     0     0
  H(HETATM    3 2H1  HET A   1)   1.09558025 +1  107.6381906 +1    0.0000000 +0     2     1     0
  H(HETATM    4 3H1  HET A   1)   1.09566226 +1  107.4432018 +1  115.4493801 +1     2     1     3
  C(HETATM    5  C2  HET A   1)   1.52888351 +1  111.3818024 +1 -122.5250111 +1     2     1     3
  H(HETATM    6 1H2  HET A   1)   1.10525659 +1  110.3086206 +1  -63.0372147 +1     5     2     1
  H(HETATM    7 2H2  HET A   1)   1.10702767 +1  109.4423274 +1 -178.8712335 +1     5     2     1
  C(HETATM    8  C3  HET A   1)   1.53688056 +1  111.3012112 +1   59.2864473 +1     5     2     1
  H(HETATM    9 1H3  HET A   1)   1.10636047 +1  109.8702019 +1   33.6604070 +1     8     5     2
  H(HETATM   10 2H3  HET A   1)   1.10594808 +1  110.1264032 +1  -82.3330388 +1     8     5     2
  C(HETATM   11  C4  HET A   1)   1.52901059 +1  111.2912609 +1  155.0000000 -1     8     5     2
  H(HETATM   12 1H4  HET A   1)   1.09554684 +1  111.2389499 +1  179.5397509 +1    11     8     5
  H(HETATM   13 2H4  HET A   1)   1.09552176 +1  111.3983552 +1   59.5553083 +1    11     8     5
  H(HETATM   14 3H4  HET A   1)   1.09583445 +1  111.4551093 +1  -60.6066034 +1    11     8     5
 

          Geometry optimization using EF

          DIAGONAL MATRIX USED AS START HESSIAN

 CYCLE:     1 TIME:   0.000 TIME LEFT:  2.00D  GRAD.:    10.592 HEAT: -26.92623
 CYCLE:     2 TIME:   0.000 TIME LEFT:  2.00D  GRAD.:     5.518 HEAT: -27.24113
 CYCLE:     3 TIME:   0.000 TIME LEFT:  2.00D  GRAD.:     3.446 HEAT: -27.41251
 CYCLE:     4 TIME:   0.016 TIME LEFT:  2.00D  GRAD.:     2.288 HEAT: -27.42530
 CYCLE:     5 TIME:   0.000 TIME LEFT:  2.00D  GRAD.:     1.125 HEAT: -27.43882
 CYCLE:     6 TIME:   0.000 TIME LEFT:  2.00D  GRAD.:     0.914 HEAT: -27.44134

     GRADIENT =  0.91378 IS LESS THAN CUTOFF =  1.00000



          VARIABLE        FUNCTION
 :       150.00000      -27.441345
*REMARK   3 HET = Not identified; C 4 H 10           =    14 atoms res:    1
 step=-5 points=72 graphf html
 n-Butane, rotation about the C-C-C-C dihedral

  H(HETATM    1 1H1  HET A   1)   0.00000000 +0    0.0000000 +0    0.0000000 +0
  C(HETATM    2  C1  HET A   1)   1.09557049 +1    0.0000000 +0    0.0000000 +0     1     0     0
  H(HETATM    3 2H1  HET A   1)   1.09560523 +1  107.6548452 +1    0.0000000 +0     2     1     0
  H(HETATM    4 3H1  HET A   1)   1.09566573 +1  107.4440984 +1  115.4521819 +1     2     1     3
  C(HETATM    5  C2  HET A   1)   1.52894506 +1  111.3881026 +1 -122.5182294 +1     2     1     3
  H(HETATM    6 1H2  HET A   1)   1.10520344 +1  110.2868824 +1  -63.3547084 +1     5     2     1
  H(HETATM    7 2H2  HET A   1)   1.10707564 +1  109.3581689 +1 -179.0438495 +1     5     2     1
  C(HETATM    8  C3  HET A   1)   1.53748712 +1  111.4132429 +1   59.0274856 +1     5     2     1
  H(HETATM    9 1H3  HET A   1)   1.10638327 +1  109.9271587 +1   28.6437725 +1     8     5     2
  H(HETATM   10 2H3  HET A   1)   1.10589904 +1  110.1278964 +1  -87.3010435 +1     8     5     2
  C(HETATM   11  C4  HET A   1)   1.52909235 +1  111.3957946 +1  150.0000000 -1     8     5     2
  H(HETATM   12 1H4  HET A   1)   1.09555388 +1  111.2379564 +1  179.4069329 +1    11     8     5
  H(HETATM   13 2H4  HET A   1)   1.09551048 +1  111.4010315 +1   59.4268952 +1    11     8     5
  H(HETATM   14 3H4  HET A   1)   1.09585954 +1  111.4435661 +1  -60.7529907 +1    11     8     5
 

          Geometry optimization using EF

          DIAGONAL MATRIX USED AS START HESSIAN

 CYCLE:     1 TIME:   0.000 TIME LEFT:  2.00D  GRAD.:    10.586 HEAT: -26.72162
 CYCLE:     2 TIME:   0.016 TIME LEFT:  2.00D  GRAD.:     5.507 HEAT: -27.03647
 CYCLE:     3 TIME:   0.000 TIME LEFT:  2.00D  GRAD.:     3.437 HEAT: -27.20972
 CYCLE:     4 TIME:   0.000 TIME LEFT:  2.00D  GRAD.:     2.310 HEAT: -27.22272
 CYCLE:     5 TIME:   0.000 TIME LEFT:  2.00D  GRAD.:     1.122 HEAT: -27.23666
 CYCLE:     6 TIME:   0.020 TIME LEFT:  2.00D  GRAD.:     0.897 HEAT: -27.23902

     GRADIENT =  0.89679 IS LESS THAN CUTOFF =  1.00000



          VARIABLE        FUNCTION
 :       145.00000      -27.239023
*REMARK   3 HET = Not identified; C 4 H 10           =    14 atoms res:    1
 step=-5 points=72 graphf html
 n-Butane, rotation about the C-C-C-C dihedral

  H(HETATM    1 1H1  HET A   1)   0.00000000 +0    0.0000000 +0    0.0000000 +0
  C(HETATM    2  C1  HET A   1)   1.09556144 +1    0.0000000 +0    0.0000000 +0     1     0     0
  H(HETATM    3 2H1  HET A   1)   1.09563540 +1  107.6637243 +1    0.0000000 +0     2     1     0
  H(HETATM    4 3H1  HET A   1)   1.09565612 +1  107.4489642 +1  115.4583224 +1     2     1     3
  C(HETATM    5  C2  HET A   1)   1.52901157 +1  111.3995990 +1 -122.5004760 +1     2     1     3
  H(HETATM    6 1H2  HET A   1)   1.10520760 +1  110.2377277 +1  -63.6211137 +1     5     2     1
  H(HETATM    7 2H2  HET A   1)   1.10706645 +1  109.3017038 +1 -179.1636575 +1     5     2     1
  C(HETATM    8  C3  HET A   1)   1.53809217 +1  111.5268335 +1   58.7946967 +1     5     2     1
  H(HETATM    9 1H3  HET A   1)   1.10635768 +1  109.9913373 +1   23.5809699 +1     8     5     2
  H(HETATM   10 2H3  HET A   1)   1.10589744 +1  110.1227137 +1  -92.3118037 +1     8     5     2
  C(HETATM   11  C4  HET A   1)   1.52917415 +1  111.5008421 +1  145.0000000 -1     8     5     2
  H(HETATM   12 1H4  HET A   1)   1.09555659 +1  111.2382141 +1  179.3051550 +1    11     8     5
  H(HETATM   13 2H4  HET A   1)   1.09549359 +1  111.4071349 +1   59.3284034 +1    11     8     5
  H(HETATM   14 3H4  HET A   1)   1.09588496 +1  111.4265165 +1  -60.8665378 +1    11     8     5
 

          Geometry optimization using EF

          DIAGONAL MATRIX USED AS START HESSIAN

 CYCLE:     1 TIME:   0.000 TIME LEFT:  2.00D  GRAD.:    10.567 HEAT: -26.52873
 CYCLE:     2 TIME:   0.000 TIME LEFT:  2.00D  GRAD.:     5.494 HEAT: -26.84314
 CYCLE:     3 TIME:   0.012 TIME LEFT:  2.00D  GRAD.:     3.428 HEAT: -27.01826
 CYCLE:     4 TIME:   0.000 TIME LEFT:  2.00D  GRAD.:     2.332 HEAT: -27.03150
 CYCLE:     5 TIME:   0.000 TIME LEFT:  2.00D  GRAD.:     1.122 HEAT: -27.04574
 CYCLE:     6 TIME:   0.000 TIME LEFT:  2.00D  GRAD.:     0.884 HEAT: -27.04799

     GRADIENT =  0.88394 IS LESS THAN CUTOFF =  1.00000



          VARIABLE        FUNCTION
 :       140.00000      -27.047987
*REMARK   3 HET = Not identified; C 4 H 10           =    14 atoms res:    1
 step=-5 points=72 graphf html
 n-Butane, rotation about the C-C-C-C dihedral

  H(HETATM    1 1H1  HET A   1)   0.00000000 +0    0.0000000 +0    0.0000000 +0
  C(HETATM    2  C1  HET A   1)   1.09554624 +1    0.0000000 +0    0.0000000 +0     1     0     0
  H(HETATM    3 2H1  HET A   1)   1.09567758 +1  107.6632612 +1    0.0000000 +0     2     1     0
  H(HETATM    4 3H1  HET A   1)   1.09563482 +1  107.4581403 +1  115.4672422 +1     2     1     3
  C(HETATM    5  C2  HET A   1)   1.52907512 +1  111.4153116 +1 -122.4691706 +1     2     1     3
  H(HETATM    6 1H2  HET A   1)   1.10526639 +1  110.1642019 +1  -63.8166192 +1     5     2     1
  H(HETATM    7 2H2  HET A   1)   1.10700536 +1  109.2769319 +1 -179.2205855 +1     5     2     1
  C(HETATM    8  C3  HET A   1)   1.53865225 +1  111.6337331 +1   58.6068914 +1     5     2     1
  H(HETATM    9 1H3  HET A   1)   1.10628154 +1  110.0572099 +1   18.4790910 +1     8     5     2
  H(HETATM   10 2H3  HET A   1)   1.10594673 +1  110.1114599 +1  -97.3616128 +1     8     5     2
  C(HETATM   11  C4  HET A   1)   1.52925072 +1  111.6002172 +1  140.0000000 -1     8     5     2
  H(HETATM   12 1H4  HET A   1)   1.09555432 +1  111.2399437 +1  179.2489546 +1    11     8     5
  H(HETATM   13 2H4  HET A   1)   1.09547086 +1  111.4165688 +1   59.2729461 +1    11     8     5
  H(HETATM   14 3H4  HET A   1)   1.09591157 +1  111.4043078 +1  -60.9323831 +1    11     8     5
 

          Geometry optimization using EF

          DIAGONAL MATRIX USED AS START HESSIAN

 CYCLE:     1 TIME:   0.016 TIME LEFT:  2.00D  GRAD.:    10.543 HEAT: -26.35988
 CYCLE:     2 TIME:   0.000 TIME LEFT:  2.00D  GRAD.:     5.483 HEAT: -26.67394
 CYCLE:     3 TIME:   0.000 TIME LEFT:  2.00D  GRAD.:     3.422 HEAT: -26.85103
 CYCLE:     4 TIME:   0.000 TIME LEFT:  2.00D  GRAD.:     2.355 HEAT: -26.86455
 CYCLE:     5 TIME:   0.000 TIME LEFT:  2.00D  GRAD.:     1.123 HEAT: -26.87902
 CYCLE:     6 TIME:   0.020 TIME LEFT:  2.00D  GRAD.:     0.876 HEAT: -26.88126

     GRADIENT =  0.87586 IS LESS THAN CUTOFF =  1.00000



          VARIABLE        FUNCTION
 :       135.00000      -26.881256
*REMARK   3 HET = Not identified; C 4 H 10           =    14 atoms res:    1
 step=-5 points=72 graphf html
 n-Butane, rotation about the C-C-C-C dihedral

  H(HETATM    1 1H1  HET A   1)   0.00000000 +0    0.0000000 +0    0.0000000 +0
  C(HETATM    2  C1  HET A   1)   1.09552556 +1    0.0000000 +0    0.0000000 +0     1     0     0
  H(HETATM    3 2H1  HET A   1)   1.09573082 +1  107.6536326 +1    0.0000000 +0     2     1     0
  H(HETATM    4 3H1  HET A   1)   1.09560202 +1  107.4714922 +1  115.4789004 +1     2     1     3
  C(HETATM    5  C2  HET A   1)   1.52913044 +1  111.4337303 +1 -122.4253972 +1     2     1     3
  H(HETATM    6 1H2  HET A   1)   1.10537537 +1  110.0712341 +1  -63.9266076 +1     5     2     1
  H(HETATM    7 2H2  HET A   1)   1.10689945 +1  109.2853475 +1 -179.2094044 +1     5     2     1
  C(HETATM    8  C3  HET A   1)   1.53912509 +1  111.7270858 +1   58.4767688 +1     5     2     1
  H(HETATM    9 1H3  HET A   1)   1.10615067 +1  110.1214339 +1   13.3420743 +1     8     5     2
  H(HETATM   10 2H3  HET A   1)   1.10605410 +1  110.0931613 +1 -102.4500090 +1     8     5     2
  C(HETATM   11  C4  HET A   1)   1.52931830 +1  111.6873806 +1  135.0000000 -1     8     5     2
  H(HETATM   12 1H4  HET A   1)   1.09554618 +1  111.2434203 +1  179.2482049 +1    11     8     5
  H(HETATM   13 2H4  HET A   1)   1.09544239 +1  111.4286508 +1   59.2689425 +1    11     8     5
  H(HETATM   14 3H4  HET A   1)   1.09594063 +1  111.3775634 +1  -60.9403638 +1    11     8     5
 

          Geometry optimization using EF

          DIAGONAL MATRIX USED AS START HESSIAN

 CYCLE:     1 TIME:   0.000 TIME LEFT:  2.00D  GRAD.:    10.519 HEAT: -26.22706
 CYCLE:     2 TIME:   0.000 TIME LEFT:  2.00D  GRAD.:     5.472 HEAT: -26.54077
 CYCLE:     3 TIME:   0.000 TIME LEFT:  2.00D  GRAD.:     3.414 HEAT: -26.71967
 CYCLE:     4 TIME:   0.012 TIME LEFT:  2.00D  GRAD.:     2.374 HEAT: -26.73349
 CYCLE:     5 TIME:   0.000 TIME LEFT:  2.00D  GRAD.:     1.126 HEAT: -26.74813
 CYCLE:     6 TIME:   0.000 TIME LEFT:  2.00D  GRAD.:     0.880 HEAT: -26.75044

     GRADIENT =  0.88010 IS LESS THAN CUTOFF =  1.00000



          VARIABLE        FUNCTION
 :       130.00000      -26.750444
*REMARK   3 HET = Not identified; C 4 H 10           =    14 atoms res:    1
 step=-5 points=72 graphf html
 n-Butane, rotation about the C-C-C-C dihedral

  H(HETATM    1 1H1  HET A   1)   0.00000000 +0    0.0000000 +0    0.0000000 +0
  C(HETATM    2  C1  HET A   1)   1.09550093 +1    0.0000000 +0    0.0000000 +0     1     0     0
  H(HETATM    3 2H1  HET A   1)   1.09579205 +1  107.6357810 +1    0.0000000 +0     2     1     0
  H(HETATM    4 3H1  HET A   1)   1.09555915 +1  107.4886194 +1  115.4929037 +1     2     1     3
  C(HETATM    5  C2  HET A   1)   1.52917448 +1  111.4536362 +1 -122.3727618 +1     2     1     3
  H(HETATM    6 1H2  HET A   1)   1.10552817 +1  109.9649958 +1  -63.9427911 +1     5     2     1
  H(HETATM    7 2H2  HET A   1)   1.10675745 +1  109.3262374 +1 -179.1301966 +1     5     2     1
  C(HETATM    8  C3  HET A   1)   1.53947391 +1  111.8016604 +1   58.4119879 +1     5     2     1
  H(HETATM    9 1H3  HET A   1)   1.10596757 +1  110.1809261 +1    8.1761287 +1     8     5     2
  H(HETATM   10 2H3  HET A   1)   1.10622058 +1  110.0670512 +1 -107.5742086 +1     8     5     2
  C(HETATM   11  C4  HET A   1)   1.52937409 +1  111.7564229 +1  130.0000000 -1     8     5     2
  H(HETATM   12 1H4  HET A   1)   1.09553137 +1  111.2488576 +1  179.3076792 +1    11     8     5
  H(HETATM   13 2H4  HET A   1)   1.09540889 +1  111.4424098 +1   59.3201273 +1    11     8     5
  H(HETATM   14 3H4  HET A   1)   1.09597309 +1  111.3472376 +1  -60.8853598 +1    11     8     5
 

          Geometry optimization using EF

          DIAGONAL MATRIX USED AS START HESSIAN

 CYCLE:     1 TIME:   0.016 TIME LEFT:  2.00D  GRAD.:    10.498 HEAT: -26.13997
 CYCLE:     2 TIME:   0.000 TIME LEFT:  2.00D  GRAD.:     5.460 HEAT: -26.45318
 CYCLE:     3 TIME:   0.000 TIME LEFT:  2.00D  GRAD.:     3.401 HEAT: -26.63340
 CYCLE:     4 TIME:   0.000 TIME LEFT:  2.00D  GRAD.:     2.387 HEAT: -26.64748
 CYCLE:     5 TIME:   0.000 TIME LEFT:  2.00D  GRAD.:     1.132 HEAT: -26.66222
 CYCLE:     6 TIME:   0.016 TIME LEFT:  2.00D  GRAD.:     0.893 HEAT: -26.66469

     GRADIENT =  0.89305 IS LESS THAN CUTOFF =  1.00000



          VARIABLE        FUNCTION
 :       125.00000      -26.664691
*REMARK   3 HET = Not identified; C 4 H 10           =    14 atoms res:    1
 step=-5 points=72 graphf html
 n-Butane, rotation about the C-C-C-C dihedral

  H(HETATM    1 1H1  HET A   1)   0.00000000 +0    0.0000000 +0    0.0000000 +0
  C(HETATM    2  C1  HET A   1)   1.09547429 +1    0.0000000 +0    0.0000000 +0     1     0     0
  H(HETATM    3 2H1  HET A   1)   1.09585737 +1  107.6110306 +1    0.0000000 +0     2     1     0
  H(HETATM    4 3H1  HET A   1)   1.09550856 +1  107.5087687 +1  115.5084907 +1     2     1     3
  C(HETATM    5  C2  HET A   1)   1.52920584 +1  111.4738834 +1 -122.3149534 +1     2     1     3
  H(HETATM    6 1H2  HET A   1)   1.10571613 +1  109.8526788 +1  -63.8637404 +1     5     2     1
  H(HETATM    7 2H2  HET A   1)   1.10658998 +1  109.3965687 +1 -178.9882459 +1     5     2     1
  C(HETATM    8  C3  HET A   1)   1.53967104 +1  111.8535147 +1   58.4163654 +1     5     2     1
  H(HETATM    9 1H3  HET A   1)   1.10574554 +1  110.2321334 +1    2.9913364 +1     8     5     2
  H(HETATM   10 2H3  HET A   1)   1.10643670 +1  110.0334134 +1 -112.7270812 +1     8     5     2
  C(HETATM   11  C4  HET A   1)   1.52941607 +1  111.8030554 +1  125.0000000 -1     8     5     2
  H(HETATM   12 1H4  HET A   1)   1.09550941 +1  111.2562683 +1  179.4273257 +1    11     8     5
  H(HETATM   13 2H4  HET A   1)   1.09537196 +1  111.4567580 +1   59.4261107 +1    11     8     5
  H(HETATM   14 3H4  HET A   1)   1.09600888 +1  111.3146133 +1  -60.7669684 +1    11     8     5
 

          Geometry optimization using EF

          DIAGONAL MATRIX USED AS START HESSIAN

 CYCLE:     1 TIME:   0.000 TIME LEFT:  2.00D  GRAD.:    10.480 HEAT: -26.10473
 CYCLE:     2 TIME:   0.000 TIME LEFT:  2.00D  GRAD.:     5.447 HEAT: -26.41723
 CYCLE:     3 TIME:   0.000 TIME LEFT:  2.00D  GRAD.:     3.381 HEAT: -26.59805
 CYCLE:     4 TIME:   0.016 TIME LEFT:  2.00D  GRAD.:     2.389 HEAT: -26.61227
 CYCLE:     5 TIME:   0.000 TIME LEFT:  2.00D  GRAD.:     1.139 HEAT: -26.62706
 CYCLE:     6 TIME:   0.000 TIME LEFT:  2.00D  GRAD.:     0.910 HEAT: -26.62970

     GRADIENT =  0.91042 IS LESS THAN CUTOFF =  1.00000



          VARIABLE        FUNCTION
 :       120.00000      -26.629696
*REMARK   3 HET = Not identified; C 4 H 10           =    14 atoms res:    1
 step=-5 points=72 graphf html
 n-Butane, rotation about the C-C-C-C dihedral

  H(HETATM    1 1H1  HET A   1)   0.00000000 +0    0.0000000 +0    0.0000000 +0
  C(HETATM    2  C1  HET A   1)   1.09544778 +1    0.0000000 +0    0.0000000 +0     1     0     0
  H(HETATM    3 2H1  HET A   1)   1.09592320 +1  107.5809990 +1    0.0000000 +0     2     1     0
  H(HETATM    4 3H1  HET A   1)   1.09545282 +1  107.5309396 +1  115.5248638 +1     2     1     3
  C(HETATM    5  C2  HET A   1)   1.52922437 +1  111.4930873 +1 -122.2547901 +1     2     1     3
  H(HETATM    6 1H2  HET A   1)   1.10592780 +1  109.7421827 +1  -63.6946830 +1     5     2     1
  H(HETATM    7 2H2  HET A   1)   1.10640986 +1  109.4908767 +1 -178.7931695 +1     5     2     1
  C(HETATM    8  C3  HET A   1)   1.53970109 +1  111.8801494 +1   58.4903283 +1     5     2     1
  H(HETATM    9 1H3  HET A   1)   1.10550567 +1  110.2710231 +1   -2.1986040 +1     8     5     2
  H(HETATM   10 2H3  HET A   1)   1.10668477 +1  109.9939095 +1 -117.8970517 +1     8     5     2
  C(HETATM   11  C4  HET A   1)   1.52944341 +1  111.8252028 +1  120.0000000 -1     8     5     2
  H(HETATM   12 1H4  HET A   1)   1.09548034 +1  111.2654222 +1  179.6028868 +1    11     8     5
  H(HETATM   13 2H4  HET A   1)   1.09533408 +1  111.4705997 +1   59.5829685 +1    11     8     5
  H(HETATM   14 3H4  HET A   1)   1.09604698 +1  111.2812437 +1  -60.5890266 +1    11     8     5
 

          Geometry optimization using EF

          DIAGONAL MATRIX USED AS START HESSIAN

 CYCLE:     1 TIME:   0.020 TIME LEFT:  2.00D  GRAD.:    10.466 HEAT: -26.12302
 CYCLE:     2 TIME:   0.000 TIME LEFT:  2.00D  GRAD.:     5.432 HEAT: -26.43463
 CYCLE:     3 TIME:   0.000 TIME LEFT:  2.00D  GRAD.:     3.353 HEAT: -26.61525
 CYCLE:     4 TIME:   0.000 TIME LEFT:  2.00D  GRAD.:     2.378 HEAT: -26.62946
 CYCLE:     5 TIME:   0.000 TIME LEFT:  2.00D  GRAD.:     1.145 HEAT: -26.64423
 CYCLE:     6 TIME:   0.012 TIME LEFT:  2.00D  GRAD.:     0.928 HEAT: -26.64700

     GRADIENT =  0.92834 IS LESS THAN CUTOFF =  1.00000



          VARIABLE        FUNCTION
 :       115.00000      -26.647000
*REMARK   3 HET = Not identified; C 4 H 10           =    14 atoms res:    1
 step=-5 points=72 graphf html
 n-Butane, rotation about the C-C-C-C dihedral

  H(HETATM    1 1H1  HET A   1)   0.00000000 +0    0.0000000 +0    0.0000000 +0
  C(HETATM    2  C1  HET A   1)   1.09542378 +1    0.0000000 +0    0.0000000 +0     1     0     0
  H(HETATM    3 2H1  HET A   1)   1.09598626 +1  107.5475571 +1    0.0000000 +0     2     1     0
  H(HETATM    4 3H1  HET A   1)   1.09539463 +1  107.5540224 +1  115.5413038 +1     2     1     3
  C(HETATM    5  C2  HET A   1)   1.52923113 +1  111.5096528 +1 -122.1949717 +1     2     1     3
  H(HETATM    6 1H2  HET A   1)   1.10614915 +1  109.6414905 +1  -63.4468809 +1     5     2     1
  H(HETATM    7 2H2  HET A   1)   1.10623187 +1  109.6014155 +1 -178.5576666 +1     5     2     1
  C(HETATM    8  C3  HET A   1)   1.53956306 +1  111.8813524 +1   58.6305960 +1     5     2     1
  H(HETATM    9 1H3  HET A   1)   1.10527185 +1  110.2935749 +1   -7.3783793 +1     8     5     2
  H(HETATM   10 2H3  HET A   1)   1.10694297 +1  109.9513616 +1 -123.0698397 +1     8     5     2
  C(HETATM   11  C4  HET A   1)   1.52945675 +1  111.8233003 +1  115.0000000 -1     8     5     2
  H(HETATM   12 1H4  HET A   1)   1.09544489 +1  111.2758548 +1  179.8264371 +1    11     8     5
  H(HETATM   13 2H4  HET A   1)   1.09529824 +1  111.4828353 +1   59.7836997 +1    11     8     5
  H(HETATM   14 3H4  HET A   1)   1.09608566 +1  111.2489849 +1  -60.3591808 +1    11     8     5
 

          Geometry optimization using EF

          DIAGONAL MATRIX USED AS START HESSIAN

 CYCLE:     1 TIME:   0.000 TIME LEFT:  2.00D  GRAD.:    10.456 HEAT: -26.19174
 CYCLE:     2 TIME:   0.000 TIME LEFT:  2.00D  GRAD.:     5.414 HEAT: -26.50237
 CYCLE:     3 TIME:   0.000 TIME LEFT:  2.00D  GRAD.:     3.318 HEAT: -26.68201
 CYCLE:     4 TIME:   0.016 TIME LEFT:  2.00D  GRAD.:     2.355 HEAT: -26.69607
 CYCLE:     5 TIME:   0.000 TIME LEFT:  2.00D  GRAD.:     1.147 HEAT: -26.71071
 CYCLE:     6 TIME:   0.000 TIME LEFT:  2.00D  GRAD.:     0.943 HEAT: -26.71357

     GRADIENT =  0.94325 IS LESS THAN CUTOFF =  1.00000



          VARIABLE        FUNCTION
 :       110.00000      -26.713573
*REMARK   3 HET = Not identified; C 4 H 10           =    14 atoms res:    1
 step=-5 points=72 graphf html
 n-Butane, rotation about the C-C-C-C dihedral

  H(HETATM    1 1H1  HET A   1)   0.00000000 +0    0.0000000 +0    0.0000000 +0
  C(HETATM    2  C1  HET A   1)   1.09540480 +1    0.0000000 +0    0.0000000 +0     1     0     0
  H(HETATM    3 2H1  HET A   1)   1.09604254 +1  107.5127302 +1    0.0000000 +0     2     1     0
  H(HETATM    4 3H1  HET A   1)   1.09533715 +1  107.5768249 +1  115.5569343 +1     2     1     3
  C(HETATM    5  C2  HET A   1)   1.52922827 +1  111.5219713 +1 -122.1389591 +1     2     1     3
  H(HETATM    6 1H2  HET A   1)   1.10636478 +1  109.5577333 +1  -63.1369769 +1     5     2     1
  H(HETATM    7 2H2  HET A   1)   1.10607171 +1  109.7187010 +1 -178.2964777 +1     5     2     1
  C(HETATM    8  C3  HET A   1)   1.53927063 +1  111.8600677 +1   58.8298320 +1     5     2     1
  H(HETATM    9 1H3  HET A   1)   1.10506805 +1  110.2963337 +1  -12.5333221 +1     8     5     2
  H(HETATM   10 2H3  HET A   1)   1.10718802 +1  109.9091015 +1 -128.2304570 +1     8     5     2
  C(HETATM   11  C4  HET A   1)   1.52945815 +1  111.8006477 +1  110.0000000 -1     8     5     2
  H(HETATM   12 1H4  HET A   1)   1.09540455 +1  111.2868286 +1 -179.9132924 +1    11     8     5
  H(HETATM   13 2H4  HET A   1)   1.09526775 +1  111.4923268 +1   60.0185695 +1    11     8     5
  H(HETATM   14 3H4  HET A   1)   1.09612220 +1  111.2202033 +1  -60.0885542 +1    11     8     5
 

          Geometry optimization using EF

          DIAGONAL MATRIX USED AS START HESSIAN

 CYCLE:     1 TIME:   0.016 TIME LEFT:  2.00D  GRAD.:    10.449 HEAT: -26.30308
 CYCLE:     2 TIME:   0.000 TIME LEFT:  2.00D  GRAD.:     5.395 HEAT: -26.61268
 CYCLE:     3 TIME:   0.000 TIME LEFT:  2.00D  GRAD.:     3.275 HEAT: -26.79069
 CYCLE:     4 TIME:   0.000 TIME LEFT:  2.00D  GRAD.:     2.322 HEAT: -26.80447
 CYCLE:     5 TIME:   0.000 TIME LEFT:  2.00D  GRAD.:     1.144 HEAT: -26.81883
 CYCLE:     6 TIME:   0.000 TIME LEFT:  2.00D  GRAD.:     0.951 HEAT: -26.82172

     GRADIENT =  0.95144 IS LESS THAN CUTOFF =  1.00000



          VARIABLE        FUNCTION
 :       105.00000      -26.821719
*REMARK   3 HET = Not identified; C 4 H 10           =    14 atoms res:    1
 step=-5 points=72 graphf html
 n-Butane, rotation about the C-C-C-C dihedral

  H(HETATM    1 1H1  HET A   1)   0.00000000 +0    0.0000000 +0    0.0000000 +0
  C(HETATM    2  C1  HET A   1)   1.09539330 +1    0.0000000 +0    0.0000000 +0     1     0     0
  H(HETATM    3 2H1  HET A   1)   1.09608647 +1  107.4786073 +1    0.0000000 +0     2     1     0
  H(HETATM    4 3H1  HET A   1)   1.09528441 +1  107.5980317 +1  115.5704330 +1     2     1     3
  C(HETATM    5  C2  HET A   1)   1.52921865 +1  111.5285704 +1 -122.0914743 +1     2     1     3
  H(HETATM    6 1H2  HET A   1)   1.10656009 +1  109.4961464 +1  -62.7864334 +1     5     2     1
  H(HETATM    7 2H2  HET A   1)   1.10594454 +1  109.8323316 +1 -178.0257851 +1     5     2     1
  C(HETATM    8  C3  HET A   1)   1.53885087 +1  111.8230300 +1   59.0761900 +1     5     2     1
  H(HETATM    9 1H3  HET A   1)   1.10491695 +1  110.2766595 +1  -17.6512401 +1     8     5     2
  H(HETATM   10 2H3  HET A   1)   1.10739751 +1  109.8701821 +1 -133.3647640 +1     8     5     2
  C(HETATM   11  C4  HET A   1)   1.52945065 +1  111.7639438 +1  105.0000000 -1     8     5     2
  H(HETATM   12 1H4  HET A   1)   1.09536179 +1  111.2972393 +1 -179.6307990 +1    11     8     5
  H(HETATM   13 2H4  HET A   1)   1.09524591 +1  111.4978763 +1   60.2752037 +1    11     8     5
  H(HETATM   14 3H4  HET A   1)   1.09615226 +1  111.1980770 +1  -59.7916832 +1    11     8     5
 

          Geometry optimization using EF

          DIAGONAL MATRIX USED AS START HESSIAN

 CYCLE:     1 TIME:   0.000 TIME LEFT:  2.00D  GRAD.:    10.441 HEAT: -26.44472
 CYCLE:     2 TIME:   0.000 TIME LEFT:  2.00D  GRAD.:     5.373 HEAT: -26.75329
 CYCLE:     3 TIME:   0.000 TIME LEFT:  2.00D  GRAD.:     3.227 HEAT: -26.92914
 CYCLE:     4 TIME:   0.016 TIME LEFT:  2.00D  GRAD.:     2.281 HEAT: -26.94253
 CYCLE:     5 TIME:   0.000 TIME LEFT:  2.00D  GRAD.:     1.135 HEAT: -26.95647
 CYCLE:     6 TIME:   0.000 TIME LEFT:  2.00D  GRAD.:     0.949 HEAT: -26.95930

     GRADIENT =  0.94932 IS LESS THAN CUTOFF =  1.00000



          VARIABLE        FUNCTION
 :       100.00000      -26.959303
*REMARK   3 HET = Not identified; C 4 H 10           =    14 atoms res:    1
 step=-5 points=72 graphf html
 n-Butane, rotation about the C-C-C-C dihedral

  H(HETATM    1 1H1  HET A   1)   0.00000000 +0    0.0000000 +0    0.0000000 +0
  C(HETATM    2  C1  HET A   1)   1.09539119 +1    0.0000000 +0    0.0000000 +0     1     0     0
  H(HETATM    3 2H1  HET A   1)   1.09611036 +1  107.4474149 +1    0.0000000 +0     2     1     0
  H(HETATM    4 3H1  HET A   1)   1.09524163 +1  107.6161505 +1  115.5798726 +1     2     1     3
  C(HETATM    5  C2  HET A   1)   1.52920492 +1  111.5282004 +1 -122.0586878 +1     2     1     3
  H(HETATM    6 1H2  HET A   1)   1.10672391 +1  109.4591796 +1  -62.4211900 +1     5     2     1
  H(HETATM    7 2H2  HET A   1)   1.10586372 +1  109.9318834 +1 -177.7631426 +1     5     2     1
  C(HETATM    8  C3  HET A   1)   1.53834148 +1  111.7811651 +1   59.3524803 +1     5     2     1
  H(HETATM    9 1H3  HET A   1)   1.10483869 +1  110.2327148 +1  -22.7237855 +1     8     5     2
  H(HETATM   10 2H3  HET A   1)   1.10755289 +1  109.8365798 +1 -138.4606322 +1     8     5     2
  C(HETATM   11  C4  HET A   1)   1.52943730 +1  111.7238206 +1  100.0000000 -1     8     5     2
  H(HETATM   12 1H4  HET A   1)   1.09532014 +1  111.3055389 +1 -179.3440203 +1    11     8     5
  H(HETATM   13 2H4  HET A   1)   1.09523544 +1  111.4982631 +1   60.5381986 +1    11     8     5
  H(HETATM   14 3H4  HET A   1)   1.09616948 +1  111.1867270 +1  -59.4869643 +1    11     8     5
 

          Geometry optimization using EF

          DIAGONAL MATRIX USED AS START HESSIAN

 CYCLE:     1 TIME:   0.016 TIME LEFT:  2.00D  GRAD.:    10.430 HEAT: -26.60042
 CYCLE:     2 TIME:   0.000 TIME LEFT:  2.00D  GRAD.:     5.350 HEAT: -26.90798
 CYCLE:     3 TIME:   0.000 TIME LEFT:  2.00D  GRAD.:     3.189 HEAT: -27.08135
 CYCLE:     4 TIME:   0.000 TIME LEFT:  2.00D  GRAD.:     2.257 HEAT: -27.09437
 CYCLE:     5 TIME:   0.000 TIME LEFT:  2.00D  GRAD.:     1.117 HEAT: -27.10746
 CYCLE:     6 TIME:   0.000 TIME LEFT:  2.00D  GRAD.:     0.935 HEAT: -27.11031

     GRADIENT =  0.93521 IS LESS THAN CUTOFF =  1.00000



          VARIABLE        FUNCTION
 :        95.00000      -27.110306
*REMARK   3 HET = Not identified; C 4 H 10           =    14 atoms res:    1
 step=-5 points=72 graphf html
 n-Butane, rotation about the C-C-C-C dihedral

  H(HETATM    1 1H1  HET A   1)   0.00000000 +0    0.0000000 +0    0.0000000 +0
  C(HETATM    2  C1  HET A   1)   1.09538584 +1    0.0000000 +0    0.0000000 +0     1     0     0
  H(HETATM    3 2H1  HET A   1)   1.09612039 +1  107.4184675 +1    0.0000000 +0     2     1     0
  H(HETATM    4 3H1  HET A   1)   1.09521310 +1  107.6291022 +1  115.5847462 +1     2     1     3
  C(HETATM    5  C2  HET A   1)   1.52919037 +1  111.5279466 +1 -122.0433669 +1     2     1     3
  H(HETATM    6 1H2  HET A   1)   1.10685294 +1  109.4461412 +1  -62.0766733 +1     5     2     1
  H(HETATM    7 2H2  HET A   1)   1.10583868 +1  110.0076789 +1 -177.5326231 +1     5     2     1
  C(HETATM    8  C3  HET A   1)   1.53778855 +1  111.7495756 +1   59.6268828 +1     5     2     1
  H(HETATM    9 1H3  HET A   1)   1.10485656 +1  110.1611854 +1  -27.7458350 +1     8     5     2
  H(HETATM   10 2H3  HET A   1)   1.10763440 +1  109.8114113 +1 -143.5077220 +1     8     5     2
  C(HETATM   11  C4  HET A   1)   1.52941745 +1  111.6945614 +1   95.0000000 -1     8     5     2
  H(HETATM   12 1H4  HET A   1)   1.09528337 +1  111.3099203 +1 -179.0751773 +1    11     8     5
  H(HETATM   13 2H4  HET A   1)   1.09523630 +1  111.4933106 +1   60.7872557 +1    11     8     5
  H(HETATM   14 3H4  HET A   1)   1.09616695 +1  111.1896628 +1  -59.1986197 +1    11     8     5
 

          Geometry optimization using EF

          DIAGONAL MATRIX USED AS START HESSIAN

 CYCLE:     1 TIME:   0.000 TIME LEFT:  2.00D  GRAD.:    10.414 HEAT: -26.75110
 CYCLE:     2 TIME:   0.000 TIME LEFT:  2.00D  GRAD.:     5.326 HEAT: -27.05768
 CYCLE:     3 TIME:   0.000 TIME LEFT:  2.00D  GRAD.:     3.136 HEAT: -27.22854
 CYCLE:     4 TIME:   0.020 TIME LEFT:  2.00D  GRAD.:     2.208 HEAT: -27.24108
 CYCLE:     5 TIME:   0.000 TIME LEFT:  2.00D  GRAD.:     1.097 HEAT: -27.25362
 CYCLE:     6 TIME:   0.000 TIME LEFT:  2.00D  GRAD.:     0.908 HEAT: -27.25621

     GRADIENT =  0.90751 IS LESS THAN CUTOFF =  1.00000



          VARIABLE        FUNCTION
 :        90.00000      -27.256215
*REMARK   3 HET = Not identified; C 4 H 10           =    14 atoms res:    1
 step=-5 points=72 graphf html
 n-Butane, rotation about the C-C-C-C dihedral

  H(HETATM    1 1H1  HET A   1)   0.00000000 +0    0.0000000 +0    0.0000000 +0
  C(HETATM    2  C1  HET A   1)   1.09540686 +1    0.0000000 +0    0.0000000 +0     1     0     0
  H(HETATM    3 2H1  HET A   1)   1.09607492 +1  107.4017517 +1    0.0000000 +0     2     1     0
  H(HETATM    4 3H1  HET A   1)   1.09521142 +1  107.6356371 +1  115.5768149 +1     2     1     3
  C(HETATM    5  C2  HET A   1)   1.52916351 +1  111.5114656 +1 -122.0636245 +1     2     1     3
  H(HETATM    6 1H2  HET A   1)   1.10694744 +1  109.4526313 +1  -61.7823434 +1     5     2     1
  H(HETATM    7 2H2  HET A   1)   1.10587844 +1  110.0519598 +1 -177.3515730 +1     5     2     1
  C(HETATM    8  C3  HET A   1)   1.53723680 +1  111.7466795 +1   59.8806381 +1     5     2     1
  H(HETATM    9 1H3  HET A   1)   1.10496226 +1  110.0670682 +1  -32.7237547 +1     8     5     2
  H(HETATM   10 2H3  HET A   1)   1.10766256 +1  109.7857925 +1 -148.5038315 +1     8     5     2
  C(HETATM   11  C4  HET A   1)   1.52939480 +1  111.6949824 +1   90.0000000 -1     8     5     2
  H(HETATM   12 1H4  HET A   1)   1.09525871 +1  111.3078940 +1 -178.8500220 +1    11     8     5
  H(HETATM   13 2H4  HET A   1)   1.09525132 +1  111.4807256 +1   60.9999391 +1    11     8     5
  H(HETATM   14 3H4  HET A   1)   1.09613669 +1  111.2132463 +1  -58.9537862 +1    11     8     5
 

          Geometry optimization using EF

          DIAGONAL MATRIX USED AS START HESSIAN

 CYCLE:     1 TIME:   0.000 TIME LEFT:  2.00D  GRAD.:    10.402 HEAT: -26.87704
 CYCLE:     2 TIME:   0.012 TIME LEFT:  2.00D  GRAD.:     5.307 HEAT: -27.18288
 CYCLE:     3 TIME:   0.000 TIME LEFT:  2.00D  GRAD.:     3.087 HEAT: -27.35134
 CYCLE:     4 TIME:   0.000 TIME LEFT:  2.00D  GRAD.:     2.163 HEAT: -27.36342
 CYCLE:     5 TIME:   0.000 TIME LEFT:  2.00D  GRAD.:     1.075 HEAT: -27.37536
 CYCLE:     6 TIME:   0.000 TIME LEFT:  2.00D  GRAD.:     0.874 HEAT: -27.37769

     GRADIENT =  0.87377 IS LESS THAN CUTOFF =  1.00000



          VARIABLE        FUNCTION
 :        85.00000      -27.377693
*REMARK   3 HET = Not identified; C 4 H 10           =    14 atoms res:    1
 step=-5 points=72 graphf html
 n-Butane, rotation about the C-C-C-C dihedral

  H(HETATM    1 1H1  HET A   1)   0.00000000 +0    0.0000000 +0    0.0000000 +0
  C(HETATM    2  C1  HET A   1)   1.09543084 +1    0.0000000 +0    0.0000000 +0     1     0     0
  H(HETATM    3 2H1  HET A   1)   1.09599039 +1  107.3995038 +1    0.0000000 +0     2     1     0
  H(HETATM    4 3H1  HET A   1)   1.09524140 +1  107.6329739 +1  115.5581788 +1     2     1     3
  C(HETATM    5  C2  HET A   1)   1.52912703 +1  111.4891730 +1 -122.1185598 +1     2     1     3
  H(HETATM    6 1H2  HET A   1)   1.10701939 +1  109.4727936 +1  -61.5750975 +1     5     2     1
  H(HETATM    7 2H2  HET A   1)   1.10598154 +1  110.0590140 +1 -177.2435684 +1     5     2     1
  C(HETATM    8  C3  HET A   1)   1.53673528 +1  111.7903451 +1   60.0739391 +1     5     2     1
  H(HETATM    9 1H3  HET A   1)   1.10515842 +1  109.9497524 +1  -37.6628086 +1     8     5     2
  H(HETATM   10 2H3  HET A   1)   1.10764417 +1  109.7582755 +1 -153.4468081 +1     8     5     2
  C(HETATM   11  C4  HET A   1)   1.52935884 +1  111.7429811 +1   85.0000000 -1     8     5     2
  H(HETATM   12 1H4  HET A   1)   1.09525026 +1  111.2977580 +1 -178.6979131 +1    11     8     5
  H(HETATM   13 2H4  HET A   1)   1.09527590 +1  111.4617943 +1   61.1473382 +1    11     8     5
  H(HETATM   14 3H4  HET A   1)   1.09607817 +1  111.2578165 +1  -58.7867980 +1    11     8     5
 

          Geometry optimization using EF

          DIAGONAL MATRIX USED AS START HESSIAN

 CYCLE:     1 TIME:   0.000 TIME LEFT:  2.00D  GRAD.:    10.400 HEAT: -26.95997
 CYCLE:     2 TIME:   0.000 TIME LEFT:  2.00D  GRAD.:     5.296 HEAT: -27.26547
 CYCLE:     3 TIME:   0.000 TIME LEFT:  2.00D  GRAD.:     3.050 HEAT: -27.43199
 CYCLE:     4 TIME:   0.020 TIME LEFT:  2.00D  GRAD.:     2.132 HEAT: -27.44372
 CYCLE:     5 TIME:   0.000 TIME LEFT:  2.00D  GRAD.:     1.062 HEAT: -27.45527
 CYCLE:     6 TIME:   0.000 TIME LEFT:  2.00D  GRAD.:     0.852 HEAT: -27.45743

     GRADIENT =  0.85172 IS LESS THAN CUTOFF =  1.00000



          VARIABLE        FUNCTION
 :        80.00000      -27.457434
*REMARK   3 HET = Not identified; C 4 H 10           =    14 atoms res:    1
 step=-5 points=72 graphf html
 n-Butane, rotation about the C-C-C-C dihedral

  H(HETATM    1 1H1  HET A   1)   0.00000000 +0    0.0000000 +0    0.0000000 +0
  C(HETATM    2  C1  HET A   1)   1.09545627 +1    0.0000000 +0    0.0000000 +0     1     0     0
  H(HETATM    3 2H1  HET A   1)   1.09587258 +1  107.4162350 +1    0.0000000 +0     2     1     0
  H(HETATM    4 3H1  HET A   1)   1.09530833 +1  107.6191214 +1  115.5273508 +1     2     1     3
  C(HETATM    5  C2  HET A   1)   1.52906830 +1  111.4642611 +1 -122.2100387 +1     2     1     3
  H(HETATM    6 1H2  HET A   1)   1.10708417 +1  109.5000203 +1  -61.4934823 +1     5     2     1
  H(HETATM    7 2H2  HET A   1)   1.10614534 +1  110.0261634 +1 -177.2351408 +1     5     2     1
  C(HETATM    8  C3  HET A   1)   1.53632643 +1  111.8946144 +1   60.1665114 +1     5     2     1
  H(HETATM    9 1H3  HET A   1)   1.10541429 +1  109.8147401 +1  -42.5783565 +1     8     5     2
  H(HETATM   10 2H3  HET A   1)   1.10762121 +1  109.7211503 +1 -158.3445523 +1     8     5     2
  C(HETATM   11  C4  HET A   1)   1.52930075 +1  111.8530644 +1   80.0000000 -1     8     5     2
  H(HETATM   12 1H4  HET A   1)   1.09526234 +1  111.2785234 +1 -178.6496182 +1    11     8     5
  H(HETATM   13 2H4  HET A   1)   1.09530512 +1  111.4379645 +1   61.1981482 +1    11     8     5
  H(HETATM   14 3H4  HET A   1)   1.09599961 +1  111.3210611 +1  -58.7339265 +1    11     8     5
 

          Geometry optimization using EF

          DIAGONAL MATRIX USED AS START HESSIAN

 CYCLE:     1 TIME:   0.000 TIME LEFT:  2.00D  GRAD.:    10.418 HEAT: -26.98713
 CYCLE:     2 TIME:   0.012 TIME LEFT:  2.00D  GRAD.:     5.297 HEAT: -27.29264
 CYCLE:     3 TIME:   0.000 TIME LEFT:  2.00D  GRAD.:     3.030 HEAT: -27.45763
 CYCLE:     4 TIME:   0.000 TIME LEFT:  2.00D  GRAD.:     2.120 HEAT: -27.46925
 CYCLE:     5 TIME:   0.000 TIME LEFT:  2.00D  GRAD.:     1.075 HEAT: -27.48087
 CYCLE:     6 TIME:   0.016 TIME LEFT:  2.00D  GRAD.:     0.868 HEAT: -27.48306

     GRADIENT =  0.86758 IS LESS THAN CUTOFF =  1.00000



          VARIABLE        FUNCTION
 :        75.00000      -27.483057
*REMARK   3 HET = Not identified; C 4 H 10           =    14 atoms res:    1
 step=-5 points=72 graphf html
 n-Butane, rotation about the C-C-C-C dihedral

  H(HETATM    1 1H1  HET A   1)   0.00000000 +0    0.0000000 +0    0.0000000 +0
  C(HETATM    2  C1  HET A   1)   1.09547926 +1    0.0000000 +0    0.0000000 +0     1     0     0
  H(HETATM    3 2H1  HET A   1)   1.09573713 +1  107.4560011 +1    0.0000000 +0     2     1     0
  H(HETATM    4 3H1  HET A   1)   1.09541277 +1  107.5927648 +1  115.4863245 +1     2     1     3
  C(HETATM    5  C2  HET A   1)   1.52897894 +1  111.4406340 +1 -122.3334788 +1     2     1     3
  H(HETATM    6 1H2  HET A   1)   1.10715476 +1  109.5288152 +1  -61.5736887 +1     5     2     1
  H(HETATM    7 2H2  HET A   1)   1.10636324 +1  109.9539288 +1 -177.3534710 +1     5     2     1
  C(HETATM    8  C3  HET A   1)   1.53604396 +1  112.0643448 +1   60.1188051 +1     5     2     1
  H(HETATM    9 1H3  HET A   1)   1.10567755 +1  109.6713326 +1  -47.4893618 +1     8     5     2
  H(HETATM   10 2H3  HET A   1)   1.10765130 +1  109.6659446 +1 -163.2112580 +1     8     5     2
  C(HETATM   11  C4  HET A   1)   1.52921177 +1  112.0312019 +1   75.0000000 -1     8     5     2
  H(HETATM   12 1H4  HET A   1)   1.09529748 +1  111.2504789 +1 -178.7352848 +1    11     8     5
  H(HETATM   13 2H4  HET A   1)   1.09533315 +1  111.4116068 +1   61.1204253 +1    11     8     5
  H(HETATM   14 3H4  HET A   1)   1.09591672 +1  111.3967110 +1  -58.8303442 +1    11     8     5
 

          Geometry optimization using EF

          DIAGONAL MATRIX USED AS START HESSIAN

 CYCLE:     1 TIME:   0.000 TIME LEFT:  2.00D  GRAD.:    10.465 HEAT: -26.95319
 CYCLE:     2 TIME:   0.000 TIME LEFT:  2.00D  GRAD.:     5.307 HEAT: -27.25884
 CYCLE:     3 TIME:   0.000 TIME LEFT:  2.00D  GRAD.:     3.027 HEAT: -27.42250
 CYCLE:     4 TIME:   0.016 TIME LEFT:  2.00D  GRAD.:     2.128 HEAT: -27.43426
 CYCLE:     5 TIME:   0.000 TIME LEFT:  2.00D  GRAD.:     1.124 HEAT: -27.44662
 CYCLE:     6 TIME:   0.000 TIME LEFT:  2.00D  GRAD.:     0.946 HEAT: -27.44916

     GRADIENT =  0.94618 IS LESS THAN CUTOFF =  1.00000



          VARIABLE        FUNCTION
 :        70.00000      -27.449158
*REMARK   3 HET = Not identified; C 4 H 10           =    14 atoms res:    1
 step=-5 points=72 graphf html
 n-Butane, rotation about the C-C-C-C dihedral

  H(HETATM    1 1H1  HET A   1)   0.00000000 +0    0.0000000 +0    0.0000000 +0
  C(HETATM    2  C1  HET A   1)   1.09549825 +1    0.0000000 +0    0.0000000 +0     1     0     0
  H(HETATM    3 2H1  HET A   1)   1.09560355 +1  107.5198544 +1    0.0000000 +0     2     1     0
  H(HETATM    4 3H1  HET A   1)   1.09554821 +1  107.5541829 +1  115.4401963 +1     2     1     3
  C(HETATM    5  C2  HET A   1)   1.52885830 +1  111.4204397 +1 -122.4765123 +1     2     1     3
  H(HETATM    6 1H2  HET A   1)   1.10723507 +1  109.5558907 +1  -61.8463627 +1     5     2     1
  H(HETATM    7 2H2  HET A   1)   1.10662715 +1  109.8461534 +1 -177.6246182 +1     5     2     1
  C(HETATM    8  C3  HET A   1)   1.53591058 +1  112.2920004 +1   59.8981857 +1     5     2     1
  H(HETATM    9 1H3  HET A   1)   1.10589327 +1  109.5308099 +1  -52.4119624 +1     8     5     2
  H(HETATM   10 2H3  HET A   1)   1.10778305 +1  109.5876964 +1 -168.0629810 +1     8     5     2
  C(HETATM   11  C4  HET A   1)   1.52908824 +1  112.2709671 +1   70.0000000 -1     8     5     2
  H(HETATM   12 1H4  HET A   1)   1.09535545 +1  111.2154639 +1 -178.9825604 +1    11     8     5
  H(HETATM   13 2H4  HET A   1)   1.09535582 +1  111.3855910 +1   60.8842047 +1    11     8     5
  H(HETATM   14 3H4  HET A   1)   1.09584578 +1  111.4757429 +1  -59.1059806 +1    11     8     5
 

          Geometry optimization using EF

          DIAGONAL MATRIX USED AS START HESSIAN

 CYCLE:     1 TIME:   0.016 TIME LEFT:  2.00D  GRAD.:    10.545 HEAT: -26.86045
 CYCLE:     2 TIME:   0.000 TIME LEFT:  2.00D  GRAD.:     5.324 HEAT: -27.16611
 CYCLE:     3 TIME:   0.000 TIME LEFT:  2.00D  GRAD.:     3.040 HEAT: -27.32830
 CYCLE:     4 TIME:   0.000 TIME LEFT:  2.00D  GRAD.:     2.152 HEAT: -27.34045
 CYCLE:     5 TIME:   0.000 TIME LEFT:  2.00D  GRAD.:     1.207 HEAT: -27.35425
 CYCLE:     6 TIME:   0.020 TIME LEFT:  2.00D  GRAD.:     1.090 HEAT: -27.35755
 CYCLE:     7 TIME:   0.000 TIME LEFT:  2.00D  GRAD.:     0.766 HEAT: -27.36131

     GRADIENT =  0.76625 IS LESS THAN CUTOFF =  1.00000



          VARIABLE        FUNCTION
 :        65.00000      -27.361313
*REMARK   3 HET = Not identified; C 4 H 10           =    14 atoms res:    1
 step=-5 points=72 graphf html
 n-Butane, rotation about the C-C-C-C dihedral

  H(HETATM    1 1H1  HET A   1)   0.00000000 +0    0.0000000 +0    0.0000000 +0
  C(HETATM    2  C1  HET A   1)   1.09546342 +1    0.0000000 +0    0.0000000 +0     1     0     0
  H(HETATM    3 2H1  HET A   1)   1.09542499 +1  107.6076165 +1    0.0000000 +0     2     1     0
  H(HETATM    4 3H1  HET A   1)   1.09560619 +1  107.4923379 +1  115.4219464 +1     2     1     3
  C(HETATM    5  C2  HET A   1)   1.52890530 +1  111.3827292 +1 -122.6263558 +1     2     1     3
  H(HETATM    6 1H2  HET A   1)   1.10704636 +1  109.5983360 +1  -62.5508363 +1     5     2     1
  H(HETATM    7 2H2  HET A   1)   1.10681505 +1  109.6871051 +1 -178.3764829 +1     5     2     1
  C(HETATM    8  C3  HET A   1)   1.53616931 +1  112.5468394 +1   59.2505796 +1     5     2     1
  H(HETATM    9 1H3  HET A   1)   1.10637811 +1  109.7656692 +1  -57.4237301 +1     8     5     2
  H(HETATM   10 2H3  HET A   1)   1.10753347 +1  109.1284824 +1 -173.0055701 +1     8     5     2
  C(HETATM   11  C4  HET A   1)   1.52866895 +1  112.5569761 +1   65.0000000 -1     8     5     2
  H(HETATM   12 1H4  HET A   1)   1.09539562 +1  111.1721790 +1 -179.7439829 +1    11     8     5
  H(HETATM   13 2H4  HET A   1)   1.09546674 +1  111.3448460 +1   60.2199042 +1    11     8     5
  H(HETATM   14 3H4  HET A   1)   1.09561371 +1  111.5668999 +1  -59.8431923 +1    11     8     5
 

          Geometry optimization using EF

          DIAGONAL MATRIX USED AS START HESSIAN

 CYCLE:     1 TIME:   0.000 TIME LEFT:  2.00D  GRAD.:    10.869 HEAT: -26.70538
 CYCLE:     2 TIME:   0.000 TIME LEFT:  2.00D  GRAD.:     5.594 HEAT: -27.02818
 CYCLE:     3 TIME:   0.012 TIME LEFT:  2.00D  GRAD.:     2.771 HEAT: -27.19513
 CYCLE:     4 TIME:   0.000 TIME LEFT:  2.00D  GRAD.:     1.852 HEAT: -27.20482
 CYCLE:     5 TIME:   0.000 TIME LEFT:  2.00D  GRAD.:     1.206 HEAT: -27.21634
 CYCLE:     6 TIME:   0.000 TIME LEFT:  2.00D  GRAD.:     1.250 HEAT: -27.22009
 CYCLE:     7 TIME:   0.000 TIME LEFT:  2.00D  GRAD.:     1.142 HEAT: -27.22634
 CYCLE:     8 TIME:   0.000 TIME LEFT:  2.00D  GRAD.:     0.897 HEAT: -27.22882

     GRADIENT =  0.89742 IS LESS THAN CUTOFF =  1.00000



          VARIABLE        FUNCTION
 :        60.00000      -27.228818
*REMARK   3 HET = Not identified; C 4 H 10           =    14 atoms res:    1
 step=-5 points=72 graphf html
 n-Butane, rotation about the C-C-C-C dihedral

  H(HETATM    1 1H1  HET A   1)   0.00000000 +0    0.0000000 +0    0.0000000 +0
  C(HETATM    2  C1  HET A   1)   1.09550910 +1    0.0000000 +0    0.0000000 +0     1     0     0
  H(HETATM    3 2H1  HET A   1)   1.09528466 +1  107.6942736 +1    0.0000000 +0     2     1     0
  H(HETATM    4 3H1  HET A   1)   1.09569609 +1  107.4615572 +1  115.4122820 +1     2     1     3
  C(HETATM    5  C2  HET A   1)   1.52882019 +1  111.3591981 +1 -122.7137894 +1     2     1     3
  H(HETATM    6 1H2  HET A   1)   1.10701442 +1  109.6346870 +1  -63.7193537 +1     5     2     1
  H(HETATM    7 2H2  HET A   1)   1.10706069 +1  109.5312762 +1 -179.4951125 +1     5     2     1
  C(HETATM    8  C3  HET A   1)   1.53639289 +1  112.8144480 +1   58.1684798 +1     5     2     1
  H(HETATM    9 1H3  HET A   1)   1.10656747 +1  109.7346866 +1  -62.4709647 +1     8     5     2
  H(HETATM   10 2H3  HET A   1)   1.10764478 +1  108.9771159 +1 -177.9523972 +1     8     5     2
  C(HETATM   11  C4  HET A   1)   1.52856462 +1  112.8284183 +1   60.0000000 -1     8     5     2
  H(HETATM   12 1H4  HET A   1)   1.09547296 +1  111.1407789 +1  179.0798700 +1    11     8     5
  H(HETATM   13 2H4  HET A   1)   1.09552677 +1  111.3298392 +1   59.0637787 +1    11     8     5
  H(HETATM   14 3H4  HET A   1)   1.09554367 +1  111.6112232 +1  -61.0631776 +1    11     8     5
 

          Geometry optimization using EF

          DIAGONAL MATRIX USED AS START HESSIAN

 CYCLE:     1 TIME:   0.000 TIME LEFT:  2.00D  GRAD.:    10.804 HEAT: -26.54570
 CYCLE:     2 TIME:   0.000 TIME LEFT:  2.00D  GRAD.:     5.578 HEAT: -26.86058
 CYCLE:     3 TIME:   0.000 TIME LEFT:  2.00D  GRAD.:     2.715 HEAT: -27.02200
 CYCLE:     4 TIME:   0.000 TIME LEFT:  2.00D  GRAD.:     1.792 HEAT: -27.03121
 CYCLE:     5 TIME:   0.016 TIME LEFT:  2.00D  GRAD.:     1.209 HEAT: -27.04242
 CYCLE:     6 TIME:   0.000 TIME LEFT:  2.00D  GRAD.:     1.322 HEAT: -27.04661
 CYCLE:     7 TIME:   0.000 TIME LEFT:  2.00D  GRAD.:     1.346 HEAT: -27.05391
 CYCLE:     8 TIME:   0.000 TIME LEFT:  2.00D  GRAD.:     1.040 HEAT: -27.05719
 CYCLE:     9 TIME:   0.000 TIME LEFT:  2.00D  GRAD.:     2.644 HEAT: -27.07049
 CYCLE:    10 TIME:   0.016 TIME LEFT:  2.00D  GRAD.:     2.518 HEAT: -27.07813
 CYCLE:    11 TIME:   0.000 TIME LEFT:  2.00D  GRAD.:     1.164 HEAT: -27.09221
 CYCLE:    12 TIME:   0.000 TIME LEFT:  2.00D  GRAD.:     0.247 HEAT: -27.10067

     GRADIENT =  0.24682 IS LESS THAN CUTOFF =  1.00000



          VARIABLE        FUNCTION
 :        55.00000      -27.100659
*REMARK   3 HET = Not identified; C 4 H 10           =    14 atoms res:    1
 step=-5 points=72 graphf html
 n-Butane, rotation about the C-C-C-C dihedral

  H(HETATM    1 1H1  HET A   1)   0.00000000 +0    0.0000000 +0    0.0000000 +0
  C(HETATM    2  C1  HET A   1)   1.09563203 +1    0.0000000 +0    0.0000000 +0     1     0     0
  H(HETATM    3 2H1  HET A   1)   1.09553943 +1  107.5881791 +1    0.0000000 +0     2     1     0
  H(HETATM    4 3H1  HET A   1)   1.09547553 +1  107.6410373 +1  115.5237259 +1     2     1     3
  C(HETATM    5  C2  HET A   1)   1.52876963 +1  111.3133242 +1 -122.4268991 +1     2     1     3
  H(HETATM    6 1H2  HET A   1)   1.10712289 +1  109.7232806 +1  -69.2416911 +1     5     2     1
  H(HETATM    7 2H2  HET A   1)   1.10726845 +1  109.5297402 +1  175.0547340 +1     5     2     1
  C(HETATM    8  C3  HET A   1)   1.53645024 +1  112.8597730 +1   52.7868693 +1     5     2     1
  H(HETATM    9 1H3  HET A   1)   1.10712610 +1  109.5610459 +1  -67.2219875 +1     8     5     2
  H(HETATM   10 2H3  HET A   1)   1.10701723 +1  109.2404098 +1  177.2956087 +1     8     5     2
  C(HETATM   11  C4  HET A   1)   1.52896994 +1  112.7977079 +1   55.0000000 -1     8     5     2
  H(HETATM   12 1H4  HET A   1)   1.09541101 +1  111.1710127 +1  173.0745256 +1    11     8     5
  H(HETATM   13 2H4  HET A   1)   1.09557358 +1  111.3946628 +1   53.0193620 +1    11     8     5
  H(HETATM   14 3H4  HET A   1)   1.09558799 +1  111.4512458 +1  -67.0775624 +1    11     8     5
 

          Geometry optimization using EF

          DIAGONAL MATRIX USED AS START HESSIAN

 CYCLE:     1 TIME:   0.016 TIME LEFT:  2.00D  GRAD.:    10.510 HEAT: -26.37947
 CYCLE:     2 TIME:   0.000 TIME LEFT:  2.00D  GRAD.:     5.506 HEAT: -26.69122
 CYCLE:     3 TIME:   0.000 TIME LEFT:  2.00D  GRAD.:     2.990 HEAT: -26.85623
 CYCLE:     4 TIME:   0.000 TIME LEFT:  2.00D  GRAD.:     1.957 HEAT: -26.86630
 CYCLE:     5 TIME:   0.000 TIME LEFT:  2.00D  GRAD.:     1.012 HEAT: -26.87640
 CYCLE:     6 TIME:   0.000 TIME LEFT:  2.00D  GRAD.:     0.816 HEAT: -26.87833

     GRADIENT =  0.81643 IS LESS THAN CUTOFF =  1.00000



          VARIABLE        FUNCTION
 :        50.00000      -26.878329
*REMARK   3 HET = Not identified; C 4 H 10           =    14 atoms res:    1
 step=-5 points=72 graphf html
 n-Butane, rotation about the C-C-C-C dihedral

  H(HETATM    1 1H1  HET A   1)   0.00000000 +0    0.0000000 +0    0.0000000 +0
  C(HETATM    2  C1  HET A   1)   1.09562680 +1    0.0000000 +0    0.0000000 +0     1     0     0
  H(HETATM    3 2H1  HET A   1)   1.09557703 +1  107.5765786 +1    0.0000000 +0     2     1     0
  H(HETATM    4 3H1  HET A   1)   1.09559181 +1  107.5931843 +1  115.4457655 +1     2     1     3
  C(HETATM    5  C2  HET A   1)   1.52863716 +1  111.3555751 +1 -122.5258493 +1     2     1     3
  H(HETATM    6 1H2  HET A   1)   1.10701530 +1  109.7349845 +1  -69.4216973 +1     5     2     1
  H(HETATM    7 2H2  HET A   1)   1.10759282 +1  109.3261221 +1  174.9901584 +1     5     2     1
  C(HETATM    8  C3  HET A   1)   1.53694591 +1  113.1003955 +1   52.7623219 +1     5     2     1
  H(HETATM    9 1H3  HET A   1)   1.10694655 +1  109.2310953 +1  -72.0438292 +1     8     5     2
  H(HETATM   10 2H3  HET A   1)   1.10751272 +1  109.3327531 +1  172.6004634 +1     8     5     2
  C(HETATM   11  C4  HET A   1)   1.52874340 +1  113.1120080 +1   50.0000000 -1     8     5     2
  H(HETATM   12 1H4  HET A   1)   1.09550839 +1  111.1436190 +1  173.0326310 +1    11     8     5
  H(HETATM   13 2H4  HET A   1)   1.09557310 +1  111.3524455 +1   53.0033430 +1    11     8     5
  H(HETATM   14 3H4  HET A   1)   1.09566948 +1  111.5344493 +1  -67.1552704 +1    11     8     5
 

          Geometry optimization using EF

          DIAGONAL MATRIX USED AS START HESSIAN

 CYCLE:     1 TIME:   0.000 TIME LEFT:  2.00D  GRAD.:    10.723 HEAT: -26.10420
 CYCLE:     2 TIME:   0.000 TIME LEFT:  2.00D  GRAD.:     5.493 HEAT: -26.41859
 CYCLE:     3 TIME:   0.000 TIME LEFT:  2.00D  GRAD.:     3.233 HEAT: -26.58415
 CYCLE:     4 TIME:   0.000 TIME LEFT:  2.00D  GRAD.:     2.200 HEAT: -26.59635
 CYCLE:     5 TIME:   0.016 TIME LEFT:  2.00D  GRAD.:     1.138 HEAT: -26.60887
 CYCLE:     6 TIME:   0.000 TIME LEFT:  2.00D  GRAD.:     0.870 HEAT: -26.61123

     GRADIENT =  0.87048 IS LESS THAN CUTOFF =  1.00000



          VARIABLE        FUNCTION
 :        45.00000      -26.611226
*REMARK   3 HET = Not identified; C 4 H 10           =    14 atoms res:    1
 step=-5 points=72 graphf html
 n-Butane, rotation about the C-C-C-C dihedral

  H(HETATM    1 1H1  HET A   1)   0.00000000 +0    0.0000000 +0    0.0000000 +0
  C(HETATM    2  C1  HET A   1)   1.09565395 +1    0.0000000 +0    0.0000000 +0     1     0     0
  H(HETATM    3 2H1  HET A   1)   1.09558070 +1  107.6011894 +1    0.0000000 +0     2     1     0
  H(HETATM    4 3H1  HET A   1)   1.09568650 +1  107.5603555 +1  115.4246266 +1     2     1     3
  C(HETATM    5  C2  HET A   1)   1.52847674 +1  111.3688781 +1 -122.5939717 +1     2     1     3
  H(HETATM    6 1H2  HET A   1)   1.10696143 +1  109.7461989 +1  -69.6195636 +1     5     2     1
  H(HETATM    7 2H2  HET A   1)   1.10789289 +1  109.1658753 +1  174.9208664 +1     5     2     1
  C(HETATM    8  C3  HET A   1)   1.53760036 +1  113.3915923 +1   52.7257486 +1     5     2     1
  H(HETATM    9 1H3  HET A   1)   1.10717603 +1  109.1196542 +1  -76.9762016 +1     8     5     2
  H(HETATM   10 2H3  HET A   1)   1.10751174 +1  109.3021205 +1  167.7768515 +1     8     5     2
  C(HETATM   11  C4  HET A   1)   1.52860669 +1  113.4119787 +1   45.0000000 -1     8     5     2
  H(HETATM   12 1H4  HET A   1)   1.09558941 +1  111.1122601 +1  172.9753355 +1    11     8     5
  H(HETATM   13 2H4  HET A   1)   1.09562985 +1  111.3446257 +1   52.9925602 +1    11     8     5
  H(HETATM   14 3H4  HET A   1)   1.09563323 +1  111.5728416 +1  -67.2308863 +1    11     8     5
 

          Geometry optimization using EF

          DIAGONAL MATRIX USED AS START HESSIAN

 CYCLE:     1 TIME:   0.000 TIME LEFT:  2.00D  GRAD.:    10.746 HEAT: -25.80062
 CYCLE:     2 TIME:   0.000 TIME LEFT:  2.00D  GRAD.:     5.472 HEAT: -26.11435
 CYCLE:     3 TIME:   0.020 TIME LEFT:  2.00D  GRAD.:     3.243 HEAT: -26.27996
 CYCLE:     4 TIME:   0.000 TIME LEFT:  2.00D  GRAD.:     2.270 HEAT: -26.29259
 CYCLE:     5 TIME:   0.000 TIME LEFT:  2.00D  GRAD.:     1.174 HEAT: -26.30540
 CYCLE:     6 TIME:   0.000 TIME LEFT:  2.00D  GRAD.:     0.884 HEAT: -26.30792

     GRADIENT =  0.88414 IS LESS THAN CUTOFF =  1.00000



          VARIABLE        FUNCTION
 :        40.00000      -26.307917
*REMARK   3 HET = Not identified; C 4 H 10           =    14 atoms res:    1
 step=-5 points=72 graphf html
 n-Butane, rotation about the C-C-C-C dihedral

  H(HETATM    1 1H1  HET A   1)   0.00000000 +0    0.0000000 +0    0.0000000 +0
  C(HETATM    2  C1  HET A   1)   1.09567690 +1    0.0000000 +0    0.0000000 +0     1     0     0
  H(HETATM    3 2H1  HET A   1)   1.09557482 +1  107.6126172 +1    0.0000000 +0     2     1     0
  H(HETATM    4 3H1  HET A   1)   1.09574780 +1  107.5438027 +1  115.4195665 +1     2     1     3
  C(HETATM    5  C2  HET A   1)   1.52837464 +1  111.3856222 +1 -122.6330293 +1     2     1     3
  H(HETATM    6 1H2  HET A   1)   1.10689733 +1  109.7367916 +1  -69.7751523 +1     5     2     1
  H(HETATM    7 2H2  HET A   1)   1.10813665 +1  109.0144800 +1  174.9075454 +1     5     2     1
  C(HETATM    8  C3  HET A   1)   1.53836489 +1  113.6883049 +1   52.7369035 +1     5     2     1
  H(HETATM    9 1H3  HET A   1)   1.10738552 +1  109.0317006 +1  -81.9315419 +1     8     5     2
  H(HETATM   10 2H3  HET A   1)   1.10748907 +1  109.2711129 +1  162.9346347 +1     8     5     2
  C(HETATM   11  C4  HET A   1)   1.52849292 +1  113.7124710 +1   40.0000000 -1     8     5     2
  H(HETATM   12 1H4  HET A   1)   1.09566988 +1  111.0820539 +1  172.9618899 +1    11     8     5
  H(HETATM   13 2H4  HET A   1)   1.09567337 +1  111.3493451 +1   53.0296871 +1    11     8     5
  H(HETATM   14 3H4  HET A   1)   1.09559558 +1  111.6018601 +1  -67.2559854 +1    11     8     5
 

          Geometry optimization using EF

          DIAGONAL MATRIX USED AS START HESSIAN

 CYCLE:     1 TIME:   0.012 TIME LEFT:  2.00D  GRAD.:    10.758 HEAT: -25.47045
 CYCLE:     2 TIME:   0.000 TIME LEFT:  2.00D  GRAD.:     5.445 HEAT: -25.78432
 CYCLE:     3 TIME:   0.000 TIME LEFT:  2.00D  GRAD.:     3.232 HEAT: -25.95119
 CYCLE:     4 TIME:   0.000 TIME LEFT:  2.00D  GRAD.:     2.323 HEAT: -25.96434
 CYCLE:     5 TIME:   0.000 TIME LEFT:  2.00D  GRAD.:     1.155 HEAT: -25.97751
 CYCLE:     6 TIME:   0.016 TIME LEFT:  2.00D  GRAD.:     0.900 HEAT: -25.98029

     GRADIENT =  0.90023 IS LESS THAN CUTOFF =  1.00000



          VARIABLE        FUNCTION
 :        35.00000      -25.980286
*REMARK   3 HET = Not identified; C 4 H 10           =    14 atoms res:    1
 step=-5 points=72 graphf html
 n-Butane, rotation about the C-C-C-C dihedral

  H(HETATM    1 1H1  HET A   1)   0.00000000 +0    0.0000000 +0    0.0000000 +0
  C(HETATM    2  C1  HET A   1)   1.09570080 +1    0.0000000 +0    0.0000000 +0     1     0     0
  H(HETATM    3 2H1  HET A   1)   1.09556724 +1  107.6078846 +1    0.0000000 +0     2     1     0
  H(HETATM    4 3H1  HET A   1)   1.09577961 +1  107.5405325 +1  115.4245370 +1     2     1     3
  C(HETATM    5  C2  HET A   1)   1.52830155 +1  111.4066118 +1 -122.6459871 +1     2     1     3
  H(HETATM    6 1H2  HET A   1)   1.10683854 +1  109.7064414 +1  -69.8410499 +1     5     2     1
  H(HETATM    7 2H2  HET A   1)   1.10833310 +1  108.8778780 +1  174.9938991 +1     5     2     1
  C(HETATM    8  C3  HET A   1)   1.53921362 +1  113.9840037 +1   52.8342198 +1     5     2     1
  H(HETATM    9 1H3  HET A   1)   1.10751149 +1  108.9633056 +1  -86.9361851 +1     8     5     2
  H(HETATM   10 2H3  HET A   1)   1.10751633 +1  109.2382426 +1  158.0439304 +1     8     5     2
  C(HETATM   11  C4  HET A   1)   1.52840067 +1  114.0095142 +1   35.0000000 -1     8     5     2
  H(HETATM   12 1H4  HET A   1)   1.09575138 +1  111.0530225 +1  173.0322179 +1    11     8     5
  H(HETATM   13 2H4  HET A   1)   1.09570071 +1  111.3634888 +1   53.1505964 +1    11     8     5
  H(HETATM   14 3H4  HET A   1)   1.09556028 +1  111.6252582 +1  -67.1939369 +1    11     8     5
 

          Geometry optimization using EF

          DIAGONAL MATRIX USED AS START HESSIAN

 CYCLE:     1 TIME:   0.000 TIME LEFT:  2.00D  GRAD.:    10.738 HEAT: -25.13264
 CYCLE:     2 TIME:   0.000 TIME LEFT:  2.00D  GRAD.:     5.410 HEAT: -25.44514
 CYCLE:     3 TIME:   0.020 TIME LEFT:  2.00D  GRAD.:     3.213 HEAT: -25.61285
 CYCLE:     4 TIME:   0.000 TIME LEFT:  2.00D  GRAD.:     2.336 HEAT: -25.62659
 CYCLE:     5 TIME:   0.000 TIME LEFT:  2.00D  GRAD.:     1.151 HEAT: -25.64044
 CYCLE:     6 TIME:   0.000 TIME LEFT:  2.00D  GRAD.:     0.926 HEAT: -25.64348

     GRADIENT =  0.92637 IS LESS THAN CUTOFF =  1.00000



          VARIABLE        FUNCTION
 :        30.00000      -25.643477
*REMARK   3 HET = Not identified; C 4 H 10           =    14 atoms res:    1
 step=-5 points=72 graphf html
 n-Butane, rotation about the C-C-C-C dihedral

  H(HETATM    1 1H1  HET A   1)   0.00000000 +0    0.0000000 +0    0.0000000 +0
  C(HETATM    2  C1  HET A   1)   1.09572535 +1    0.0000000 +0    0.0000000 +0     1     0     0
  H(HETATM    3 2H1  HET A   1)   1.09555572 +1  107.5942194 +1    0.0000000 +0     2     1     0
  H(HETATM    4 3H1  HET A   1)   1.09578981 +1  107.5460037 +1  115.4351702 +1     2     1     3
  C(HETATM    5  C2  HET A   1)   1.52825188 +1  111.4248105 +1 -122.6414811 +1     2     1     3
  H(HETATM    6 1H2  HET A   1)   1.10679826 +1  109.6512113 +1  -69.7866548 +1     5     2     1
  H(HETATM    7 2H2  HET A   1)   1.10847401 +1  108.7637750 +1  175.2027650 +1     5     2     1
  C(HETATM    8  C3  HET A   1)   1.54010829 +1  114.2691566 +1   53.0361477 +1     5     2     1
  H(HETATM    9 1H3  HET A   1)   1.10754030 +1  108.9168235 +1  -91.9893926 +1     8     5     2
  H(HETATM   10 2H3  HET A   1)   1.10760826 +1  109.2001073 +1  153.1003945 +1     8     5     2
  C(HETATM   11  C4  HET A   1)   1.52832434 +1  114.2947840 +1   30.0000000 -1     8     5     2
  H(HETATM   12 1H4  HET A   1)   1.09583133 +1  111.0258214 +1  173.2083020 +1    11     8     5
  H(HETATM   13 2H4  HET A   1)   1.09570709 +1  111.3866989 +1   53.3727827 +1    11     8     5
  H(HETATM   14 3H4  HET A   1)   1.09553202 +1  111.6415465 +1  -67.0267311 +1    11     8     5
 

          Geometry optimization using EF

          DIAGONAL MATRIX USED AS START HESSIAN

 CYCLE:     1 TIME:   0.012 TIME LEFT:  2.00D  GRAD.:    10.701 HEAT: -24.80404
 CYCLE:     2 TIME:   0.000 TIME LEFT:  2.00D  GRAD.:     5.382 HEAT: -25.11435
 CYCLE:     3 TIME:   0.000 TIME LEFT:  2.00D  GRAD.:     3.202 HEAT: -25.28266
 CYCLE:     4 TIME:   0.000 TIME LEFT:  2.00D  GRAD.:     2.342 HEAT: -25.29692
 CYCLE:     5 TIME:   0.000 TIME LEFT:  2.00D  GRAD.:     1.178 HEAT: -25.31174
 CYCLE:     6 TIME:   0.000 TIME LEFT:  2.00D  GRAD.:     0.980 HEAT: -25.31503

     GRADIENT =  0.97974 IS LESS THAN CUTOFF =  1.00000



          VARIABLE        FUNCTION
 :        25.00000      -25.315032
*REMARK   3 HET = Not identified; C 4 H 10           =    14 atoms res:    1
 step=-5 points=72 graphf html
 n-Butane, rotation about the C-C-C-C dihedral

  H(HETATM    1 1H1  HET A   1)   0.00000000 +0    0.0000000 +0    0.0000000 +0
  C(HETATM    2  C1  HET A   1)   1.09572718 +1    0.0000000 +0    0.0000000 +0     1     0     0
  H(HETATM    3 2H1  HET A   1)   1.09555379 +1  107.5771439 +1    0.0000000 +0     2     1     0
  H(HETATM    4 3H1  HET A   1)   1.09579933 +1  107.5530148 +1  115.4434958 +1     2     1     3
  C(HETATM    5  C2  HET A   1)   1.52820879 +1  111.4498504 +1 -122.6303214 +1     2     1     3
  H(HETATM    6 1H2  HET A   1)   1.10680664 +1  109.5675513 +1  -69.6071165 +1     5     2     1
  H(HETATM    7 2H2  HET A   1)   1.10854705 +1  108.6803935 +1  175.5338984 +1     5     2     1
  C(HETATM    8  C3  HET A   1)   1.54098734 +1  114.5365229 +1   53.3339235 +1     5     2     1
  H(HETATM    9 1H3  HET A   1)   1.10746410 +1  108.8878953 +1  -97.0863133 +1     8     5     2
  H(HETATM   10 2H3  HET A   1)   1.10778333 +1  109.1587021 +1  148.1056648 +1     8     5     2
  C(HETATM   11  C4  HET A   1)   1.52826019 +1  114.5601053 +1   25.0000000 -1     8     5     2
  H(HETATM   12 1H4  HET A   1)   1.09590803 +1  110.9998273 +1  173.4937208 +1    11     8     5
  H(HETATM   13 2H4  HET A   1)   1.09568914 +1  111.4180487 +1   53.6951230 +1    11     8     5
  H(HETATM   14 3H4  HET A   1)   1.09551819 +1  111.6498866 +1  -66.7543236 +1    11     8     5
 

          Geometry optimization using EF

          DIAGONAL MATRIX USED AS START HESSIAN

 CYCLE:     1 TIME:   0.000 TIME LEFT:  2.00D  GRAD.:    10.658 HEAT: -24.50278
 CYCLE:     2 TIME:   0.000 TIME LEFT:  2.00D  GRAD.:     5.360 HEAT: -24.81059
 CYCLE:     3 TIME:   0.000 TIME LEFT:  2.00D  GRAD.:     3.203 HEAT: -24.97936
 CYCLE:     4 TIME:   0.000 TIME LEFT:  2.00D  GRAD.:     2.355 HEAT: -24.99408
 CYCLE:     5 TIME:   0.016 TIME LEFT:  2.00D  GRAD.:     1.218 HEAT: -25.00991
 CYCLE:     6 TIME:   0.000 TIME LEFT:  2.00D  GRAD.:     1.040 HEAT: -25.01351
 CYCLE:     7 TIME:   0.000 TIME LEFT:  2.00D  GRAD.:     0.564 HEAT: -25.01612

     GRADIENT =  0.56398 IS LESS THAN CUTOFF =  1.00000



          VARIABLE        FUNCTION
 :        20.00000      -25.016124
*REMARK   3 HET = Not identified; C 4 H 10           =    14 atoms res:    1
 step=-5 points=72 graphf html
 n-Butane, rotation about the C-C-C-C dihedral

  H(HETATM    1 1H1  HET A   1)   0.00000000 +0    0.0000000 +0    0.0000000 +0
  C(HETATM    2  C1  HET A   1)   1.09569771 +1    0.0000000 +0    0.0000000 +0     1     0     0
  H(HETATM    3 2H1  HET A   1)   1.09551211 +1  107.5584115 +1    0.0000000 +0     2     1     0
  H(HETATM    4 3H1  HET A   1)   1.09576318 +1  107.5608821 +1  115.4593611 +1     2     1     3
  C(HETATM    5  C2  HET A   1)   1.52817777 +1  111.4786195 +1 -122.6418497 +1     2     1     3
  H(HETATM    6 1H2  HET A   1)   1.10683583 +1  109.4465379 +1  -69.1790688 +1     5     2     1
  H(HETATM    7 2H2  HET A   1)   1.10840374 +1  108.6391557 +1  176.0682842 +1     5     2     1
  C(HETATM    8  C3  HET A   1)   1.54189117 +1  114.8011369 +1   53.8012890 +1     5     2     1
  H(HETATM    9 1H3  HET A   1)   1.10750657 +1  109.0732726 +1 -102.2514896 +1     8     5     2
  H(HETATM   10 2H3  HET A   1)   1.10767382 +1  108.9425851 +1  143.0277383 +1     8     5     2
  C(HETATM   11  C4  HET A   1)   1.52810569 +1  114.7995150 +1   20.0000000 -1     8     5     2
  H(HETATM   12 1H4  HET A   1)   1.09595078 +1  110.9735665 +1  173.9428781 +1    11     8     5
  H(HETATM   13 2H4  HET A   1)   1.09565433 +1  111.4482024 +1   54.2194621 +1    11     8     5
  H(HETATM   14 3H4  HET A   1)   1.09541902 +1  111.6546117 +1  -66.2881447 +1    11     8     5
 

          Geometry optimization using EF

          DIAGONAL MATRIX USED AS START HESSIAN

 CYCLE:     1 TIME:   0.016 TIME LEFT:  2.00D  GRAD.:    10.721 HEAT: -24.23908
 CYCLE:     2 TIME:   0.000 TIME LEFT:  2.00D  GRAD.:     5.470 HEAT: -24.55399
 CYCLE:     3 TIME:   0.000 TIME LEFT:  2.00D  GRAD.:     3.048 HEAT: -24.72669
[...]
 step=-5 points=72 graphf html
 n-Butane, rotation about the C-C-C-C dihedral

  H(HETATM    1 1H1  HET A   1)   0.00000000 +0    0.0000000 +0    0.0000000 +0
  C(HETATM    2  C1  HET A   1)   1.09570474 +1    0.0000000 +0    0.0000000 +0     1     0     0
  H(HETATM    3 2H1  HET A   1)   1.09567977 +1  107.5423715 +1    0.0000000 +0     2     1     0
  H(HETATM    4 3H1  HET A   1)   1.09544896 +1  107.5251281 +1  115.5221522 +1     2     1     3
  C(HETATM    5  C2  HET A   1)   1.52922359 +1  111.3993169 +1 -122.3304173 +1     2     1     3
  H(HETATM    6 1H2  HET A   1)   1.10695403 +1  109.2592220 +1  -62.3702371 +1     5     2     1
  H(HETATM    7 2H2  HET A   1)   1.10530823 +1  110.1842157 +1 -177.7820474 +1     5     2     1
  C(HETATM    8  C3  HET A   1)   1.53854588 +1  111.5700710 +1   59.8192907 +1     5     2     1
  H(HETATM    9 1H3  HET A   1)   1.10445318 +1  109.7868005 +1   97.4365787 +1     8     5     2
  H(HETATM   10 2H3  HET A   1)   1.10781896 +1  110.3764229 +1  -18.4041086 +1     8     5     2
  C(HETATM   11  C4  HET A   1)   1.52922667 +1  111.5785652 +1 -140.0000000 -1     8     5     2
  H(HETATM   12 1H4  HET A   1)   1.09556186 +1  111.2450338 +1 -178.8807203 +1    11     8     5
  H(HETATM   13 2H4  HET A   1)   1.09557221 +1  111.3951937 +1   61.2052335 +1    11     8     5
  H(HETATM   14 3H4  HET A   1)   1.09573484 +1  111.4349040 +1  -58.9955087 +1    11     8     5
 

          Geometry optimization using EF

          DIAGONAL MATRIX USED AS START HESSIAN

 CYCLE:     1 TIME:   0.000 TIME LEFT:  2.00D  GRAD.:    10.448 HEAT: -26.72275
 CYCLE:     2 TIME:   0.000 TIME LEFT:  2.00D  GRAD.:     5.378 HEAT: -27.03234
 CYCLE:     3 TIME:   0.000 TIME LEFT:  2.00D  GRAD.:     3.269 HEAT: -27.20597
 CYCLE:     4 TIME:   0.012 TIME LEFT:  2.00D  GRAD.:     2.304 HEAT: -27.21918
 CYCLE:     5 TIME:   0.000 TIME LEFT:  2.00D  GRAD.:     1.130 HEAT: -27.23325
 CYCLE:     6 TIME:   0.000 TIME LEFT:  2.00D  GRAD.:     0.920 HEAT: -27.23576

     GRADIENT =  0.91952 IS LESS THAN CUTOFF =  1.00000



          VARIABLE        FUNCTION
 :      -145.00000      -27.235756
*REMARK   3 HET = Not identified; C 4 H 10           =    14 atoms res:    1
 step=-5 points=72 graphf html
 n-Butane, rotation about the C-C-C-C dihedral

  H(HETATM    1 1H1  HET A   1)   0.00000000 +0    0.0000000 +0    0.0000000 +0
  C(HETATM    2  C1  HET A   1)   1.09567472 +1    0.0000000 +0    0.0000000 +0     1     0     0
  H(HETATM    3 2H1  HET A   1)   1.09571305 +1  107.5215543 +1    0.0000000 +0     2     1     0
  H(HETATM    4 3H1  HET A   1)   1.09545001 +1  107.5289197 +1  115.5161217 +1     2     1     3
  C(HETATM    5  C2  HET A   1)   1.52915315 +1  111.4186737 +1 -122.3218395 +1     2     1     3
  H(HETATM    6 1H2  HET A   1)   1.10703762 +1  109.2680771 +1  -62.0718422 +1     5     2     1
  H(HETATM    7 2H2  HET A   1)   1.10526768 +1  110.2659123 +1 -177.6162227 +1     5     2     1
  C(HETATM    8  C3  HET A   1)   1.53796088 +1  111.4726871 +1   59.9850737 +1     5     2     1
  H(HETATM    9 1H3  HET A   1)   1.10438517 +1  109.8009861 +1   92.3986568 +1     8     5     2
  H(HETATM   10 2H3  HET A   1)   1.10790041 +1  110.3149254 +1  -23.4976355 +1     8     5     2
  C(HETATM   11  C4  HET A   1)   1.52916485 +1  111.4734981 +1 -145.0000000 -1     8     5     2
  H(HETATM   12 1H4  HET A   1)   1.09555918 +1  111.2441321 +1 -178.6848310 +1    11     8     5
  H(HETATM   13 2H4  HET A   1)   1.09554157 +1  111.4130144 +1   61.3903769 +1    11     8     5
  H(HETATM   14 3H4  HET A   1)   1.09575409 +1  111.4261673 +1  -58.8005065 +1    11     8     5
 

          Geometry optimization using EF

          DIAGONAL MATRIX USED AS START HESSIAN

 CYCLE:     1 TIME:   0.000 TIME LEFT:  2.00D  GRAD.:    10.451 HEAT: -26.93060
 CYCLE:     2 TIME:   0.000 TIME LEFT:  2.00D  GRAD.:     5.371 HEAT: -27.23980
 CYCLE:     3 TIME:   0.016 TIME LEFT:  2.00D  GRAD.:     3.249 HEAT: -27.41117
 CYCLE:     4 TIME:   0.000 TIME LEFT:  2.00D  GRAD.:     2.281 HEAT: -27.42393
 CYCLE:     5 TIME:   0.000 TIME LEFT:  2.00D  GRAD.:     1.119 HEAT: -27.43745
 CYCLE:     6 TIME:   0.000 TIME LEFT:  2.00D  GRAD.:     0.917 HEAT: -27.43998

     GRADIENT =  0.91696 IS LESS THAN CUTOFF =  1.00000



          VARIABLE        FUNCTION
 :      -150.00000      -27.439983
*REMARK   3 HET = Not identified; C 4 H 10           =    14 atoms res:    1
 step=-5 points=72 graphf html
 n-Butane, rotation about the C-C-C-C dihedral

  H(HETATM    1 1H1  HET A   1)   0.00000000 +0    0.0000000 +0    0.0000000 +0
  C(HETATM    2  C1  HET A   1)   1.09564524 +1    0.0000000 +0    0.0000000 +0     1     0     0
  H(HETATM    3 2H1  HET A   1)   1.09573629 +1  107.5037331 +1    0.0000000 +0     2     1     0
  H(HETATM    4 3H1  HET A   1)   1.09545480 +1  107.5299205 +1  115.5094407 +1     2     1     3
  C(HETATM    5  C2  HET A   1)   1.52907161 +1  111.4330663 +1 -122.3194511 +1     2     1     3
  H(HETATM    6 1H2  HET A   1)   1.10706628 +1  109.3115045 +1  -61.7853046 +1     5     2     1
  H(HETATM    7 2H2  HET A   1)   1.10527618 +1  110.3228146 +1 -177.4718721 +1     5     2     1
  C(HETATM    8  C3  HET A   1)   1.53734177 +1  111.3690983 +1   60.1582090 +1     5     2     1
  H(HETATM    9 1H3  HET A   1)   1.10438639 +1  109.8052292 +1   87.4096571 +1     8     5     2
  H(HETATM   10 2H3  HET A   1)   1.10791070 +1  110.2580800 +1  -28.5425290 +1     8     5     2
  C(HETATM   11  C4  HET A   1)   1.52909277 +1  111.3627746 +1 -150.0000000 -1     8     5     2
  H(HETATM   12 1H4  HET A   1)   1.09555112 +1  111.2450027 +1 -178.4977052 +1    11     8     5
  H(HETATM   13 2H4  HET A   1)   1.09551637 +1  111.4256057 +1   61.5648703 +1    11     8     5
  H(HETATM   14 3H4  HET A   1)   1.09576900 +1  111.4203844 +1  -58.6110935 +1    11     8     5
 

          Geometry optimization using EF

          DIAGONAL MATRIX USED AS START HESSIAN

 CYCLE:     1 TIME:   0.016 TIME LEFT:  2.00D  GRAD.:    10.456 HEAT: -27.13625
 CYCLE:     2 TIME:   0.000 TIME LEFT:  2.00D  GRAD.:     5.372 HEAT: -27.44535
 CYCLE:     3 TIME:   0.000 TIME LEFT:  2.00D  GRAD.:     3.238 HEAT: -27.61469
 CYCLE:     4 TIME:   0.000 TIME LEFT:  2.00D  GRAD.:     2.261 HEAT: -27.62698
 CYCLE:     5 TIME:   0.000 TIME LEFT:  2.00D  GRAD.:     1.117 HEAT: -27.63988
 CYCLE:     6 TIME:   0.000 TIME LEFT:  2.00D  GRAD.:     0.913 HEAT: -27.64240

     GRADIENT =  0.91272 IS LESS THAN CUTOFF =  1.00000



          VARIABLE        FUNCTION
 :      -155.00000      -27.642398
*REMARK   3 HET = Not identified; C 4 H 10           =    14 atoms res:    1
 step=-5 points=72 graphf html
 n-Butane, rotation about the C-C-C-C dihedral

  H(HETATM    1 1H1  HET A   1)   0.00000000 +0    0.0000000 +0    0.0000000 +0
  C(HETATM    2  C1  HET A   1)   1.09561629 +1    0.0000000 +0    0.0000000 +0     1     0     0
  H(HETATM    3 2H1  HET A   1)   1.09574956 +1  107.4898679 +1    0.0000000 +0     2     1     0
  H(HETATM    4 3H1  HET A   1)   1.09546411 +1  107.5277754 +1  115.5019132 +1     2     1     3
  C(HETATM    5  C2  HET A   1)   1.52898471 +1  111.4429710 +1 -122.3241128 +1     2     1     3
  H(HETATM    6 1H2  HET A   1)   1.10703665 +1  109.3861175 +1  -61.5360026 +1     5     2     1
  H(HETATM    7 2H2  HET A   1)   1.10533436 +1  110.3508350 +1 -177.3641793 +1     5     2     1
  C(HETATM    8  C3  HET A   1)   1.53673263 +1  111.2667881 +1   60.3205430 +1     5     2     1
  H(HETATM    9 1H3  HET A   1)   1.10445874 +1  109.7996829 +1   82.4690512 +1     8     5     2
  H(HETATM   10 2H3  HET A   1)   1.10784759 +1  110.2097178 +1  -33.5353676 +1     8     5     2
  C(HETATM   11  C4  HET A   1)   1.52901670 +1  111.2543662 +1 -155.0000000 -1     8     5     2
  H(HETATM   12 1H4  HET A   1)   1.09553979 +1  111.2470092 +1 -178.3356905 +1    11     8     5
  H(HETATM   13 2H4  HET A   1)   1.09549726 +1  111.4333723 +1   61.7133253 +1    11     8     5
  H(HETATM   14 3H4  HET A   1)   1.09577940 +1  111.4179388 +1  -58.4447987 +1    11     8     5
 

          Geometry optimization using EF

          DIAGONAL MATRIX USED AS START HESSIAN

 CYCLE:     1 TIME:   0.000 TIME LEFT:  2.00D  GRAD.:    10.464 HEAT: -27.32543
 CYCLE:     2 TIME:   0.000 TIME LEFT:  2.00D  GRAD.:     5.382 HEAT: -27.63482
 CYCLE:     3 TIME:   0.000 TIME LEFT:  2.00D  GRAD.:     3.240 HEAT: -27.80252
 CYCLE:     4 TIME:   0.016 TIME LEFT:  2.00D  GRAD.:     2.246 HEAT: -27.81438
 CYCLE:     5 TIME:   0.000 TIME LEFT:  2.00D  GRAD.:     1.131 HEAT: -27.82671
 CYCLE:     6 TIME:   0.000 TIME LEFT:  2.00D  GRAD.:     0.906 HEAT: -27.82918

     GRADIENT =  0.90573 IS LESS THAN CUTOFF =  1.00000



          VARIABLE        FUNCTION
 :      -160.00000      -27.829182
*REMARK   3 HET = Not identified; C 4 H 10           =    14 atoms res:    1
 step=-5 points=72 graphf html
 n-Butane, rotation about the C-C-C-C dihedral

  H(HETATM    1 1H1  HET A   1)   0.00000000 +0    0.0000000 +0    0.0000000 +0
  C(HETATM    2  C1  HET A   1)   1.09558881 +1    0.0000000 +0    0.0000000 +0     1     0     0
  H(HETATM    3 2H1  HET A   1)   1.09575323 +1  107.4807667 +1    0.0000000 +0     2     1     0
  H(HETATM    4 3H1  HET A   1)   1.09547798 +1  107.5225286 +1  115.4936752 +1     2     1     3
  C(HETATM    5  C2  HET A   1)   1.52889955 +1  111.4487129 +1 -122.3357005 +1     2     1     3
  H(HETATM    6 1H2  HET A   1)   1.10694986 +1  109.4862889 +1  -61.3453694 +1     5     2     1
  H(HETATM    7 2H2  HET A   1)   1.10543927 +1  110.3479715 +1 -177.3048030 +1     5     2     1
  C(HETATM    8  C3  HET A   1)   1.53617555 +1  111.1727282 +1   60.4554793 +1     5     2     1
  H(HETATM    9 1H3  HET A   1)   1.10459813 +1  109.7857627 +1   77.5718942 +1     8     5     2
  H(HETATM   10 2H3  HET A   1)   1.10771610 +1  110.1722014 +1  -38.4777934 +1     8     5     2
  C(HETATM   11  C4  HET A   1)   1.52894366 +1  111.1562124 +1 -160.0000000 -1     8     5     2
  H(HETATM   12 1H4  HET A   1)   1.09552754 +1  111.2493767 +1 -178.2129530 +1    11     8     5
  H(HETATM   13 2H4  HET A   1)   1.09548478 +1  111.4368079 +1   61.8226130 +1    11     8     5
  H(HETATM   14 3H4  HET A   1)   1.09578543 +1  111.4190972 +1  -58.3170744 +1    11     8     5
 

          Geometry optimization using EF

          DIAGONAL MATRIX USED AS START HESSIAN

 CYCLE:     1 TIME:   0.016 TIME LEFT:  2.00D  GRAD.:    10.475 HEAT: -27.48538
 CYCLE:     2 TIME:   0.000 TIME LEFT:  2.00D  GRAD.:     5.401 HEAT: -27.79544
 CYCLE:     3 TIME:   0.000 TIME LEFT:  2.00D  GRAD.:     3.257 HEAT: -27.96200
 CYCLE:     4 TIME:   0.000 TIME LEFT:  2.00D  GRAD.:     2.238 HEAT: -27.97354
 CYCLE:     5 TIME:   0.000 TIME LEFT:  2.00D  GRAD.:     1.170 HEAT: -27.98541
 CYCLE:     6 TIME:   0.000 TIME LEFT:  2.00D  GRAD.:     0.904 HEAT: -27.98784

     GRADIENT =  0.90370 IS LESS THAN CUTOFF =  1.00000



          VARIABLE        FUNCTION
 :      -165.00000      -27.987837
*REMARK   3 HET = Not identified; C 4 H 10           =    14 atoms res:    1
 step=-5 points=72 graphf html
 n-Butane, rotation about the C-C-C-C dihedral

  H(HETATM    1 1H1  HET A   1)   0.00000000 +0    0.0000000 +0    0.0000000 +0
  C(HETATM    2  C1  HET A   1)   1.09556435 +1    0.0000000 +0    0.0000000 +0     1     0     0
  H(HETATM    3 2H1  HET A   1)   1.09574805 +1  107.4771487 +1    0.0000000 +0     2     1     0
  H(HETATM    4 3H1  HET A   1)   1.09549580 +1  107.5145944 +1  115.4851504 +1     2     1     3
  C(HETATM    5  C2  HET A   1)   1.52882373 +1  111.4503224 +1 -122.3535084 +1     2     1     3
  H(HETATM    6 1H2  HET A   1)   1.10681123 +1  109.6048366 +1  -61.2294991 +1     5     2     1
  H(HETATM    7 2H2  HET A   1)   1.10558481 +1  110.3142956 +1 -177.3011761 +1     5     2     1
  C(HETATM    8  C3  HET A   1)   1.53570778 +1  111.0929377 +1   60.5490492 +1     5     2     1
  H(HETATM    9 1H3  HET A   1)   1.10479522 +1  109.7660889 +1   72.7098667 +1     8     5     2
  H(HETATM   10 2H3  HET A   1)   1.10752704 +1  110.1463006 +1  -43.3757250 +1     8     5     2
  C(HETATM   11  C4  HET A   1)   1.52887970 +1  111.0754300 +1 -165.0000000 -1     8     5     2
  H(HETATM   12 1H4  HET A   1)   1.09551654 +1  111.2513370 +1 -178.1405170 +1    11     8     5
  H(HETATM   13 2H4  HET A   1)   1.09547901 +1  111.4364219 +1   61.8827629 +1    11     8     5
  H(HETATM   14 3H4  HET A   1)   1.09578749 +1  111.4238676 +1  -58.2401481 +1    11     8     5
 

          Geometry optimization using EF

          DIAGONAL MATRIX USED AS START HESSIAN

 CYCLE:     1 TIME:   0.000 TIME LEFT:  2.00D  GRAD.:    10.490 HEAT: -27.60563
 CYCLE:     2 TIME:   0.000 TIME LEFT:  2.00D  GRAD.:     5.428 HEAT: -27.91670
 CYCLE:     3 TIME:   0.000 TIME LEFT:  2.00D  GRAD.:     3.288 HEAT: -28.08263
 CYCLE:     4 TIME:   0.020 TIME LEFT:  2.00D  GRAD.:     2.239 HEAT: -28.09402
 CYCLE:     5 TIME:   0.000 TIME LEFT:  2.00D  GRAD.:     1.235 HEAT: -28.10557
 CYCLE:     6 TIME:   0.000 TIME LEFT:  2.00D  GRAD.:     0.905 HEAT: -28.10802

     GRADIENT =  0.90499 IS LESS THAN CUTOFF =  1.00000



          VARIABLE        FUNCTION
 :      -170.00000      -28.108019
*REMARK   3 HET = Not identified; C 4 H 10           =    14 atoms res:    1
 step=-5 points=72 graphf html
 n-Butane, rotation about the C-C-C-C dihedral

  H(HETATM    1 1H1  HET A   1)   0.00000000 +0    0.0000000 +0    0.0000000 +0
  C(HETATM    2  C1  HET A   1)   1.09554478 +1    0.0000000 +0    0.0000000 +0     1     0     0
  H(HETATM    3 2H1  HET A   1)   1.09573492 +1  107.4796642 +1    0.0000000 +0     2     1     0
  H(HETATM    4 3H1  HET A   1)   1.09551678 +1  107.5046022 +1  115.4768084 +1     2     1     3
  C(HETATM    5  C2  HET A   1)   1.52876392 +1  111.4476853 +1 -122.3766185 +1     2     1     3
  H(HETATM    6 1H2  HET A   1)   1.10662958 +1  109.7337073 +1  -61.1985428 +1     5     2     1
  H(HETATM    7 2H2  HET A   1)   1.10576251 +1  110.2517611 +1 -177.3563133 +1     5     2     1
  C(HETATM    8  C3  HET A   1)   1.53535925 +1  111.0323712 +1   60.5904813 +1     5     2     1
  H(HETATM    9 1H3  HET A   1)   1.10503619 +1  109.7442987 +1   67.8723733 +1     8     5     2
  H(HETATM   10 2H3  HET A   1)   1.10729531 +1  110.1313084 +1  -48.2382856 +1     8     5     2
  C(HETATM   11  C4  HET A   1)   1.52882929 +1  111.0176009 +1 -170.0000000 -1     8     5     2
  H(HETATM   12 1H4  HET A   1)   1.09550857 +1  111.2522747 +1 -178.1256363 +1    11     8     5
  H(HETATM   13 2H4  HET A   1)   1.09547935 +1  111.4328176 +1   61.8874462 +1    11     8     5
  H(HETATM   14 3H4  HET A   1)   1.09578640 +1  111.4318326 +1  -58.2223090 +1    11     8     5
 

          Geometry optimization using EF

          DIAGONAL MATRIX USED AS START HESSIAN

 CYCLE:     1 TIME:   0.012 TIME LEFT:  2.00D  GRAD.:    10.510 HEAT: -27.67862
 CYCLE:     2 TIME:   0.000 TIME LEFT:  2.00D  GRAD.:     5.459 HEAT: -27.99098
 CYCLE:     3 TIME:   0.000 TIME LEFT:  2.00D  GRAD.:     3.332 HEAT: -28.15675
 CYCLE:     4 TIME:   0.000 TIME LEFT:  2.00D  GRAD.:     2.246 HEAT: -28.16820
 CYCLE:     5 TIME:   0.000 TIME LEFT:  2.00D  GRAD.:     1.313 HEAT: -28.17956
 CYCLE:     6 TIME:   0.000 TIME LEFT:  2.00D  GRAD.:     0.910 HEAT: -28.18215

     GRADIENT =  0.90966 IS LESS THAN CUTOFF =  1.00000



          VARIABLE        FUNCTION
 :      -175.00000      -28.182151
*REMARK   3 HET = Not identified; C 4 H 10           =    14 atoms res:    1
 step=-5 points=72 graphf html
 n-Butane, rotation about the C-C-C-C dihedral

  H(HETATM    1 1H1  HET A   1)   0.00000000 +0    0.0000000 +0    0.0000000 +0
  C(HETATM    2  C1  HET A   1)   1.09553202 +1    0.0000000 +0    0.0000000 +0     1     0     0
  H(HETATM    3 2H1  HET A   1)   1.09571437 +1  107.4888926 +1    0.0000000 +0     2     1     0
  H(HETATM    4 3H1  HET A   1)   1.09554051 +1  107.4932333 +1  115.4688214 +1     2     1     3
  C(HETATM    5  C2  HET A   1)   1.52872430 +1  111.4406382 +1 -122.4039216 +1     2     1     3
  H(HETATM    6 1H2  HET A   1)   1.10641609 +1  109.8646428 +1  -61.2565178 +1     5     2     1
  H(HETATM    7 2H2  HET A   1)   1.10596302 +1  110.1638719 +1 -177.4688155 +1     5     2     1
  C(HETATM    8  C3  HET A   1)   1.53515126 +1  110.9949061 +1   60.5727130 +1     5     2     1
  H(HETATM    9 1H3  HET A   1)   1.10530258 +1  109.7248803 +1   63.0471909 +1     8     5     2
  H(HETATM   10 2H3  HET A   1)   1.10703909 +1  110.1252107 +1  -53.0770984 +1     8     5     2
  C(HETATM   11  C4  HET A   1)   1.52879537 +1  110.9862466 +1 -175.0000000 -1     8     5     2
  H(HETATM   12 1H4  HET A   1)   1.09550474 +1  111.2518475 +1 -178.1715579 +1    11     8     5
  H(HETATM   13 2H4  HET A   1)   1.09548446 +1  111.4267668 +1   61.8340528 +1    11     8     5
  H(HETATM   14 3H4  HET A   1)   1.09578360 +1  111.4420634 +1  -58.2676496 +1    11     8     5
 

                POINTS ON REACTION PATH 
                AND CORRESPONDING HEATS


     180.00000000     175.00000000     170.00000000     165.00000000     160.00000000     155.00000000     150.00000000     145.00000000
     -28.20899351     -28.18246995     -28.10606490     -27.98484604     -27.82662186     -27.64155225     -27.44134534     -27.23902336
     140.00000000     135.00000000     130.00000000     125.00000000     120.00000000     115.00000000     110.00000000     105.00000000
     -27.04798669     -26.88125599     -26.75044421     -26.66469060     -26.62969585     -26.64700011     -26.71357288     -26.82171887
     100.00000000      95.00000000      90.00000000      85.00000000      80.00000000      75.00000000      70.00000000      65.00000000
     -26.95930327     -27.11030605     -27.25621485     -27.37769305     -27.45743432     -27.48305653     -27.44915823     -27.36131343
      60.00000000      55.00000000      50.00000000      45.00000000      40.00000000      35.00000000      30.00000000      25.00000000
     -27.22881832     -27.10065943     -26.87832940     -26.61122648     -26.30791741     -25.98028639     -25.64347704     -25.31503237
      20.00000000      15.00000000      10.00000000       5.00000000      -0.00000000      -5.00000000     -10.00000000     -15.00000000
     -25.01612362     -24.76104065     -24.56656194     -24.44538169     -24.40359868     -24.44286573     -24.56226874     -24.75121224
     -20.00000000     -25.00000000     -30.00000000     -35.00000000     -40.00000000     -45.00000000     -50.00000000     -55.00000000
     -25.00041905     -25.29578744     -25.62081582     -25.95614781     -26.28749145     -26.59721660     -26.86917794     -27.09612789
     -60.00000000     -65.00000000     -70.00000000     -75.00000000     -80.00000000     -85.00000000     -90.00000000     -95.00000000
     -27.27037973     -27.38727975     -27.44608808     -27.45302345     -27.41177868     -27.33428250     -27.22614900     -27.09370809
    -100.00000000    -105.00000000    -110.00000000    -115.00000000    -120.00000000    -125.00000000    -130.00000000    -135.00000000
     -26.95147949     -26.82055129     -26.71659176     -26.65136606     -26.63306520     -26.66569910     -26.74882254     -26.87774411
    -140.00000000    -145.00000000    -150.00000000    -155.00000000    -160.00000000    -165.00000000    -170.00000000    -175.00000000
     -27.04387851     -27.23575645     -27.43998293     -27.64239826     -27.82918164     -27.98783735     -28.10801851     -28.18215061

 **********************
 *                    *
 * JOB ENDED NORMALLY *
 *                    *
 **********************



 TOTAL JOB TIME:             1.85 SECONDS

 == MOPAC DONE ==
