 *******************************************************************************
 ** Site#: 9602  E-mail support:    MrMOPAC@ATT.net    Version 17.236W 64BITS **
 *******************************************************************************
 ** Cite this program as: MOPAC2016, Version: 17.236W, James J. P. Stewart,   **
 ** Stewart Computational Chemistry, web: HTTP://OpenMOPAC.net. Days left: 355**
 *******************************************************************************
 **                                                                           **
 **                                MOPAC2016                                  **
 **                                                                           **
 *******************************************************************************

                              PM7 CALCULATION RESULTS


 *******************************************************************************
 *  CALCULATION DONE:                                Fri Aug 25 09:57:17 2017  *
 *  START_RES  - STARTING RESIDUE NUMBERS DEFINED
 *  Keyword:   START_RES=(1A) 
 *  CHAINS     - PDB CHAIN LETTERS EXPLICITLY DEFINED
 *  Keyword:   CHAINS=(A) 
 *  MERS=N     - NUMBER OF FUNDAMENTAL UNIT CELLS USED:  1
 *  0SCF       - AFTER READING AND PRINTING DATA, STOP
 *  T=         - A TIME OF 172800.0 SECONDS REQUESTED
 *  DUMP=N     - RESTART FILE WRITTEN EVERY  7200.000 SECONDS
 *  HTML       - WRITE HTML SCRIPT TO READ PDB FILE USING JSMOL
 *******************************************************************************
 START_RES=(1A)  CHAINS=(A)  MERS=(1,1,1)  0SCF HTML
 EMETAS, from CSD, unedited except for the addition of Tv (these do not show up in the graphics)
 Run "Specific Script" to show two ATP molecules complexed with Mg, a bis(2-(2-pyridyl)pyridinium), and two water oxygen atoms
   ATOM                 CHEMICAL                   X               Y               Z
  NUMBER                 SYMBOL               (ANGSTROMS)     (ANGSTROMS)     (ANGSTROMS)
 
     1      Mg(HETATM    1 MG    MG A   1)    0.00000000      0.00000000      0.00000000   
     2       O(HETATM    2  O   HOH A   2)   -0.73100000  *   0.06400000     -1.96300000   
     3       O(HETATM    3  O   HOH A   3)    1.54700000  *   1.35500000  *  -0.43300000   
     4       O(HETATM    4  O   HOH A   4)    1.28800000  *  -1.56700000  *  -0.64000000  *
     5       O(HETATM    5  O   HOH A   5)    0.73100000  *   0.06400000  *   1.96300000  *
     6       O(HETATM    6  O   HOH A   6)   -1.54700000  *   1.35500000  *   0.43300000  *
     7       O(HETATM    7  O   HOH A   7)   -1.28800000  *  -1.56700000  *   0.64000000  *
     8      Mg(HETATM    8 MG    MG A   8)    0.00000000  *  -3.15200000  * -15.41400000  *
     9       O(HETATM    9  O   HOH A   9)    0.73100000  *  -3.21600000  * -17.37700000  *
    10       O(HETATM   10  O   HOH A  10)   -1.54700000  *  -4.50700000  * -15.84700000  *
    11       O(HETATM   11  O   HOH A  11)   -1.28800000  *  -1.58500000  * -16.05400000  *
    12       O(HETATM   12  O   HOH A  12)   -0.73100000  *  -3.21600000  * -13.45100000  *
    13       O(HETATM   13  O   HOH A  13)    1.54700000  *  -4.50700000  * -14.98100000  *
    14       O(HETATM   14  O   HOH A  14)    1.28800000  *  -1.58500000  * -14.77400000  *
    15      Mg(HETATM   15 MG    MG A  15)   -5.03400000  * -11.28200000  *   0.00000000  *
    16       O(HETATM   16  O   HOH A  16)   -5.76600000  * -11.21700000  *  -1.96300000  *
    17       O(HETATM   17  O   HOH A  17)   -3.48800000  *  -9.92700000  *  -0.43300000  *
    18       O(HETATM   18  O   HOH A  18)   -3.74700000  * -12.84800000  *  -0.64000000  *
    19       O(HETATM   19  O   HOH A  19)   -4.30300000  * -11.21700000  *   1.96300000  *
    20       O(HETATM   20  O   HOH A  20)   -6.58100000  *  -9.92700000  *   0.43300000  *
    21       O(HETATM   21  O   HOH A  21)   -6.32200000  * -12.84800000  *   0.64000000  *
    22      Mg(HETATM   22 MG    MG A  22)   -5.03400000  * -14.43300000  * -15.41400000  *
    23       O(HETATM   23  O   HOH A  23)   -4.30300000  * -14.49800000  * -17.37700000  *
    24       O(HETATM   24  O   HOH A  24)   -6.58100000  * -15.78800000  * -15.84700000  *
    25       O(HETATM   25  O   HOH A  25)   -6.32200000  * -12.86700000  * -16.05400000  *
    26       O(HETATM   26  O   HOH A  26)   -5.76600000  * -14.49800000  * -13.45100000  *
    27       O(HETATM   27  O   HOH A  27)   -3.48800000  * -15.78800000  * -14.98100000  *
    28       O(HETATM   28  O   HOH A  28)   -3.74700000  * -12.86700000  * -14.77400000  *
    29       N(HETATM   29  N1  HET A  29)   -3.99400000  *  -2.94100000  *   8.32700000  *
    30       H(HETATM   30  H1  HET A  29)   -4.00200000  *  -2.23700000  *   8.82300000  *
    31       N(HETATM   31  N2  HET A  29)   -3.90300000  *  -1.62300000  *   8.69300000  *
    32       H(HETATM   32 1H2  HET A  29)   -3.62100000  *  -1.66900000  *   9.50400000  *
    33       C(HETATM   33  C1  HET A  29)   -4.00600000  *  -2.79200000  *   6.92400000  *
    34       C(HETATM   34  C2  HET A  29)   -4.03500000  *  -3.92700000  *   6.17200000  *
    35       H(HETATM   35  H2  HET A  29)   -4.04000000  *  -3.85500000  *   5.24700000  *
    36       C(HETATM   36  C3  HET A  29)   -4.05600000  *  -5.15900000  *   6.73600000  *
    37       H(HETATM   37 1H3  HET A  29)   -4.10400000  *  -5.92400000  *   6.20900000  *
    38       C(HETATM   38  C4  HET A  29)   -4.00400000  *  -5.25800000  *   8.11100000  *
    39       H(HETATM   39  H4  HET A  29)   -3.99200000  *  -6.10000000  *   8.50200000  *
    40       C(HETATM   40  C5  HET A  29)   -3.97200000  *  -4.15900000  *   8.90900000  *
    41       H(HETATM   41  H5  HET A  29)   -3.93600000  *  -4.24500000  *   9.83400000  *
    42       N(HETATM   42  N3  HET A  29)   -3.99400000  *  -0.21100000  *   7.08700000  *
    43       H(HETATM   43 2H3  HET A  29)   -4.00200000  *  -0.91500000  *   6.59100000  *
    44       N(HETATM   44  N4  HET A  29)   -3.90300000  *  -1.52900000  *   6.72100000  *
    45       H(HETATM   45 1H4  HET A  29)   -3.62100000  *  -1.48300000  *   5.91000000  *
    46       C(HETATM   46  C6  HET A  29)   -4.00600000  *  -0.36000000  *   8.49000000  *
    47       C(HETATM   47  C7  HET A  29)   -4.03500000  *   0.77500000  *   9.24200000  *
    48       H(HETATM   48  H7  HET A  29)   -4.04000000  *   0.70300000  *  10.16700000  *
    49       C(HETATM   49  C8  HET A  29)   -4.05600000  *   2.00700000  *   8.67800000  *
    50       H(HETATM   50  H8  HET A  29)   -4.10400000  *   2.77200000  *   9.20500000  *
    51       C(HETATM   51  C9  HET A  29)   -4.00400000  *   2.10600000  *   7.30300000  *
    52       H(HETATM   52  H9  HET A  29)   -3.99200000  *   2.94800000  *   6.91200000  *
    53       C(HETATM   53  C10 HET A  29)   -3.97200000  *   1.00700000  *   6.50500000  *
    54       H(HETATM   54  H10 HET A  29)   -3.93600000  *   1.09300000  *   5.58000000  *
    55       H(HETATM   55 1H3  ATP A  30)   -2.79400000  * -17.96400000  *   1.84700000  *
    56       C(HETATM   56  C1  ATP A  30)   -1.04600000  * -17.71500000  *   2.95100000  *
    57       H(HETATM   57  H1  ATP A  30)   -0.39200000  * -18.39200000  *   2.68200000  *
    58       C(HETATM   58  C2  ATP A  30)   -0.72200000  * -16.41300000  *   2.23200000  *
    59       H(HETATM   59 1H2  ATP A  30)    0.15500000  * -16.09300000  *   2.49700000  *
    60       H(HETATM   60 2H2  ATP A  30)   -0.71800000  * -16.55600000  *   1.27000000  *
    61      Mg(HETATM   61 MG    MG A  31)    0.00000000  * -12.19200000  *   0.00000000  *
    62       P(HETATM   62  P   PO4 A  32)    1.59700000  * -13.89700000  *  -2.30500000  *
    63       P(HETATM   63  P   PO4 A  33)   -0.75000000  * -12.30800000  *  -3.04400000  *
    64       P(HETATM   64  P   PO4 A  34)    0.88000000  *  -9.98800000  *  -2.26100000  *
    65       O(HETATM   65  O1  PO4 A  32)    2.80900000  * -13.27800000  *  -2.91700000  *
    66       O(HETATM   66  O2  PO4 A  32)    1.24800000  * -13.64400000  *  -0.89200000  *
    67       C(HETATM   67  C3  ATP A  30)   -2.43900000  * -18.26400000  *   2.70900000  *
    68       H(HETATM   68  H4  ATP A  30)   -3.55300000  * -16.77200000  *   3.67500000  *
    69       C(HETATM   69  C4  ATP A  30)   -3.26600000  * -17.68400000  *   3.89200000  *
    70       H(HETATM   70 1H5  ATP A  30)   -2.23700000  * -18.48700000  *   5.47500000  *
    71       C(HETATM   71  C5  ATP A  30)   -2.21300000  * -17.63600000  *   4.99000000  *
    72       H(HETATM   72  H6  ATP A  30)   -2.60700000  * -14.87700000  *   4.82100000  *
    73       C(HETATM   73  C6  ATP A  30)   -2.51600000  * -15.20600000  *   5.68700000  *
    74       C(HETATM   74  C7  ATP A  30)   -2.28500000  * -15.15200000  *   9.18000000  *
    75       C(HETATM   75  C8  ATP A  30)   -2.35300000  * -15.33300000  *   7.80300000  *
    76       C(HETATM   76  C9  ATP A  30)   -2.28100000  * -16.62300000  *   7.32900000  *
    77       H(HETATM   77  H10 ATP A  30)   -1.98400000  * -18.23400000  *   9.91700000  *
    78       C(HETATM   78  C10 ATP A  30)   -2.09300000  * -17.50800000  *   9.34700000  *
    79       N(HETATM   79  N1  ATP A  30)   -2.39000000  * -16.53800000  *   5.96600000  *
    80       C(HETATM   80  C1  UNK A  35)    2.28100000  * -16.62300000  *  -7.32900000  *
    81       H(HETATM   81 1H2  UNK A  35)    1.98400000  * -18.23400000  *  -9.91700000  *
    82       C(HETATM   82  C2  UNK A  35)    2.09300000  * -17.50800000  *  -9.34700000  *
    83       N(HETATM   83  N1  UNK A  35)    2.39000000  * -16.53800000  *  -5.96600000  *
    84       N(HETATM   84  N2  UNK A  35)    2.49700000  * -14.43900000  *  -6.75000000  *
    85       H(HETATM   85 1H31 UNK A  35)    2.39900000  * -13.24600000  *  -9.29200000  *
    86       H(HETATM   86 2H31 UNK A  35)    2.30100000  * -13.89800000  * -10.62600000  *
    87       N(HETATM   87  N3  UNK A  35)    2.33400000  * -13.95600000  *  -9.76800000  *
    88       N(HETATM   88  N4  UNK A  35)    2.14800000  * -17.76700000  *  -8.06300000  *
    89       H(HETATM   89 1H5  UNK A  35)    2.17300000  * -16.20600000  * -10.79000000  *
    90       N(HETATM   90  N5  UNK A  35)    2.18200000  * -16.27200000  *  -9.93200000  *
    91       O(HETATM   91  O3  PO4 A  32)    1.73300000  * -15.44500000  *  -2.58600000  *
    92       H(HETATM   92  H1  UNK A  35)    3.11700000  * -19.99900000  *  -2.64200000  *
    93       O(HETATM   93  O1  UNK A  35)    2.37200000  * -19.68400000  *  -2.77500000  *
    94       H(HETATM   94 2H2  UNK A  35)    4.95000000  * -18.44600000  *  -3.74900000  *
    95       O(HETATM   95  O2  UNK A  35)    4.37900000  * -18.43300000  *  -4.33600000  *
    96       O(HETATM   96  O3  UNK A  35)    0.93500000  * -17.50800000  *  -4.37900000  *
    97       O(HETATM   97  O1  PO4 A  34)   -0.03200000  *  -8.80800000  *  -2.22400000  *
    98       O(HETATM   98  O2  PO4 A  34)    1.11600000  * -10.70900000  *  -0.96900000  *
    99       H(HETATM   99  H3  PO4 A  34)    2.62200000  * -10.36000000  *  -3.11700000  *
   100       O(HETATM  100  O3  PO4 A  34)    2.21900000  *  -9.66300000  *  -2.96000000  *
   101       O(HETATM  101  O4  PO4 A  34)    0.17300000  * -11.03200000  *  -3.31300000  *
   102       O(HETATM  102  O1  PO4 A  33)   -1.23900000  * -12.28000000  *  -1.63500000  *
   103       O(HETATM  103  O2  PO4 A  33)   -1.74500000  * -12.44600000  *  -4.13800000  *
   104       O(HETATM  104  O3  PO4 A  33)    0.30100000  * -13.53000000  *  -3.21000000  *
   105       H(HETATM  105 1H32 UNK A  35)    0.71800000  * -16.55600000  *  -1.27000000  *
   106       H(HETATM  106 2H32 UNK A  35)   -0.15500000  * -16.09300000  *  -2.49700000  *
   107       C(HETATM  107  C3  UNK A  35)    0.72200000  * -16.41300000  *  -2.23200000  *
   108       H(HETATM  108  H4  UNK A  35)    0.39200000  * -18.39200000  *  -2.68200000  *
   109       C(HETATM  109  C4  UNK A  35)    1.04600000  * -17.71500000  *  -2.95100000  *
   110       H(HETATM  110 2H5  UNK A  35)    2.79400000  * -17.96400000  *  -1.84700000  *
   111       C(HETATM  111  C5  UNK A  35)    2.43900000  * -18.26400000  *  -2.70900000  *
   112       H(HETATM  112  H6  UNK A  35)    3.55300000  * -16.77200000  *  -3.67500000  *
   113       C(HETATM  113  C6  UNK A  35)    3.26600000  * -17.68400000  *  -3.89200000  *
   114       H(HETATM  114  H7  UNK A  35)    2.23700000  * -18.48700000  *  -5.47500000  *
   115       C(HETATM  115  C7  UNK A  35)    2.21300000  * -17.63600000  *  -4.99000000  *
   116       H(HETATM  116  H8  UNK A  35)    2.60700000  * -14.87700000  *  -4.82100000  *
   117       C(HETATM  117  C8  UNK A  35)    2.51600000  * -15.20600000  *  -5.68700000  *
   118       C(HETATM  118  C9  UNK A  35)    2.28500000  * -15.15200000  *  -9.18000000  *
   119       C(HETATM  119  C10 UNK A  35)    2.35300000  * -15.33300000  *  -7.80300000  *
   120       N(HETATM  120  N2  ATP A  30)   -2.49700000  * -14.43900000  *   6.75000000  *
   121       H(HETATM  121 1H3  ATP A  30)   -2.39900000  * -13.24600000  *   9.29200000  *
   122       H(HETATM  122 2H31 ATP A  30)   -2.30100000  * -13.89800000  *  10.62600000  *
   123       N(HETATM  123  N3  ATP A  30)   -2.33400000  * -13.95600000  *   9.76800000  *
   124       N(HETATM  124  N4  ATP A  30)   -2.14800000  * -17.76700000  *   8.06300000  *
   125       H(HETATM  125 2H5  ATP A  30)   -2.17300000  * -16.20600000  *  10.79000000  *
   126       N(HETATM  126  N5  ATP A  30)   -2.18200000  * -16.27200000  *   9.93200000  *
   127       O(HETATM  127  O1  ATP A  30)   -1.73300000  * -15.44500000  *   2.58600000  *
   128       H(HETATM  128  H2  ATP A  30)   -3.11700000  * -19.99900000  *   2.64200000  *
   129       O(HETATM  129  O2  ATP A  30)   -2.37200000  * -19.68400000  *   2.77500000  *
   130       H(HETATM  130 2H32 ATP A  30)   -4.95000000  * -18.44600000  *   3.74900000  *
   131       O(HETATM  131  O3  ATP A  30)   -4.37900000  * -18.43300000  *   4.33600000  *
   132       O(HETATM  132  O4  ATP A  30)   -0.93500000  * -17.50800000  *   4.37900000  *
   133       O(HETATM  133  O5  ATP A  30)    0.03200000  *  -8.80800000  *   2.22400000  *
   134       O(HETATM  134  O6  ATP A  30)   -1.11600000  * -10.70900000  *   0.96900000  *
   135       H(HETATM  135  H7  ATP A  30)   -2.62200000  * -10.36000000  *   3.11700000  *
   136       O(HETATM  136  O7  ATP A  30)   -2.21900000  *  -9.66300000  *   2.96000000  *
   137       O(HETATM  137  O8  ATP A  30)   -0.17300000  * -11.03200000  *   3.31300000  *
   138       O(HETATM  138  O9  ATP A  30)    1.23900000  * -12.28000000  *   1.63500000  *
   139       O(HETATM  139  O10 ATP A  30)    1.74500000  * -12.44600000  *   4.13800000  *
   140       O(HETATM  140  O11 ATP A  30)   -0.30100000  * -13.53000000  *   3.21000000  *
   141       O(HETATM  141  O12 ATP A  30)   -1.24800000  * -13.64400000  *   0.89200000  *
   142       O(HETATM  142  O13 ATP A  30)   -2.80900000  * -13.27800000  *   2.91700000  *
   143       P(HETATM  143  P1  ATP A  30)   -0.88000000  *  -9.98800000  *   2.26100000  *
   144       P(HETATM  144  P2  ATP A  30)    0.75000000  * -12.30800000  *   3.04400000  *
   145       P(HETATM  145  P3  ATP A  30)   -1.59700000  * -13.89700000  *   2.30500000  *
   146       C(HETATM  146  C1  ATP A  37)   -2.75400000  *   2.19000000  *  -8.08500000  *
   147       H(HETATM  147 1H2  ATP A  37)   -3.05100000  *   3.80100000  *  -5.49700000  *
   148       C(HETATM  148  C2  ATP A  37)   -2.94100000  *   3.07400000  *  -6.06700000  *
   149       N(HETATM  149  N1  ATP A  37)   -2.64400000  *   2.10400000  *  -9.44800000  *
   150       N(HETATM  150  N2  ATP A  37)   -2.53700000  *   0.00600000  *  -8.66400000  *
   151       H(HETATM  151 1H31 ATP A  37)   -2.63500000  *  -1.18800000  *  -6.12200000  *
   152       H(HETATM  152 2H31 ATP A  37)   -2.73400000  *  -0.53600000  *  -4.78800000  *
   153       N(HETATM  153  N3  ATP A  37)   -2.70100000  *  -0.47700000  *  -5.64600000  *
   154       N(HETATM  154  N4  ATP A  37)   -2.88700000  *   3.33400000  *  -7.35100000  *
   155       H(HETATM  155 1H5  ATP A  37)   -2.86200000  *   1.77200000  *  -4.62400000  *
   156       N(HETATM  156  N5  ATP A  37)   -2.85300000  *   1.83800000  *  -5.48200000  *
   157       O(HETATM  157  O1  ATP A  37)   -3.30200000  *   1.01100000  * -12.82800000  *
   158       H(HETATM  158 2H2  ATP A  37)   -1.91700000  *   5.56500000  * -12.77200000  *
   159       O(HETATM  159  O2  ATP A  37)   -2.66200000  *   5.25100000  * -12.63900000  *
   160       H(HETATM  160  H3  ATP A  37)   -0.08500000  *   4.01300000  * -11.66500000  *
   161       O(HETATM  161  O3  ATP A  37)   -0.65500000  *   3.99900000  * -11.07800000  *
   162       O(HETATM  162  O4  ATP A  37)   -4.09900000  *   3.07400000  * -11.03500000  *
   163       O(HETATM  163  O5  ATP A  37)   -5.06700000  *  -5.62600000  * -13.19000000  *
   164       O(HETATM  164  O6  ATP A  37)   -3.91900000  *  -3.72400000  * -14.44500000  *
   165       H(HETATM  165 1H7  ATP A  37)   -2.41300000  *  -4.07400000  * -12.29700000  *
   166       O(HETATM  166  O7  ATP A  37)   -2.81500000  *  -4.77000000  * -12.45400000  *
   167       O(HETATM  167  O8  ATP A  37)   -4.86100000  *  -3.40200000  * -12.10100000  *
   168       O(HETATM  168  O9  ATP A  37)   -6.27400000  *  -2.15400000  * -13.77900000  *
   169       O(HETATM  169  O10 ATP A  37)   -6.77900000  *  -1.98800000  * -11.27600000  *
   170       O(HETATM  170  O11 ATP A  37)   -4.73300000  *  -0.90400000  * -12.20400000  *
   171       O(HETATM  171  O1  ATP A  38)   -5.20800000  *  -3.40200000  * -18.72700000  *
   172       O(HETATM  172  O2  ATP A  38)   -3.79500000  *  -2.15400000  * -17.04900000  *
   173       O(HETATM  173  O3  ATP A  38)   -3.29000000  *  -1.98800000  * -19.55200000  *
   174       O(HETATM  174  O4  ATP A  38)   -5.33600000  *  -0.90400000  * -18.62400000  *
   175       O(HETATM  175  O5  ATP A  38)   -6.28200000  *  -0.78900000  * -16.30600000  *
   176       O(HETATM  176  O6  ATP A  38)   -7.84400000  *  -1.15500000  * -18.33100000  *
   177       P(HETATM  177  P1  ATP A  38)   -5.91500000  *  -4.44500000  * -17.67500000  *
   178       P(HETATM  178  P2  ATP A  38)   -4.28500000  *  -2.12500000  * -18.45800000  *
   179       P(HETATM  179  P3  ATP A  38)   -6.63200000  *  -0.53600000  * -17.71900000  *
   180      Mg(HETATM  180 MG    MG A  39)   -5.03400000  *  -2.24100000  * -15.41400000  *
   181       H(HETATM  181 1H32 ATP A  37)   -4.31700000  *   2.12200000  * -14.14400000  *
   182       H(HETATM  182 2H32 ATP A  37)   -5.19000000  *   1.66000000  * -12.91700000  *
   183       C(HETATM  183  C3  ATP A  37)   -4.31300000  *   1.98000000  * -13.18200000  *
   184       H(HETATM  184  H4  ATP A  37)   -4.64300000  *   3.95900000  * -12.73200000  *
   185       C(HETATM  185  C4  ATP A  37)   -3.98800000  *   3.28200000  * -12.46300000  *
   186       H(HETATM  186 2H5  ATP A  37)   -2.24000000  *   3.53000000  * -13.56700000  *
   187       C(HETATM  187  C5  ATP A  37)   -2.59600000  *   3.83000000  * -12.70500000  *
   188       H(HETATM  188  H6  ATP A  37)   -1.48100000  *   2.33900000  * -11.73900000  *
   189       C(HETATM  189  C6  ATP A  37)   -1.76800000  *   3.25000000  * -11.52200000  *
   190       H(HETATM  190 2H7  ATP A  37)   -2.79700000  *   4.05300000  *  -9.93900000  *
   191       C(HETATM  191  C7  ATP A  37)   -2.82100000  *   3.20300000  * -10.42400000  *
   192       H(HETATM  192  H8  ATP A  37)   -2.42800000  *   0.44300000  * -10.59300000  *
   193       C(HETATM  193  C8  ATP A  37)   -2.51800000  *   0.77300000  *  -9.72700000  *
   194       C(HETATM  194  C9  ATP A  37)   -2.75000000  *   0.71900000  *  -6.23400000  *
   195       C(HETATM  195  C10 ATP A  37)   -2.68100000  *   0.89900000  *  -7.61100000  *
   196       H(HETATM  196 1H11 ATP A  38)   -7.33500000  *  -0.53600000  * -26.04000000  *
   197       N(HETATM  197  N1  ATP A  38)   -7.36800000  *  -0.47700000  * -25.18200000  *
   198       N(HETATM  198  N2  ATP A  38)   -7.18200000  *   3.33400000  * -23.47700000  *
   199       H(HETATM  199 1H3  ATP A  38)   -7.20700000  *   1.77200000  * -26.20400000  *
   200       N(HETATM  200  N3  ATP A  38)   -7.21600000  *   1.83800000  * -25.34600000  *
   201       O(HETATM  201  O7  ATP A  38)   -6.76700000  *   1.01100000  * -18.00000000  *
   202       H(HETATM  202  H8  ATP A  38)   -8.15200000  *   5.56500000  * -18.05600000  *
   203       O(HETATM  203  O8  ATP A  38)   -7.40700000  *   5.25100000  * -18.18900000  *
   204       H(HETATM  204  H9  ATP A  38)   -9.98400000  *   4.01300000  * -19.16300000  *
   205       O(HETATM  205  O9  ATP A  38)   -9.41400000  *   3.99900000  * -19.75000000  *
   206       O(HETATM  206  O10 ATP A  38)   -5.97000000  *   3.07400000  * -19.79300000  *
   207       O(HETATM  207  O11 ATP A  38)   -5.00200000  *  -5.62600000  * -17.63800000  *
   208       O(HETATM  208  O12 ATP A  38)   -6.15000000  *  -3.72400000  * -16.38300000  *
   209       H(HETATM  209  H13 ATP A  38)   -7.65600000  *  -4.07400000  * -18.53100000  *
   210       O(HETATM  210  O13 ATP A  38)   -7.25400000  *  -4.77000000  * -18.37400000  *
   211       O(HETATM  211  O12 ATP A  37)   -3.78700000  *  -0.78900000  * -14.52200000  *
   212       O(HETATM  212  O13 ATP A  37)   -2.22500000  *  -1.15500000  * -12.49700000  *
   213       P(HETATM  213  P1  ATP A  37)   -4.15400000  *  -4.44500000  * -13.15300000  *
   214       P(HETATM  214  P2  ATP A  37)   -5.78400000  *  -2.12500000  * -12.37000000  *
   215       P(HETATM  215  P3  ATP A  37)   -3.43700000  *  -0.53600000  * -13.10900000  *
   216       H(HETATM  216 1H12 ATP A  38)   -5.75200000  *   2.12200000  * -16.68400000  *
   217       H(HETATM  217 2H11 ATP A  38)   -4.87900000  *   1.66000000  * -17.91100000  *
   218       C(HETATM  218  C1  ATP A  38)   -5.75600000  *   1.98000000  * -17.64600000  *
   219       H(HETATM  219  H2  ATP A  38)   -5.42600000  *   3.95900000  * -18.09600000  *
   220       C(HETATM  220  C2  ATP A  38)   -6.08100000  *   3.28200000  * -18.36500000  *
   221       H(HETATM  221 2H3  ATP A  38)   -7.82900000  *   3.53000000  * -17.26100000  *
   222       C(HETATM  222  C3  ATP A  38)   -7.47300000  *   3.83000000  * -18.12300000  *
   223       H(HETATM  223  H4  ATP A  38)   -8.58800000  *   2.33900000  * -19.08900000  *
   224       C(HETATM  224  C4  ATP A  38)   -8.30100000  *   3.25000000  * -19.30600000  *
   225       H(HETATM  225  H5  ATP A  38)   -7.27200000  *   4.05300000  * -20.88900000  *
   226       C(HETATM  226  C5  ATP A  38)   -7.24800000  *   3.20300000  * -20.40400000  *
   227       H(HETATM  227  H6  ATP A  38)   -7.64100000  *   0.44300000  * -20.23500000  *
   228       C(HETATM  228  C6  ATP A  38)   -7.55100000  *   0.77300000  * -21.10100000  *
   229       C(HETATM  229  C7  ATP A  38)   -7.31900000  *   0.71900000  * -24.59400000  *
   230       C(HETATM  230  C8  ATP A  38)   -7.38800000  *   0.89900000  * -23.21700000  *
   231       C(HETATM  231  C9  ATP A  38)   -7.31500000  *   2.19000000  * -22.74300000  *
   232       H(HETATM  232  H10 ATP A  38)   -7.01800000  *   3.80100000  * -25.33100000  *
   233       C(HETATM  233  C10 ATP A  38)   -7.12800000  *   3.07400000  * -24.76100000  *
   234       N(HETATM  234  N4  ATP A  38)   -7.42500000  *   2.10400000  * -21.38000000  *
   235       N(HETATM  235  N5  ATP A  38)   -7.53200000  *   0.00600000  * -22.16400000  *
   236       H(HETATM  236 2H12 ATP A  38)   -7.43400000  *  -1.18800000  * -24.70600000  *
   237       H(HETATM  237 1H1  ATP A  40)   -5.75200000  *  -5.27400000  *   1.27000000  *
   238       H(HETATM  238 2H1  ATP A  40)   -4.87900000  *  -4.81200000  *   2.49700000  *
   239       C(HETATM  239  C1  ATP A  40)   -5.75600000  *  -5.13200000  *   2.23200000  *
   240       H(HETATM  240  H2  ATP A  40)   -5.42600000  *  -7.11100000  *   2.68200000  *
   241       C(HETATM  241  C2  ATP A  40)   -6.08100000  *  -6.43400000  *   2.95100000  *
   242       H(HETATM  242  H3  ATP A  40)   -7.82900000  *  -6.68200000  *   1.84700000  *
   243       C(HETATM  243  C3  ATP A  40)   -7.47300000  *  -6.98200000  *   2.70900000  *
   244       H(HETATM  244  H4  ATP A  40)   -8.58800000  *  -5.49100000  *   3.67500000  *
   245       C(HETATM  245  C4  ATP A  40)   -8.30100000  *  -6.40200000  *   3.89200000  *
   246       H(HETATM  246 1H5  ATP A  40)   -7.27200000  *  -7.20500000  *   5.47500000  *
   247       O(HETATM  247  O1  ATP A  40)   -5.20800000  *   0.25000000  *   3.31300000  *
   248       O(HETATM  248  O2  ATP A  40)   -3.79500000  *  -0.99800000  *   1.63500000  *
   249       O(HETATM  249  O3  ATP A  40)   -3.29000000  *  -1.16400000  *   4.13800000  *
   250       O(HETATM  250  O4  ATP A  40)   -5.33600000  *  -2.24800000  *   3.21000000  *
   251       O(HETATM  251  O5  ATP A  40)   -6.28200000  *  -2.36300000  *   0.89200000  *
   252       O(HETATM  252  O6  ATP A  40)   -7.84400000  *  -1.99700000  *   2.91700000  *
   253       P(HETATM  253  P1  ATP A  40)   -5.91500000  *   1.29300000  *   2.26100000  *
   254       P(HETATM  254  P2  ATP A  40)   -4.28500000  *  -1.02700000  *   3.04400000  *
   255       P(HETATM  255  P3  ATP A  40)   -6.63200000  *  -2.61600000  *   2.30500000  *
   256       H(HETATM  256 1H1  ATP A  41)   -4.31700000  *  -5.27400000  *  -1.27000000  *
   257       H(HETATM  257 2H1  ATP A  41)   -5.19000000  *  -4.81200000  *  -2.49700000  *
   258       C(HETATM  258  C1  ATP A  41)   -4.31300000  *  -5.13200000  *  -2.23200000  *
   259       H(HETATM  259 1H2  ATP A  41)   -4.64300000  *  -7.11100000  *  -2.68200000  *
   260       C(HETATM  260  C2  ATP A  41)   -3.98800000  *  -6.43400000  *  -2.95100000  *
   261       H(HETATM  261  H3  ATP A  41)   -2.24000000  *  -6.68200000  *  -1.84700000  *
   262       C(HETATM  262  C3  ATP A  41)   -2.59600000  *  -6.98200000  *  -2.70900000  *
   263       H(HETATM  263  H4  ATP A  41)   -1.48100000  *  -5.49100000  *  -3.67500000  *
   264       C(HETATM  264  C4  ATP A  41)   -1.76800000  *  -6.40200000  *  -3.89200000  *
   265       H(HETATM  265 1H5  ATP A  41)   -2.79700000  *  -7.20500000  *  -5.47500000  *
   266       C(HETATM  266  C5  ATP A  41)   -2.82100000  *  -6.35500000  *  -4.99000000  *
   267       H(HETATM  267 1H6  ATP A  41)   -2.42800000  *  -3.59500000  *  -4.82100000  *
   268       C(HETATM  268  C6  ATP A  41)   -2.51800000  *  -3.92500000  *  -5.68700000  *
   269       C(HETATM  269  C7  ATP A  41)   -2.75000000  *  -3.87100000  *  -9.18000000  *
   270       C(HETATM  270  C8  ATP A  41)   -2.68100000  *  -4.05100000  *  -7.80300000  *
   271       C(HETATM  271  C9  ATP A  41)   -2.75400000  *  -5.34200000  *  -7.32900000  *
   272       C(HETATM  272  C5  ATP A  40)   -7.24800000  *  -6.35500000  *   4.99000000  *
   273       H(HETATM  273  H6  ATP A  40)   -7.64100000  *  -3.59500000  *   4.82100000  *
   274       C(HETATM  274  C6  ATP A  40)   -7.55100000  *  -3.92500000  *   5.68700000  *
   275       C(HETATM  275  C7  ATP A  40)   -7.31900000  *  -3.87100000  *   9.18000000  *
   276       C(HETATM  276  C8  ATP A  40)   -7.38800000  *  -4.05100000  *   7.80300000  *
   277       C(HETATM  277  C9  ATP A  40)   -7.31500000  *  -5.34200000  *   7.32900000  *
   278       H(HETATM  278  H10 ATP A  40)   -7.01800000  *  -6.95300000  *   9.91700000  *
   279       C(HETATM  279  C10 ATP A  40)   -7.12800000  *  -6.22600000  *   9.34700000  *
   280       N(HETATM  280  N1  ATP A  40)   -7.42500000  *  -5.25600000  *   5.96600000  *
   281       N(HETATM  281  N2  ATP A  40)   -7.53200000  *  -3.15800000  *   6.75000000  *
   282       H(HETATM  282 1H3  ATP A  40)   -7.43400000  *  -1.96400000  *   9.29200000  *
   283       H(HETATM  283 2H3  ATP A  40)   -7.33500000  *  -2.61600000  *  10.62600000  *
   284       N(HETATM  284  N3  ATP A  40)   -7.36800000  *  -2.67500000  *   9.76800000  *
   285       N(HETATM  285  N4  ATP A  40)   -7.18200000  *  -6.48600000  *   8.06300000  *
   286       H(HETATM  286 2H5  ATP A  40)   -7.20700000  *  -4.92400000  *  10.79000000  *
   287       N(HETATM  287  N5  ATP A  40)   -7.21600000  *  -4.99000000  *   9.93200000  *
   288       O(HETATM  288  O7  ATP A  40)   -6.76700000  *  -4.16300000  *   2.58600000  *
   289       H(HETATM  289  H8  ATP A  40)   -8.15200000  *  -8.71700000  *   2.64200000  *
   290       O(HETATM  290  O8  ATP A  40)   -7.40700000  *  -8.40300000  *   2.77500000  *
   291       H(HETATM  291  H9  ATP A  40)   -9.98400000  *  -7.16500000  *   3.74900000  *
   292       O(HETATM  292  O9  ATP A  40)   -9.41400000  *  -7.15100000  *   4.33600000  *
   293       O(HETATM  293  O10 ATP A  40)   -5.97000000  *  -6.22600000  *   4.37900000  *
   294       O(HETATM  294  O11 ATP A  40)   -5.00200000  *   2.47400000  *   2.22400000  *
   295       O(HETATM  295  O12 ATP A  40)   -6.15000000  *   0.57200000  *   0.96900000  *
   296       H(HETATM  296  H13 ATP A  40)   -7.65600000  *   0.92200000  *   3.11700000  *
   297       O(HETATM  297  O13 ATP A  40)   -7.25400000  *   1.61800000  *   2.96000000  *
   298       H(HETATM  298  H1  ATP A  41)   -1.91700000  *  -8.71700000  *  -2.64200000  *
   299       O(HETATM  299  O1  ATP A  41)   -2.66200000  *  -8.40300000  *  -2.77500000  *
   300       H(HETATM  300 2H2  ATP A  41)   -0.08500000  *  -7.16500000  *  -3.74900000  *
   301       O(HETATM  301  O2  ATP A  41)   -0.65500000  *  -7.15100000  *  -4.33600000  *
   302       O(HETATM  302  O3  ATP A  41)   -4.09900000  *  -6.22600000  *  -4.37900000  *
   303       O(HETATM  303  O4  ATP A  41)   -5.06700000  *   2.47400000  *  -2.22400000  *
   304       O(HETATM  304  O5  ATP A  41)   -3.91900000  *   0.57200000  *  -0.96900000  *
   305       H(HETATM  305 2H6  ATP A  41)   -2.41300000  *   0.92200000  *  -3.11700000  *
   306       O(HETATM  306  O6  ATP A  41)   -2.81500000  *   1.61800000  *  -2.96000000  *
   307       O(HETATM  307  O7  ATP A  41)   -4.86100000  *   0.25000000  *  -3.31300000  *
   308       O(HETATM  308  O8  ATP A  41)   -6.27400000  *  -0.99800000  *  -1.63500000  *
   309       O(HETATM  309  O9  ATP A  41)   -6.77900000  *  -1.16400000  *  -4.13800000  *
   310       O(HETATM  310  O10 ATP A  41)   -4.73300000  *  -2.24800000  *  -3.21000000  *
   311       O(HETATM  311  O11 ATP A  41)   -3.78700000  *  -2.36300000  *  -0.89200000  *
   312       O(HETATM  312  O12 ATP A  41)   -2.22500000  *  -1.99700000  *  -2.91700000  *
   313       P(HETATM  313  P1  ATP A  41)   -4.15400000  *   1.29300000  *  -2.26100000  *
   314       P(HETATM  314  P2  ATP A  41)   -5.78400000  *  -1.02700000  *  -3.04400000  *
   315       P(HETATM  315  P3  ATP A  41)   -3.43700000  *  -2.61600000  *  -2.30500000  *
   316      Mg(HETATM  316 MG    MG A  42)   -5.03400000  *  -0.91100000  *   0.00000000  *
   317       H(HETATM  317  H10 ATP A  41)   -3.05100000  *  -6.95300000  *  -9.91700000  *
   318       C(HETATM  318  C10 ATP A  41)   -2.94100000  *  -6.22600000  *  -9.34700000  *
   319       N(HETATM  319  N1  ATP A  41)   -2.64400000  *  -5.25600000  *  -5.96600000  *
   320       N(HETATM  320  N2  ATP A  41)   -2.53700000  *  -3.15800000  *  -6.75000000  *
   321       H(HETATM  321 1H3  ATP A  41)   -2.63500000  *  -1.96400000  *  -9.29200000  *
   322       H(HETATM  322 2H3  ATP A  41)   -2.73400000  *  -2.61600000  * -10.62600000  *
   323       N(HETATM  323  N3  ATP A  41)   -2.70100000  *  -2.67500000  *  -9.76800000  *
   324       N(HETATM  324  N4  ATP A  41)   -2.88700000  *  -6.48600000  *  -8.06300000  *
   325       H(HETATM  325 2H5  ATP A  41)   -2.86200000  *  -4.92400000  * -10.79000000  *
   326       N(HETATM  326  N5  ATP A  41)   -2.85300000  *  -4.99000000  *  -9.93200000  *
   327       O(HETATM  327  O13 ATP A  41)   -3.30200000  *  -4.16300000  *  -2.58600000  *
   328       C(HETATM  328  C1  ATP A  43)    2.51600000  * -10.50900000  *  -9.72700000  *
   329       C(HETATM  329  C2  ATP A  43)    2.28500000  * -10.56300000  *  -6.23400000  *
   330       C(HETATM  330  C3  ATP A  43)    2.35300000  * -10.38200000  *  -7.61100000  *
   331       C(HETATM  331  C4  ATP A  43)    2.28100000  *  -9.09200000  *  -8.08500000  *
   332       H(HETATM  332 1H5  ATP A  43)    1.98400000  *  -7.48100000  *  -5.49700000  *
   333       C(HETATM  333  C5  ATP A  43)    2.09300000  *  -8.20700000  *  -6.06700000  *
   334       N(HETATM  334  N1  ATP A  43)    2.39000000  *  -9.17700000  *  -9.44800000  *
   335       N(HETATM  335  N2  ATP A  43)    2.49700000  * -11.27600000  *  -8.66400000  *
   336       H(HETATM  336 1H3  ATP A  43)    2.39900000  * -12.46900000  *  -6.12200000  *
   337       H(HETATM  337 2H3  ATP A  43)    2.30100000  * -11.81700000  *  -4.78800000  *
   338       N(HETATM  338  N3  ATP A  43)    2.33400000  * -11.75900000  *  -5.64600000  *
   339       N(HETATM  339  N4  ATP A  43)    2.14800000  *  -7.94800000  *  -7.35100000  *
   340       H(HETATM  340 2H5  ATP A  43)    2.17300000  *  -9.50900000  *  -4.62400000  *
   341       N(HETATM  341  N5  ATP A  43)    2.18200000  *  -9.44300000  *  -5.48200000  *
   342       O(HETATM  342  O1  ATP A  43)    1.73300000  * -10.27000000  * -12.82800000  *
   343       H(HETATM  343  H2  ATP A  43)    3.11700000  *  -5.71600000  * -12.77200000  *
   344       O(HETATM  344  O2  ATP A  43)    2.37200000  *  -6.03100000  * -12.63900000  *
   345       H(HETATM  345  H3  ATP A  43)    4.95000000  *  -7.26900000  * -11.66500000  *
   346       O(HETATM  346  O3  ATP A  43)    4.37900000  *  -7.28200000  * -11.07800000  *
   347       O(HETATM  347  O4  ATP A  43)    0.93500000  *  -8.20700000  * -11.03500000  *
   348       O(HETATM  348  O5  ATP A  43)   -0.03200000  * -16.90700000  * -13.19000000  *
   349       O(HETATM  349  O6  ATP A  43)    1.11600000  * -15.00600000  * -14.44500000  *
   350       H(HETATM  350 1H7  ATP A  43)    2.62200000  * -15.35500000  * -12.29700000  *
   351       O(HETATM  351  O7  ATP A  43)    2.21900000  * -16.05200000  * -12.45400000  *
   352       O(HETATM  352  O8  ATP A  43)    0.17300000  * -14.68300000  * -12.10100000  *
   353       O(HETATM  353  O1  ATP A  44)   -1.11600000  * -15.00600000  * -16.38300000  *
   354       H(HETATM  354 1H2  ATP A  44)   -2.62200000  * -15.35500000  * -18.53100000  *
   355       O(HETATM  355  O2  ATP A  44)   -2.21900000  * -16.05200000  * -18.37400000  *
   356       O(HETATM  356  O3  ATP A  44)   -0.17300000  * -14.68300000  * -18.72700000  *
   357       O(HETATM  357  O4  ATP A  44)    1.23900000  * -13.43500000  * -17.04900000  *
   358       O(HETATM  358  O5  ATP A  44)    1.74500000  * -13.26900000  * -19.55200000  *
   359       O(HETATM  359  O6  ATP A  44)   -0.30100000  * -12.18500000  * -18.62400000  *
   360       O(HETATM  360  O7  ATP A  44)   -1.24800000  * -12.07100000  * -16.30600000  *
   361       O(HETATM  361  O8  ATP A  44)   -2.80900000  * -12.43700000  * -18.33100000  *
   362       P(HETATM  362  P1  ATP A  44)   -0.88000000  * -15.72700000  * -17.67500000  *
   363       P(HETATM  363  P2  ATP A  44)    0.75000000  * -13.40700000  * -18.45800000  *
   364       P(HETATM  364  P3  ATP A  44)   -1.59700000  * -11.81800000  * -17.71900000  *
   365      Mg(HETATM  365 MG    MG A  45)    0.00000000  * -13.52300000  * -15.41400000  *
   366       H(HETATM  366 1H6  ATP A  43)    0.71800000  *  -9.15900000  * -14.14400000  *
   367       H(HETATM  367 2H6  ATP A  43)   -0.15500000  *  -9.62200000  * -12.91700000  *
   368       C(HETATM  368  C6  ATP A  43)    0.72200000  *  -9.30200000  * -13.18200000  *
   369       H(HETATM  369 2H7  ATP A  43)    0.39200000  *  -7.32300000  * -12.73200000  *
   370       C(HETATM  370  C7  ATP A  43)    1.04600000  *  -8.00000000  * -12.46300000  *
   371       H(HETATM  371  H8  ATP A  43)    2.79400000  *  -7.75100000  * -13.56700000  *
   372       C(HETATM  372  C8  ATP A  43)    2.43900000  *  -7.45100000  * -12.70500000  *
   373       H(HETATM  373  H9  ATP A  43)    3.55300000  *  -8.94300000  * -11.73900000  *
   374       C(HETATM  374  C9  ATP A  43)    3.26600000  *  -8.03100000  * -11.52200000  *
   375       H(HETATM  375  H10 ATP A  43)    2.23700000  *  -7.22800000  *  -9.93900000  *
   376       C(HETATM  376  C10 ATP A  43)    2.21300000  *  -8.07900000  * -10.42400000  *
   377       H(HETATM  377  H1  ATP A  43)    2.60700000  * -10.83800000  * -10.59300000  *
   378       N(HETATM  378  N1  ATP A  44)   -2.39000000  *  -9.17700000  * -21.38000000  *
   379       N(HETATM  379  N2  ATP A  44)   -2.49700000  * -11.27600000  * -22.16400000  *
   380       H(HETATM  380 1H3  ATP A  44)   -2.39900000  * -12.46900000  * -24.70600000  *
   381       H(HETATM  381 2H3  ATP A  44)   -2.30100000  * -11.81700000  * -26.04000000  *
   382       N(HETATM  382  N3  ATP A  44)   -2.33400000  * -11.75900000  * -25.18200000  *
   383       N(HETATM  383  N4  ATP A  44)   -2.14800000  *  -7.94800000  * -23.47700000  *
   384       H(HETATM  384 1H5  ATP A  44)   -2.17300000  *  -9.50900000  * -26.20400000  *
   385       N(HETATM  385  N5  ATP A  44)   -2.18200000  *  -9.44300000  * -25.34600000  *
   386       O(HETATM  386  O9  ATP A  44)   -1.73300000  * -10.27000000  * -18.00000000  *
   387       H(HETATM  387 1H10 ATP A  44)   -3.11700000  *  -5.71600000  * -18.05600000  *
   388       O(HETATM  388  O10 ATP A  44)   -2.37200000  *  -6.03100000  * -18.18900000  *
   389       H(HETATM  389  H11 ATP A  44)   -4.95000000  *  -7.26900000  * -19.16300000  *
   390       O(HETATM  390  O11 ATP A  44)   -4.37900000  *  -7.28200000  * -19.75000000  *
   391       O(HETATM  391  O12 ATP A  44)   -0.93500000  *  -8.20700000  * -19.79300000  *
   392       O(HETATM  392  O13 ATP A  44)    0.03200000  * -16.90700000  * -17.63800000  *
   393       O(HETATM  393  O9  ATP A  43)   -1.23900000  * -13.43500000  * -13.77900000  *
   394       O(HETATM  394  O10 ATP A  43)   -1.74500000  * -13.26900000  * -11.27600000  *
   395       O(HETATM  395  O11 ATP A  43)    0.30100000  * -12.18500000  * -12.20400000  *
   396       O(HETATM  396  O12 ATP A  43)    1.24800000  * -12.07100000  * -14.52200000  *
   397       O(HETATM  397  O13 ATP A  43)    2.80900000  * -12.43700000  * -12.49700000  *
   398       P(HETATM  398  P1  ATP A  43)    0.88000000  * -15.72700000  * -13.15300000  *
   399       P(HETATM  399  P2  ATP A  43)   -0.75000000  * -13.40700000  * -12.37000000  *
   400       P(HETATM  400  P3  ATP A  43)    1.59700000  * -11.81800000  * -13.10900000  *
   401       H(HETATM  401 1H1  ATP A  44)   -0.71800000  *  -9.15900000  * -16.68400000  *
   402       H(HETATM  402 2H1  ATP A  44)    0.15500000  *  -9.62200000  * -17.91100000  *
   403       C(HETATM  403  C1  ATP A  44)   -0.72200000  *  -9.30200000  * -17.64600000  *
   404       H(HETATM  404 2H2  ATP A  44)   -0.39200000  *  -7.32300000  * -18.09600000  *
   405       C(HETATM  405  C2  ATP A  44)   -1.04600000  *  -8.00000000  * -18.36500000  *
   406       H(HETATM  406  H3  ATP A  44)   -2.79400000  *  -7.75100000  * -17.26100000  *
   407       C(HETATM  407  C3  ATP A  44)   -2.43900000  *  -7.45100000  * -18.12300000  *
   408       H(HETATM  408  H4  ATP A  44)   -3.55300000  *  -8.94300000  * -19.08900000  *
   409       C(HETATM  409  C4  ATP A  44)   -3.26600000  *  -8.03100000  * -19.30600000  *
   410       H(HETATM  410 2H5  ATP A  44)   -2.23700000  *  -7.22800000  * -20.88900000  *
   411       C(HETATM  411  C5  ATP A  44)   -2.21300000  *  -8.07900000  * -20.40400000  *
   412       H(HETATM  412  H6  ATP A  44)   -2.60700000  * -10.83800000  * -20.23500000  *
   413       C(HETATM  413  C6  ATP A  44)   -2.51600000  * -10.50900000  * -21.10100000  *
   414       C(HETATM  414  C7  ATP A  44)   -2.28500000  * -10.56300000  * -24.59400000  *
   415       C(HETATM  415  C8  ATP A  44)   -2.35300000  * -10.38200000  * -23.21700000  *
   416       C(HETATM  416  C9  ATP A  44)   -2.28100000  *  -9.09200000  * -22.74300000  *
   417       H(HETATM  417 2H10 ATP A  44)   -1.98400000  *  -7.48100000  * -25.33100000  *
   418       C(HETATM  418  C10 ATP A  44)   -2.09300000  *  -8.20700000  * -24.76100000  *
   419       O(HETATM  419  O1  O-O A  46)   -4.94400000  * -10.03300000  * -16.06400000  *
   420       O(HETATM  420  O1  O-O A  47)    0.09100000  *  -4.40100000  *   0.65000000  *
   421       O(HETATM  421  O1  O-O A  48)   -0.09100000  *   1.24900000  * -14.76400000  *
   422       O(HETATM  422  O2  O-O A  47)   -0.09100000  *  -4.40100000  *  -0.65000000  *
   423       O(HETATM  423  O1  O-O A  49)   -4.94400000  * -15.68200000  *   0.65000000  *
   424       O(HETATM  424  O2  O-O A  46)   -5.12500000  * -10.03300000  * -14.76400000  *
   425       O(HETATM  425  O2  O-O A  49)   -5.12500000  * -15.68200000  *  -0.65000000  *
   426       O(HETATM  426  O2  O-O A  48)    0.09100000  *   1.24900000  * -16.06400000  *
   427       H(HETATM  427  H1  HET A  50)   -1.09900000  * -10.18800000  *  -5.58000000  *
   428       C(HETATM  428  C1  HET A  50)   -1.06200000  * -10.27400000  *  -6.50500000  *
   429       H(HETATM  429  H2  HET A  50)   -1.04200000  *  -8.33400000  *  -6.91200000  *
   430       C(HETATM  430  C2  HET A  50)   -1.03000000  *  -9.17500000  *  -7.30300000  *
   431       H(HETATM  431  H3  HET A  50)   -0.93000000  *  -8.51000000  *  -9.20500000  *
   432       C(HETATM  432  C3  HET A  50)   -0.97900000  *  -9.27400000  *  -8.67800000  *
   433       H(HETATM  433  H4  HET A  50)   -0.99500000  * -10.57900000  * -10.16700000  *
   434       C(HETATM  434  C4  HET A  50)   -1.00000000  * -10.50600000  *  -9.24200000  *
   435       C(HETATM  435  C5  HET A  50)   -1.02800000  * -11.64100000  *  -8.49000000  *
   436       H(HETATM  436 1H1  HET A  50)   -1.41400000  * -12.76500000  *  -5.91000000  *
   437       N(HETATM  437  N1  HET A  50)   -1.13200000  * -12.81000000  *  -6.72100000  *
   438       H(HETATM  438 2H1  HET A  50)   -1.03200000  * -12.19600000  *  -6.59100000  *
   439       N(HETATM  439  N2  HET A  50)   -1.04000000  * -11.49200000  *  -7.08700000  *
   440       H(HETATM  440  H6  HET A  50)   -1.09900000  * -15.52700000  *  -9.83400000  *
   441       C(HETATM  441  C6  HET A  50)   -1.06200000  * -15.44100000  *  -8.90900000  *
   442       H(HETATM  442  H7  HET A  50)   -1.04200000  * -17.38100000  *  -8.50200000  *
   443       C(HETATM  443  C7  HET A  50)   -1.03000000  * -16.54000000  *  -8.11100000  *
   444       H(HETATM  444  H8  HET A  50)   -0.93000000  * -17.20500000  *  -6.20900000  *
   445       C(HETATM  445  C8  HET A  50)   -0.97900000  * -16.44100000  *  -6.73600000  *
   446       H(HETATM  446  H9  HET A  50)   -0.99500000  * -15.13600000  *  -5.24700000  *
   447       C(HETATM  447  C9  HET A  50)   -1.00000000  * -15.20900000  *  -6.17200000  *
   448       C(HETATM  448  C10 HET A  50)   -1.02800000  * -14.07400000  *  -6.92400000  *
   449       H(HETATM  449 1H3  HET A  50)   -1.41400000  * -12.95000000  *  -9.50400000  *
   450       N(HETATM  450  N3  HET A  50)   -1.13200000  * -12.90500000  *  -8.69300000  *
   451       H(HETATM  451 2H3  HET A  50)   -1.03200000  * -13.51900000  *  -8.82300000  *
   452       N(HETATM  452  N4  HET A  50)   -1.04000000  * -14.22300000  *  -8.32700000  *
   453       C(HETATM  453  C1  HET A  51)   -0.55500000  *  -4.74600000  *   9.65800000  *
   454       H(HETATM  454  H2  HET A  51)   -0.50200000  *  -6.10700000  *   8.18500000  *
   455       C(HETATM  455  C2  HET A  51)   -0.54400000  *  -5.18800000  *   8.32700000  *
   456       H(HETATM  456  H3  HET A  51)   -0.58100000  *  -4.72800000  *   6.36600000  *
   457       C(HETATM  457  C3  HET A  51)   -0.58800000  *  -4.39400000  *   7.23500000  *
   458       C(HETATM  458  C4  HET A  51)   -0.64400000  *  -3.03800000  *   7.51600000  *
   459       H(HETATM  459 1H1  HET A  51)   -0.69300000  *  -0.92200000  *   9.64300000  *
   460       N(HETATM  460  N1  HET A  51)   -0.66500000  *  -1.20800000  *   8.83500000  *
   461       H(HETATM  461 2H1  HET A  51)   -0.68900000  *  -1.72300000  *   8.93700000  *
   462       N(HETATM  462  N2  HET A  51)   -0.65300000  *  -2.56900000  *   8.79500000  *
   463       H(HETATM  463  H5  HET A  51)   -0.60900000  *  -0.05500000  *   4.68600000  *
   464       C(HETATM  464  C5  HET A  51)   -0.60600000  *   0.28100000  *   5.55500000  *
   465       H(HETATM  465  H6  HET A  51)   -0.52700000  *   2.19200000  *   5.04300000  *
   466       C(HETATM  466  C6  HET A  51)   -0.55500000  *   1.59400000  *   5.75600000  *
   467       H(HETATM  467  H7  HET A  51)   -0.50200000  *   2.95500000  *   7.22900000  *
   468       C(HETATM  468  C7  HET A  51)   -0.54400000  *   2.03600000  *   7.08700000  *
   469       H(HETATM  469  H8  HET A  51)   -0.58100000  *   1.57600000  *   9.04800000  *
   470       C(HETATM  470  C8  HET A  51)   -0.58800000  *   1.24200000  *   8.17900000  *
   471       C(HETATM  471  C9  HET A  51)   -0.64400000  *  -0.11400000  *   7.89800000  *
   472       H(HETATM  472 1H3  HET A  51)   -0.69300000  *  -2.23000000  *   5.77100000  *
   473       N(HETATM  473  N3  HET A  51)   -0.66500000  *  -1.94400000  *   6.57900000  *
   474       H(HETATM  474 2H3  HET A  51)   -0.68900000  *  -1.42900000  *   6.47700000  *
   475       N(HETATM  475  N4  HET A  51)   -0.65300000  *  -0.58300000  *   6.61900000  *
   476       H(HETATM  476  H10 HET A  51)   -0.60900000  *  -3.09700000  *  10.72800000  *
   477       C(HETATM  477  C10 HET A  51)   -0.60600000  *  -3.43300000  *   9.85900000  *
   478       H(HETATM  478  H1  HET A  51)   -0.52700000  *  -5.34400000  *  10.37100000  *
   479       H(HETATM  479  H1  HET A  52)    1.09900000  * -10.18800000  *   5.58000000  *
   480       C(HETATM  480  C1  HET A  52)    1.06200000  * -10.27400000  *   6.50500000  *
   481       H(HETATM  481  H2  HET A  52)    1.04200000  *  -8.33400000  *   6.91200000  *
   482       C(HETATM  482  C2  HET A  52)    1.03000000  *  -9.17500000  *   7.30300000  *
   483       H(HETATM  483  H3  HET A  52)    0.93000000  *  -8.51000000  *   9.20500000  *
   484       C(HETATM  484  C3  HET A  52)    0.97900000  *  -9.27400000  *   8.67800000  *
   485       H(HETATM  485  H4  HET A  52)    0.99500000  * -10.57900000  *  10.16700000  *
   486       C(HETATM  486  C4  HET A  52)    1.00000000  * -10.50600000  *   9.24200000  *
   487       C(HETATM  487  C5  HET A  52)    1.02800000  * -11.64100000  *   8.49000000  *
   488       H(HETATM  488 1H1  HET A  52)    1.41400000  * -12.76500000  *   5.91000000  *
   489       N(HETATM  489  N1  HET A  52)    1.13200000  * -12.81000000  *   6.72100000  *
   490       H(HETATM  490 2H1  HET A  52)    1.03200000  * -12.19600000  *   6.59100000  *
   491       N(HETATM  491  N2  HET A  52)    1.04000000  * -11.49200000  *   7.08700000  *
   492       H(HETATM  492  H6  HET A  52)    1.09900000  * -15.52700000  *   9.83400000  *
   493       C(HETATM  493  C6  HET A  52)    1.06200000  * -15.44100000  *   8.90900000  *
   494       H(HETATM  494  H7  HET A  52)    1.04200000  * -17.38100000  *   8.50200000  *
   495       C(HETATM  495  C7  HET A  52)    1.03000000  * -16.54000000  *   8.11100000  *
   496       H(HETATM  496  H8  HET A  52)    0.93000000  * -17.20500000  *   6.20900000  *
   497       C(HETATM  497  C8  HET A  52)    0.97900000  * -16.44100000  *   6.73600000  *
   498       H(HETATM  498  H9  HET A  52)    0.99500000  * -15.13600000  *   5.24700000  *
   499       C(HETATM  499  C9  HET A  52)    1.00000000  * -15.20900000  *   6.17200000  *
   500       C(HETATM  500  C10 HET A  52)    1.02800000  * -14.07400000  *   6.92400000  *
   501       H(HETATM  501 1H3  HET A  52)    1.41400000  * -12.95000000  *   9.50400000  *
   502       N(HETATM  502  N3  HET A  52)    1.13200000  * -12.90500000  *   8.69300000  *
   503       H(HETATM  503 2H3  HET A  52)    1.03200000  * -13.51900000  *   8.82300000  *
   504       N(HETATM  504  N4  HET A  52)    1.04000000  * -14.22300000  *   8.32700000  *
   505       H(HETATM  505 1H1  HET A  53)    0.68900000  *  -1.42900000  *  -6.47700000  *
   506       N(HETATM  506  N1  HET A  53)    0.65300000  *  -0.58300000  *  -6.61900000  *
   507       H(HETATM  507 2H1  HET A  53)    0.60900000  *  -3.09700000  * -10.72800000  *
   508       C(HETATM  508  C1  HET A  53)    0.60600000  *  -3.43300000  *  -9.85900000  *
   509       H(HETATM  509  H2  HET A  53)    0.52700000  *  -5.34400000  * -10.37100000  *
   510       C(HETATM  510  C2  HET A  53)    0.55500000  *  -4.74600000  *  -9.65800000  *
   511       H(HETATM  511  H3  HET A  53)    0.50200000  *  -6.10700000  *  -8.18500000  *
   512       C(HETATM  512  C3  HET A  53)    0.54400000  *  -5.18800000  *  -8.32700000  *
   513       H(HETATM  513  H4  HET A  53)    0.58100000  *  -4.72800000  *  -6.36600000  *
   514       C(HETATM  514  C4  HET A  53)    0.58800000  *  -4.39400000  *  -7.23500000  *
   515       C(HETATM  515  C5  HET A  53)    0.64400000  *  -3.03800000  *  -7.51600000  *
   516       H(HETATM  516 1H2  HET A  53)    0.69300000  *  -0.92200000  *  -9.64300000  *
   517       N(HETATM  517  N2  HET A  53)    0.66500000  *  -1.20800000  *  -8.83500000  *
   518       H(HETATM  518 2H2  HET A  53)    0.68900000  *  -1.72300000  *  -8.93700000  *
   519       N(HETATM  519  N3  HET A  53)    0.65300000  *  -2.56900000  *  -8.79500000  *
   520       H(HETATM  520  H6  HET A  53)    0.60900000  *  -0.05500000  *  -4.68600000  *
   521       C(HETATM  521  C6  HET A  53)    0.60600000  *   0.28100000  *  -5.55500000  *
   522       H(HETATM  522  H7  HET A  53)    0.52700000  *   2.19200000  *  -5.04300000  *
   523       C(HETATM  523  C7  HET A  53)    0.55500000  *   1.59400000  *  -5.75600000  *
   524       H(HETATM  524  H8  HET A  53)    0.50200000  *   2.95500000  *  -7.22900000  *
   525       C(HETATM  525  C8  HET A  53)    0.54400000  *   2.03600000  *  -7.08700000  *
   526       H(HETATM  526  H9  HET A  53)    0.58100000  *   1.57600000  *  -9.04800000  *
   527       C(HETATM  527  C9  HET A  53)    0.58800000  *   1.24200000  *  -8.17900000  *
   528       C(HETATM  528  C10 HET A  53)    0.64400000  *  -0.11400000  *  -7.89800000  *
   529       H(HETATM  529 1H4  HET A  53)    0.69300000  *  -2.23000000  *  -5.77100000  *
   530       N(HETATM  530  N4  HET A  53)    0.66500000  *  -1.94400000  *  -6.57900000  *
   531       H(HETATM  531  H1  HET A  54)   -5.96500000  *   2.77200000  *  -9.20500000  *
   532       C(HETATM  532  C1  HET A  54)   -6.01300000  *   2.00700000  *  -8.67800000  *
   533       H(HETATM  533  H2  HET A  54)   -6.02900000  *   0.70300000  * -10.16700000  *
   534       C(HETATM  534  C2  HET A  54)   -6.03400000  *   0.77500000  *  -9.24200000  *
   535       C(HETATM  535  C3  HET A  54)   -6.06300000  *  -0.36000000  *  -8.49000000  *
   536       H(HETATM  536 1H1  HET A  54)   -6.44800000  *  -1.48300000  *  -5.91000000  *
   537       N(HETATM  537  N1  HET A  54)   -6.16600000  *  -1.52900000  *  -6.72100000  *
   538       H(HETATM  538 2H1  HET A  54)   -6.06700000  *  -0.91500000  *  -6.59100000  *
   539       N(HETATM  539  N2  HET A  54)   -6.07500000  *  -0.21100000  *  -7.08700000  *
   540       H(HETATM  540  H4  HET A  54)   -6.13300000  *  -4.24500000  *  -9.83400000  *
   541       C(HETATM  541  C4  HET A  54)   -6.09700000  *  -4.15900000  *  -8.90900000  *
   542       H(HETATM  542  H5  HET A  54)   -6.07700000  *  -6.10000000  *  -8.50200000  *
   543       C(HETATM  543  C5  HET A  54)   -6.06500000  *  -5.25800000  *  -8.11100000  *
   544       H(HETATM  544  H6  HET A  54)   -5.96500000  *  -5.92400000  *  -6.20900000  *
   545       C(HETATM  545  C6  HET A  54)   -6.01300000  *  -5.15900000  *  -6.73600000  *
   546       H(HETATM  546  H7  HET A  54)   -6.02900000  *  -3.85500000  *  -5.24700000  *
   547       C(HETATM  547  C7  HET A  54)   -6.03400000  *  -3.92700000  *  -6.17200000  *
   548       C(HETATM  548  C8  HET A  54)   -6.06300000  *  -2.79200000  *  -6.92400000  *
   549       H(HETATM  549 1H3  HET A  54)   -6.44800000  *  -1.66900000  *  -9.50400000  *
   550       N(HETATM  550  N3  HET A  54)   -6.16600000  *  -1.62300000  *  -8.69300000  *
   551       H(HETATM  551 2H3  HET A  54)   -6.06700000  *  -2.23700000  *  -8.82300000  *
   552       N(HETATM  552  N4  HET A  54)   -6.07500000  *  -2.94100000  *  -8.32700000  *
   553       H(HETATM  553  H9  HET A  54)   -6.13300000  *   1.09300000  *  -5.58000000  *
   554       C(HETATM  554  C9  HET A  54)   -6.09700000  *   1.00700000  *  -6.50500000  *
   555       H(HETATM  555  H10 HET A  54)   -6.07700000  *   2.94800000  *  -6.91200000  *
   556       C(HETATM  556  C10 HET A  54)   -6.06500000  *   2.10600000  *  -7.30300000  *
   557       O(HETATM  557  O1  O-O A  55)   -2.53700000  *   3.34300000  * -18.54900000  *
   558       O(HETATM  558  O2  O-O A  55)   -1.68200000  *   2.42400000  * -19.19000000  *
   559       O(HETATM  559  O1  O-O A  56)    1.68200000  *  -5.57600000  *  -3.77600000  *
   560       O(HETATM  560  O2  O-O A  56)    2.53700000  *  -6.49500000  *  -3.13500000  *
   561       O(HETATM  561  O1  O-O A  57)   -3.35300000  *  -8.85700000  * -11.63800000  *
   562       O(HETATM  562  O2  O-O A  57)   -2.49700000  *  -7.93900000  * -12.27900000  *
   563       O(HETATM  563  O1  O-O A  58)    3.35300000  *   5.70500000  *   3.77600000  *
   564       O(HETATM  564  O2  O-O A  58)    2.49700000  *   4.78700000  *   3.13500000  *
   565       O(HETATM  565  O1  O-O A  59)   -1.68200000  *  -5.57600000  *   3.77600000  *
   566       O(HETATM  566  O2  O-O A  59)   -2.53700000  *  -6.49500000  *   3.13500000  *
   567       O(HETATM  567  O   HOH A  60)    2.36600000  *  -7.53300000  * -16.65900000  *
   568       O(HETATM  568  O   HOH A  61)   -2.36600000  *   4.38100000  *  -1.24500000  *
   569       O(HETATM  569  O1  O-O A  62)    1.68200000  *   2.42400000  * -11.63800000  *
   570       O(HETATM  570  O2  O-O A  62)    2.53700000  *   3.34300000  * -12.27900000  *
   571       O(HETATM  571  O1  O-O A  63)   -2.49700000  *   4.78700000  *  -3.13500000  *
   572       O(HETATM  572  O2  O-O A  63)   -3.35300000  *   5.70500000  *  -3.77600000  *
   573       O(HETATM  573  O1  O-O A  64)    3.35300000  *  -8.85700000  * -19.19000000  *
   574       O(HETATM  574  O2  O-O A  64)    2.49700000  *  -7.93900000  * -18.54900000  *
   575       O(HETATM  575  O   HOH A  65)   -5.03400000  *  -7.37200000  * -15.41400000  *
   576       O(HETATM  576  O   HOH A  66)    0.00000000  *  -7.06100000  *   0.00000000  *
   577       O(HETATM  577  O   HOH A  67)    0.00000000  *   3.90900000  * -15.41400000  *
   578       O(HETATM  578  O   HOH A  68)    0.72800000  *  -2.84600000  *  -4.06300000  *
   579       O(HETATM  579  O   HOH A  69)   -0.72800000  *  -0.30600000  * -19.47700000  *
   580       O(HETATM  580  O   HOH A  70)   -5.03400000  *   4.22000000  *   0.00000000  *
   581       N(HETATM  581  N1  HET A  71)   -4.38100000  * -11.86500000  *  -6.61900000  *
   582       H(HETATM  582 1H1  HET A  71)   -4.42500000  * -14.37800000  * -10.72800000  *
   583       C(HETATM  583  C1  HET A  71)   -4.42800000  * -14.71400000  *  -9.85900000  *
   584       H(HETATM  584  H2  HET A  71)   -4.50800000  * -16.62600000  * -10.37100000  *
   585       C(HETATM  585  C2  HET A  71)   -4.48000000  * -16.02800000  *  -9.65800000  *
   586       H(HETATM  586  H3  HET A  71)   -4.53200000  * -17.38800000  *  -8.18500000  *
   587       C(HETATM  587  C3  HET A  71)   -4.49100000  * -16.47000000  *  -8.32700000  *
   588       H(HETATM  588  H4  HET A  71)   -4.45400000  * -16.01000000  *  -6.36600000  *
   589       C(HETATM  589  C4  HET A  71)   -4.44600000  * -15.67600000  *  -7.23500000  *
   590       C(HETATM  590  C5  HET A  71)   -4.39000000  * -14.32000000  *  -7.51600000  *
   591       H(HETATM  591 1H2  HET A  71)   -4.34200000  * -12.20300000  *  -9.64300000  *
   592       N(HETATM  592  N2  HET A  71)   -4.37000000  * -12.49000000  *  -8.83500000  *
   593       H(HETATM  593 2H2  HET A  71)   -4.34600000  * -13.00400000  *  -8.93700000  *
   594       N(HETATM  594  N3  HET A  71)   -4.38100000  * -13.85000000  *  -8.79500000  *
   595       H(HETATM  595  H6  HET A  71)   -4.42500000  * -11.33700000  *  -4.68600000  *
   596       C(HETATM  596  C6  HET A  71)   -4.42800000  * -11.00100000  *  -5.55500000  *
   597       H(HETATM  597  H7  HET A  71)   -4.50800000  *  -9.08900000  *  -5.04300000  *
   598       C(HETATM  598  C7  HET A  71)   -4.48000000  *  -9.68700000  *  -5.75600000  *
   599       H(HETATM  599  H8  HET A  71)   -4.53200000  *  -8.32700000  *  -7.22900000  *
   600       C(HETATM  600  C8  HET A  71)   -4.49100000  *  -9.24500000  *  -7.08700000  *
   601       H(HETATM  601  H9  HET A  71)   -4.45400000  *  -9.70500000  *  -9.04800000  *
   602       C(HETATM  602  C9  HET A  71)   -4.44600000  * -10.03900000  *  -8.17900000  *
   603       C(HETATM  603  C10 HET A  71)   -4.39000000  * -11.39500000  *  -7.89800000  *
   604       H(HETATM  604 1H4  HET A  71)   -4.34200000  * -13.51200000  *  -5.77100000  *
   605       N(HETATM  605  N4  HET A  71)   -4.37000000  * -13.22500000  *  -6.57900000  *
   606       H(HETATM  606 2H1  HET A  71)   -4.34600000  * -12.71100000  *  -6.47700000  *
   607       O(HETATM  607  O   HOH A  72)    2.66800000  *  -6.90100000  *  -1.24500000  *
   608       O(HETATM  608  O   HOH A  73)    2.66800000  *   3.74900000  * -14.16900000  *
   609       O(HETATM  609  O   HOH A  74)   -2.66800000  *  -6.90100000  *   1.24500000  *
   610       O(HETATM  610  O   HOH A  75)   -5.76200000  * -14.12800000  *   4.06300000  *
   611       O(HETATM  611  O   HOH A  76)   -2.36600000  *  -7.53300000  * -14.16900000  *
   612       O(HETATM  612  O   HOH A  77)    2.36600000  *   4.38100000  *   1.24500000  *
   613       O(HETATM  613  O   HOH A  78)   -2.66800000  *   3.74900000  * -16.65900000  *
   614       O(HETATM  614  O   HOH A  79)   -5.76200000  * -11.58700000  * -19.47700000  *
   615       O(HETATM  615  O   HOH A  80)   -0.72800000  *  -2.84600000  *   4.06300000  *
   616       O(HETATM  616  O   HOH A  81)    0.72800000  *  -0.30600000  * -11.35100000  *
   617       O(HETATM  617  O   HOH A  82)   -4.30700000  * -11.58700000  * -11.35100000  *
   618       O(HETATM  618  O   HOH A  83)   -4.30700000  * -14.12800000  *  -4.06300000  *
   619       N(HETATM  619  N1  HET A  84)   -5.68800000  * -11.86500000  *   6.61900000  *
   620       H(HETATM  620 1H1  HET A  84)   -5.64400000  * -14.37800000  *  10.72800000  *
   621       C(HETATM  621  C1  HET A  84)   -5.64100000  * -14.71400000  *   9.85900000  *
   622       H(HETATM  622  H2  HET A  84)   -5.56100000  * -16.62600000  *  10.37100000  *
   623       C(HETATM  623  C2  HET A  84)   -5.58900000  * -16.02800000  *   9.65800000  *
   624       H(HETATM  624  H3  HET A  84)   -5.53700000  * -17.38800000  *   8.18500000  *
   625       C(HETATM  625  C3  HET A  84)   -5.57800000  * -16.47000000  *   8.32700000  *
   626       H(HETATM  626  H4  HET A  84)   -5.61500000  * -16.01000000  *   6.36600000  *
   627       C(HETATM  627  C4  HET A  84)   -5.62300000  * -15.67600000  *   7.23500000  *
   628       C(HETATM  628  C5  HET A  84)   -5.67900000  * -14.32000000  *   7.51600000  *
   629       H(HETATM  629 1H2  HET A  84)   -5.72700000  * -12.20300000  *   9.64300000  *
   630       N(HETATM  630  N2  HET A  84)   -5.69900000  * -12.49000000  *   8.83500000  *
   631       H(HETATM  631 2H2  HET A  84)   -5.72300000  * -13.00400000  *   8.93700000  *
   632       N(HETATM  632  N3  HET A  84)   -5.68800000  * -13.85000000  *   8.79500000  *
   633       H(HETATM  633  H6  HET A  84)   -5.64400000  * -11.33700000  *   4.68600000  *
   634       C(HETATM  634  C6  HET A  84)   -5.64100000  * -11.00100000  *   5.55500000  *
   635       H(HETATM  635  H7  HET A  84)   -5.56100000  *  -9.08900000  *   5.04300000  *
   636       C(HETATM  636  C7  HET A  84)   -5.58900000  *  -9.68700000  *   5.75600000  *
   637       H(HETATM  637  H8  HET A  84)   -5.53700000  *  -8.32700000  *   7.22900000  *
   638       C(HETATM  638  C8  HET A  84)   -5.57800000  *  -9.24500000  *   7.08700000  *
   639       H(HETATM  639  H9  HET A  84)   -5.61500000  *  -9.70500000  *   9.04800000  *
   640       C(HETATM  640  C9  HET A  84)   -5.62300000  * -10.03900000  *   8.17900000  *
   641       C(HETATM  641  C10 HET A  84)   -5.67900000  * -11.39500000  *   7.89800000  *
   642       H(HETATM  642 1H4  HET A  84)   -5.72700000  * -13.51200000  *   5.77100000  *
   643       N(HETATM  643  N4  HET A  84)   -5.69900000  * -13.22500000  *   6.57900000  *
   644       H(HETATM  644 2H1  HET A  84)   -5.72300000  * -12.71100000  *   6.47700000  *
   645      Tv                                0.00000000  *   0.00000000     30.82800000   
   646      Tv                                0.00000000  *  22.56300000      0.00000000   
   647      Tv                               10.06900000  *   0.00000000      0.00000000   
 

                   THE SYSTEM IS A SOLID


                UNIT CELL TRANSLATION VECTORS

              X              Y              Z
    T1 =   0.0000000      0.0000000     30.8280000
    T2 =   0.0000000     22.5630000      0.0000000
    T3 =  10.0690000      0.0000000      0.0000000

 General Reference for PM7:
 "Optimization of Parameters for Semiempirical Methods VI: More Modifications to the 
 NDDO Approximations and Re-optimization of Parameters", J. J. P. Stewart, J. Mol. Mod., 1:32, 19 (2013)
 http://www.springerlink.com/openurl.asp?genre=article&id=doi:10.1007/s00894-012-1667-x

           Empirical Formula: C160 H208 N72 O172 Mg8 P24  =   644 atoms



      RHF CALCULATION, NO. OF DOUBLY OCCUPIED LEVELS = 1188

 GEOMETRY OF SYSTEM SUPPLIED
*REMARK   3    MG = Isolated element                               res:     1
*REMARK   3    MG = Isolated element                               res:     8
*REMARK   3    MG = Isolated element                               res:    15
*REMARK   3    MG = Isolated element                               res:    22
*REMARK   3   HET = Not identified; C 10 N 4                       res:    29
*REMARK   3   ATP = Adenosine-5'-triphosphate                      res:    30
*REMARK   3    MG = Isolated element                               res:    31
*REMARK   3   ATP = Adenosine-5'-triphosphate                      res:    37
*REMARK   3   ATP = Adenosine-5'-triphosphate                      res:    38
*REMARK   3    MG = Isolated element                               res:    39
*REMARK   3   ATP = Adenosine-5'-triphosphate                      res:    40
*REMARK   3   ATP = Adenosine-5'-triphosphate                      res:    41
*REMARK   3    MG = Isolated element                               res:    42
*REMARK   3   ATP = Adenosine-5'-triphosphate                      res:    43
*REMARK   3   ATP = Adenosine-5'-triphosphate                      res:    44
*REMARK   3    MG = Isolated element                               res:    45
*REMARK   3   O-O = Hydrogen peroxide?                             res:    46
*REMARK   3   O-O = Hydrogen peroxide?                             res:    47
*REMARK   3   O-O = Hydrogen peroxide?                             res:    48
*REMARK   3   O-O = Hydrogen peroxide?                             res:    49
*REMARK   3   HET = Not identified; C 10 N 4                       res:    50
*REMARK   3   HET = Not identified; C 10 N 4                       res:    51
*REMARK   3   HET = Not identified; C 10 N 4                       res:    52
*REMARK   3   HET = Not identified; C 10 N 4                       res:    53
*REMARK   3   HET = Not identified; C 10 N 4                       res:    54
*REMARK   3   O-O = Hydrogen peroxide?                             res:    55
*REMARK   3   O-O = Hydrogen peroxide?                             res:    56
*REMARK   3   O-O = Hydrogen peroxide?                             res:    57
*REMARK   3   O-O = Hydrogen peroxide?                             res:    58
*REMARK   3   O-O = Hydrogen peroxide?                             res:    59
*REMARK   3   O-O = Hydrogen peroxide?                             res:    62
*REMARK   3   O-O = Hydrogen peroxide?                             res:    63
*REMARK   3   O-O = Hydrogen peroxide?                             res:    64
*REMARK   3   HET = Not identified; C 10 N 4                       res:    71
*REMARK   3   HET = Not identified; C 10 N 4                       res:    84
 START_RES=(1A)  CHAINS=(A)  MERS=(1,1,1)  0SCF HTML
 EMETAS, from CSD, unedited except for the addition of Tv (these do not show up in the graphics)
 Run "Specific Script" to show two ATP molecules complexed with Mg, a bis(2-(2-pyridyl)pyridinium), and two water oxygen atoms
 Mg(HETATM    1 MG    MG A   1)   0.00000000 +0   0.00000000 +0   0.00000000 +0
  O(HETATM    2  O   HOH A   2)  -0.73100000 +1   0.06400000 +0  -1.96300000 +0
  O(HETATM    3  O   HOH A   3)   1.54700000 +1   1.35500000 +1  -0.43300000 +0
  O(HETATM    4  O   HOH A   4)   1.28800000 +1  -1.56700000 +1  -0.64000000 +1
  O(HETATM    5  O   HOH A   5)   0.73100000 +1   0.06400000 +1   1.96300000 +1
  O(HETATM    6  O   HOH A   6)  -1.54700000 +1   1.35500000 +1   0.43300000 +1
  O(HETATM    7  O   HOH A   7)  -1.28800000 +1  -1.56700000 +1   0.64000000 +1
 Mg(HETATM    8 MG    MG A   8)   0.00000000 +1  -3.15200000 +1 -15.41400000 +1
  O(HETATM    9  O   HOH A   9)   0.73100000 +1  -3.21600000 +1 -17.37700000 +1
  O(HETATM   10  O   HOH A  10)  -1.54700000 +1  -4.50700000 +1 -15.84700000 +1
  O(HETATM   11  O   HOH A  11)  -1.28800000 +1  -1.58500000 +1 -16.05400000 +1
  O(HETATM   12  O   HOH A  12)  -0.73100000 +1  -3.21600000 +1 -13.45100000 +1
  O(HETATM   13  O   HOH A  13)   1.54700000 +1  -4.50700000 +1 -14.98100000 +1
  O(HETATM   14  O   HOH A  14)   1.28800000 +1  -1.58500000 +1 -14.77400000 +1
 Mg(HETATM   15 MG    MG A  15)  -5.03400000 +1 -11.28200000 +1   0.00000000 +1
  O(HETATM   16  O   HOH A  16)  -5.76600000 +1 -11.21700000 +1  -1.96300000 +1
  O(HETATM   17  O   HOH A  17)  -3.48800000 +1  -9.92700000 +1  -0.43300000 +1
  O(HETATM   18  O   HOH A  18)  -3.74700000 +1 -12.84800000 +1  -0.64000000 +1
  O(HETATM   19  O   HOH A  19)  -4.30300000 +1 -11.21700000 +1   1.96300000 +1
  O(HETATM   20  O   HOH A  20)  -6.58100000 +1  -9.92700000 +1   0.43300000 +1
  O(HETATM   21  O   HOH A  21)  -6.32200000 +1 -12.84800000 +1   0.64000000 +1
 Mg(HETATM   22 MG    MG A  22)  -5.03400000 +1 -14.43300000 +1 -15.41400000 +1
  O(HETATM   23  O   HOH A  23)  -4.30300000 +1 -14.49800000 +1 -17.37700000 +1
  O(HETATM   24  O   HOH A  24)  -6.58100000 +1 -15.78800000 +1 -15.84700000 +1
  O(HETATM   25  O   HOH A  25)  -6.32200000 +1 -12.86700000 +1 -16.05400000 +1
  O(HETATM   26  O   HOH A  26)  -5.76600000 +1 -14.49800000 +1 -13.45100000 +1
  O(HETATM   27  O   HOH A  27)  -3.48800000 +1 -15.78800000 +1 -14.98100000 +1
  O(HETATM   28  O   HOH A  28)  -3.74700000 +1 -12.86700000 +1 -14.77400000 +1
  N(HETATM   29  N1  HET A  29)  -3.99400000 +1  -2.94100000 +1   8.32700000 +1
  H(HETATM   30  H1  HET A  29)  -4.00200000 +1  -2.23700000 +1   8.82300000 +1
  N(HETATM   31  N2  HET A  29)  -3.90300000 +1  -1.62300000 +1   8.69300000 +1
  H(HETATM   32 1H2  HET A  29)  -3.62100000 +1  -1.66900000 +1   9.50400000 +1
  C(HETATM   33  C1  HET A  29)  -4.00600000 +1  -2.79200000 +1   6.92400000 +1
  C(HETATM   34  C2  HET A  29)  -4.03500000 +1  -3.92700000 +1   6.17200000 +1
  H(HETATM   35  H2  HET A  29)  -4.04000000 +1  -3.85500000 +1   5.24700000 +1
  C(HETATM   36  C3  HET A  29)  -4.05600000 +1  -5.15900000 +1   6.73600000 +1
  H(HETATM   37 1H3  HET A  29)  -4.10400000 +1  -5.92400000 +1   6.20900000 +1
  C(HETATM   38  C4  HET A  29)  -4.00400000 +1  -5.25800000 +1   8.11100000 +1
  H(HETATM   39  H4  HET A  29)  -3.99200000 +1  -6.10000000 +1   8.50200000 +1
  C(HETATM   40  C5  HET A  29)  -3.97200000 +1  -4.15900000 +1   8.90900000 +1
  H(HETATM   41  H5  HET A  29)  -3.93600000 +1  -4.24500000 +1   9.83400000 +1
  N(HETATM   42  N3  HET A  29)  -3.99400000 +1  -0.21100000 +1   7.08700000 +1
  H(HETATM   43 2H3  HET A  29)  -4.00200000 +1  -0.91500000 +1   6.59100000 +1
  N(HETATM   44  N4  HET A  29)  -3.90300000 +1  -1.52900000 +1   6.72100000 +1
  H(HETATM   45 1H4  HET A  29)  -3.62100000 +1  -1.48300000 +1   5.91000000 +1
  C(HETATM   46  C6  HET A  29)  -4.00600000 +1  -0.36000000 +1   8.49000000 +1
  C(HETATM   47  C7  HET A  29)  -4.03500000 +1   0.77500000 +1   9.24200000 +1
  H(HETATM   48  H7  HET A  29)  -4.04000000 +1   0.70300000 +1  10.16700000 +1
  C(HETATM   49  C8  HET A  29)  -4.05600000 +1   2.00700000 +1   8.67800000 +1
  H(HETATM   50  H8  HET A  29)  -4.10400000 +1   2.77200000 +1   9.20500000 +1
  C(HETATM   51  C9  HET A  29)  -4.00400000 +1   2.10600000 +1   7.30300000 +1
  H(HETATM   52  H9  HET A  29)  -3.99200000 +1   2.94800000 +1   6.91200000 +1
  C(HETATM   53  C10 HET A  29)  -3.97200000 +1   1.00700000 +1   6.50500000 +1
  H(HETATM   54  H10 HET A  29)  -3.93600000 +1   1.09300000 +1   5.58000000 +1
  H(HETATM   55 1H3  ATP A  30)  -2.79400000 +1 -17.96400000 +1   1.84700000 +1
  C(HETATM   56  C1  ATP A  30)  -1.04600000 +1 -17.71500000 +1   2.95100000 +1
  H(HETATM   57  H1  ATP A  30)  -0.39200000 +1 -18.39200000 +1   2.68200000 +1
  C(HETATM   58  C2  ATP A  30)  -0.72200000 +1 -16.41300000 +1   2.23200000 +1
  H(HETATM   59 1H2  ATP A  30)   0.15500000 +1 -16.09300000 +1   2.49700000 +1
  H(HETATM   60 2H2  ATP A  30)  -0.71800000 +1 -16.55600000 +1   1.27000000 +1
 Mg(HETATM   61 MG    MG A  31)   0.00000000 +1 -12.19200000 +1   0.00000000 +1
  P(HETATM   62  P   PO4 A  32)   1.59700000 +1 -13.89700000 +1  -2.30500000 +1
  P(HETATM   63  P   PO4 A  33)  -0.75000000 +1 -12.30800000 +1  -3.04400000 +1
  P(HETATM   64  P   PO4 A  34)   0.88000000 +1  -9.98800000 +1  -2.26100000 +1
  O(HETATM   65  O1  PO4 A  32)   2.80900000 +1 -13.27800000 +1  -2.91700000 +1
  O(HETATM   66  O2  PO4 A  32)   1.24800000 +1 -13.64400000 +1  -0.89200000 +1
  C(HETATM   67  C3  ATP A  30)  -2.43900000 +1 -18.26400000 +1   2.70900000 +1
  H(HETATM   68  H4  ATP A  30)  -3.55300000 +1 -16.77200000 +1   3.67500000 +1
  C(HETATM   69  C4  ATP A  30)  -3.26600000 +1 -17.68400000 +1   3.89200000 +1
  H(HETATM   70 1H5  ATP A  30)  -2.23700000 +1 -18.48700000 +1   5.47500000 +1
  C(HETATM   71  C5  ATP A  30)  -2.21300000 +1 -17.63600000 +1   4.99000000 +1
  H(HETATM   72  H6  ATP A  30)  -2.60700000 +1 -14.87700000 +1   4.82100000 +1
  C(HETATM   73  C6  ATP A  30)  -2.51600000 +1 -15.20600000 +1   5.68700000 +1
  C(HETATM   74  C7  ATP A  30)  -2.28500000 +1 -15.15200000 +1   9.18000000 +1
  C(HETATM   75  C8  ATP A  30)  -2.35300000 +1 -15.33300000 +1   7.80300000 +1
  C(HETATM   76  C9  ATP A  30)  -2.28100000 +1 -16.62300000 +1   7.32900000 +1
  H(HETATM   77  H10 ATP A  30)  -1.98400000 +1 -18.23400000 +1   9.91700000 +1
  C(HETATM   78  C10 ATP A  30)  -2.09300000 +1 -17.50800000 +1   9.34700000 +1
  N(HETATM   79  N1  ATP A  30)  -2.39000000 +1 -16.53800000 +1   5.96600000 +1
  C(HETATM   80  C1  UNK A  35)   2.28100000 +1 -16.62300000 +1  -7.32900000 +1
  H(HETATM   81 1H2  UNK A  35)   1.98400000 +1 -18.23400000 +1  -9.91700000 +1
  C(HETATM   82  C2  UNK A  35)   2.09300000 +1 -17.50800000 +1  -9.34700000 +1
  N(HETATM   83  N1  UNK A  35)   2.39000000 +1 -16.53800000 +1  -5.96600000 +1
  N(HETATM   84  N2  UNK A  35)   2.49700000 +1 -14.43900000 +1  -6.75000000 +1
  H(HETATM   85 1H31 UNK A  35)   2.39900000 +1 -13.24600000 +1  -9.29200000 +1
  H(HETATM   86 2H31 UNK A  35)   2.30100000 +1 -13.89800000 +1 -10.62600000 +1
  N(HETATM   87  N3  UNK A  35)   2.33400000 +1 -13.95600000 +1  -9.76800000 +1
  N(HETATM   88  N4  UNK A  35)   2.14800000 +1 -17.76700000 +1  -8.06300000 +1
  H(HETATM   89 1H5  UNK A  35)   2.17300000 +1 -16.20600000 +1 -10.79000000 +1
  N(HETATM   90  N5  UNK A  35)   2.18200000 +1 -16.27200000 +1  -9.93200000 +1
  O(HETATM   91  O3  PO4 A  32)   1.73300000 +1 -15.44500000 +1  -2.58600000 +1
  H(HETATM   92  H1  UNK A  35)   3.11700000 +1 -19.99900000 +1  -2.64200000 +1
  O(HETATM   93  O1  UNK A  35)   2.37200000 +1 -19.68400000 +1  -2.77500000 +1
  H(HETATM   94 2H2  UNK A  35)   4.95000000 +1 -18.44600000 +1  -3.74900000 +1
  O(HETATM   95  O2  UNK A  35)   4.37900000 +1 -18.43300000 +1  -4.33600000 +1
  O(HETATM   96  O3  UNK A  35)   0.93500000 +1 -17.50800000 +1  -4.37900000 +1
  O(HETATM   97  O1  PO4 A  34)  -0.03200000 +1  -8.80800000 +1  -2.22400000 +1
  O(HETATM   98  O2  PO4 A  34)   1.11600000 +1 -10.70900000 +1  -0.96900000 +1
  H(HETATM   99  H3  PO4 A  34)   2.62200000 +1 -10.36000000 +1  -3.11700000 +1
  O(HETATM  100  O3  PO4 A  34)   2.21900000 +1  -9.66300000 +1  -2.96000000 +1
  O(HETATM  101  O4  PO4 A  34)   0.17300000 +1 -11.03200000 +1  -3.31300000 +1
  O(HETATM  102  O1  PO4 A  33)  -1.23900000 +1 -12.28000000 +1  -1.63500000 +1
  O(HETATM  103  O2  PO4 A  33)  -1.74500000 +1 -12.44600000 +1  -4.13800000 +1
  O(HETATM  104  O3  PO4 A  33)   0.30100000 +1 -13.53000000 +1  -3.21000000 +1
  H(HETATM  105 1H32 UNK A  35)   0.71800000 +1 -16.55600000 +1  -1.27000000 +1
  H(HETATM  106 2H32 UNK A  35)  -0.15500000 +1 -16.09300000 +1  -2.49700000 +1
  C(HETATM  107  C3  UNK A  35)   0.72200000 +1 -16.41300000 +1  -2.23200000 +1
  H(HETATM  108  H4  UNK A  35)   0.39200000 +1 -18.39200000 +1  -2.68200000 +1
  C(HETATM  109  C4  UNK A  35)   1.04600000 +1 -17.71500000 +1  -2.95100000 +1
  H(HETATM  110 2H5  UNK A  35)   2.79400000 +1 -17.96400000 +1  -1.84700000 +1
  C(HETATM  111  C5  UNK A  35)   2.43900000 +1 -18.26400000 +1  -2.70900000 +1
  H(HETATM  112  H6  UNK A  35)   3.55300000 +1 -16.77200000 +1  -3.67500000 +1
  C(HETATM  113  C6  UNK A  35)   3.26600000 +1 -17.68400000 +1  -3.89200000 +1
  H(HETATM  114  H7  UNK A  35)   2.23700000 +1 -18.48700000 +1  -5.47500000 +1
  C(HETATM  115  C7  UNK A  35)   2.21300000 +1 -17.63600000 +1  -4.99000000 +1
  H(HETATM  116  H8  UNK A  35)   2.60700000 +1 -14.87700000 +1  -4.82100000 +1
  C(HETATM  117  C8  UNK A  35)   2.51600000 +1 -15.20600000 +1  -5.68700000 +1
  C(HETATM  118  C9  UNK A  35)   2.28500000 +1 -15.15200000 +1  -9.18000000 +1
  C(HETATM  119  C10 UNK A  35)   2.35300000 +1 -15.33300000 +1  -7.80300000 +1
  N(HETATM  120  N2  ATP A  30)  -2.49700000 +1 -14.43900000 +1   6.75000000 +1
  H(HETATM  121 1H3  ATP A  30)  -2.39900000 +1 -13.24600000 +1   9.29200000 +1
  H(HETATM  122 2H31 ATP A  30)  -2.30100000 +1 -13.89800000 +1  10.62600000 +1
  N(HETATM  123  N3  ATP A  30)  -2.33400000 +1 -13.95600000 +1   9.76800000 +1
  N(HETATM  124  N4  ATP A  30)  -2.14800000 +1 -17.76700000 +1   8.06300000 +1
  H(HETATM  125 2H5  ATP A  30)  -2.17300000 +1 -16.20600000 +1  10.79000000 +1
  N(HETATM  126  N5  ATP A  30)  -2.18200000 +1 -16.27200000 +1   9.93200000 +1
  O(HETATM  127  O1  ATP A  30)  -1.73300000 +1 -15.44500000 +1   2.58600000 +1
  H(HETATM  128  H2  ATP A  30)  -3.11700000 +1 -19.99900000 +1   2.64200000 +1
  O(HETATM  129  O2  ATP A  30)  -2.37200000 +1 -19.68400000 +1   2.77500000 +1
  H(HETATM  130 2H32 ATP A  30)  -4.95000000 +1 -18.44600000 +1   3.74900000 +1
  O(HETATM  131  O3  ATP A  30)  -4.37900000 +1 -18.43300000 +1   4.33600000 +1
  O(HETATM  132  O4  ATP A  30)  -0.93500000 +1 -17.50800000 +1   4.37900000 +1
  O(HETATM  133  O5  ATP A  30)   0.03200000 +1  -8.80800000 +1   2.22400000 +1
  O(HETATM  134  O6  ATP A  30)  -1.11600000 +1 -10.70900000 +1   0.96900000 +1
  H(HETATM  135  H7  ATP A  30)  -2.62200000 +1 -10.36000000 +1   3.11700000 +1
  O(HETATM  136  O7  ATP A  30)  -2.21900000 +1  -9.66300000 +1   2.96000000 +1
  O(HETATM  137  O8  ATP A  30)  -0.17300000 +1 -11.03200000 +1   3.31300000 +1
  O(HETATM  138  O9  ATP A  30)   1.23900000 +1 -12.28000000 +1   1.63500000 +1
  O(HETATM  139  O10 ATP A  30)   1.74500000 +1 -12.44600000 +1   4.13800000 +1
  O(HETATM  140  O11 ATP A  30)  -0.30100000 +1 -13.53000000 +1   3.21000000 +1
  O(HETATM  141  O12 ATP A  30)  -1.24800000 +1 -13.64400000 +1   0.89200000 +1
  O(HETATM  142  O13 ATP A  30)  -2.80900000 +1 -13.27800000 +1   2.91700000 +1
  P(HETATM  143  P1  ATP A  30)  -0.88000000 +1  -9.98800000 +1   2.26100000 +1
  P(HETATM  144  P2  ATP A  30)   0.75000000 +1 -12.30800000 +1   3.04400000 +1
  P(HETATM  145  P3  ATP A  30)  -1.59700000 +1 -13.89700000 +1   2.30500000 +1
  C(HETATM  146  C1  ATP A  37)  -2.75400000 +1   2.19000000 +1  -8.08500000 +1
  H(HETATM  147 1H2  ATP A  37)  -3.05100000 +1   3.80100000 +1  -5.49700000 +1
  C(HETATM  148  C2  ATP A  37)  -2.94100000 +1   3.07400000 +1  -6.06700000 +1
  N(HETATM  149  N1  ATP A  37)  -2.64400000 +1   2.10400000 +1  -9.44800000 +1
  N(HETATM  150  N2  ATP A  37)  -2.53700000 +1   0.00600000 +1  -8.66400000 +1
  H(HETATM  151 1H31 ATP A  37)  -2.63500000 +1  -1.18800000 +1  -6.12200000 +1
  H(HETATM  152 2H31 ATP A  37)  -2.73400000 +1  -0.53600000 +1  -4.78800000 +1
  N(HETATM  153  N3  ATP A  37)  -2.70100000 +1  -0.47700000 +1  -5.64600000 +1
  N(HETATM  154  N4  ATP A  37)  -2.88700000 +1   3.33400000 +1  -7.35100000 +1
  H(HETATM  155 1H5  ATP A  37)  -2.86200000 +1   1.77200000 +1  -4.62400000 +1
  N(HETATM  156  N5  ATP A  37)  -2.85300000 +1   1.83800000 +1  -5.48200000 +1
  O(HETATM  157  O1  ATP A  37)  -3.30200000 +1   1.01100000 +1 -12.82800000 +1
  H(HETATM  158 2H2  ATP A  37)  -1.91700000 +1   5.56500000 +1 -12.77200000 +1
  O(HETATM  159  O2  ATP A  37)  -2.66200000 +1   5.25100000 +1 -12.63900000 +1
  H(HETATM  160  H3  ATP A  37)  -0.08500000 +1   4.01300000 +1 -11.66500000 +1
  O(HETATM  161  O3  ATP A  37)  -0.65500000 +1   3.99900000 +1 -11.07800000 +1
  O(HETATM  162  O4  ATP A  37)  -4.09900000 +1   3.07400000 +1 -11.03500000 +1
  O(HETATM  163  O5  ATP A  37)  -5.06700000 +1  -5.62600000 +1 -13.19000000 +1
  O(HETATM  164  O6  ATP A  37)  -3.91900000 +1  -3.72400000 +1 -14.44500000 +1
  H(HETATM  165 1H7  ATP A  37)  -2.41300000 +1  -4.07400000 +1 -12.29700000 +1
  O(HETATM  166  O7  ATP A  37)  -2.81500000 +1  -4.77000000 +1 -12.45400000 +1
  O(HETATM  167  O8  ATP A  37)  -4.86100000 +1  -3.40200000 +1 -12.10100000 +1
  O(HETATM  168  O9  ATP A  37)  -6.27400000 +1  -2.15400000 +1 -13.77900000 +1
  O(HETATM  169  O10 ATP A  37)  -6.77900000 +1  -1.98800000 +1 -11.27600000 +1
  O(HETATM  170  O11 ATP A  37)  -4.73300000 +1  -0.90400000 +1 -12.20400000 +1
  O(HETATM  171  O1  ATP A  38)  -5.20800000 +1  -3.40200000 +1 -18.72700000 +1
  O(HETATM  172  O2  ATP A  38)  -3.79500000 +1  -2.15400000 +1 -17.04900000 +1
[...]
  H(HETATM  404 2H2  ATP A  44)  -0.39200000 +1  -7.32300000 +1 -18.09600000 +1
  C(HETATM  405  C2  ATP A  44)  -1.04600000 +1  -8.00000000 +1 -18.36500000 +1
  H(HETATM  406  H3  ATP A  44)  -2.79400000 +1  -7.75100000 +1 -17.26100000 +1
  C(HETATM  407  C3  ATP A  44)  -2.43900000 +1  -7.45100000 +1 -18.12300000 +1
  H(HETATM  408  H4  ATP A  44)  -3.55300000 +1  -8.94300000 +1 -19.08900000 +1
  C(HETATM  409  C4  ATP A  44)  -3.26600000 +1  -8.03100000 +1 -19.30600000 +1
  H(HETATM  410 2H5  ATP A  44)  -2.23700000 +1  -7.22800000 +1 -20.88900000 +1
  C(HETATM  411  C5  ATP A  44)  -2.21300000 +1  -8.07900000 +1 -20.40400000 +1
  H(HETATM  412  H6  ATP A  44)  -2.60700000 +1 -10.83800000 +1 -20.23500000 +1
  C(HETATM  413  C6  ATP A  44)  -2.51600000 +1 -10.50900000 +1 -21.10100000 +1
  C(HETATM  414  C7  ATP A  44)  -2.28500000 +1 -10.56300000 +1 -24.59400000 +1
  C(HETATM  415  C8  ATP A  44)  -2.35300000 +1 -10.38200000 +1 -23.21700000 +1
  C(HETATM  416  C9  ATP A  44)  -2.28100000 +1  -9.09200000 +1 -22.74300000 +1
  H(HETATM  417 2H10 ATP A  44)  -1.98400000 +1  -7.48100000 +1 -25.33100000 +1
  C(HETATM  418  C10 ATP A  44)  -2.09300000 +1  -8.20700000 +1 -24.76100000 +1
  O(HETATM  419  O1  O-O A  46)  -4.94400000 +1 -10.03300000 +1 -16.06400000 +1
  O(HETATM  420  O1  O-O A  47)   0.09100000 +1  -4.40100000 +1   0.65000000 +1
  O(HETATM  421  O1  O-O A  48)  -0.09100000 +1   1.24900000 +1 -14.76400000 +1
  O(HETATM  422  O2  O-O A  47)  -0.09100000 +1  -4.40100000 +1  -0.65000000 +1
  O(HETATM  423  O1  O-O A  49)  -4.94400000 +1 -15.68200000 +1   0.65000000 +1
  O(HETATM  424  O2  O-O A  46)  -5.12500000 +1 -10.03300000 +1 -14.76400000 +1
  O(HETATM  425  O2  O-O A  49)  -5.12500000 +1 -15.68200000 +1  -0.65000000 +1
  O(HETATM  426  O2  O-O A  48)   0.09100000 +1   1.24900000 +1 -16.06400000 +1
  H(HETATM  427  H1  HET A  50)  -1.09900000 +1 -10.18800000 +1  -5.58000000 +1
  C(HETATM  428  C1  HET A  50)  -1.06200000 +1 -10.27400000 +1  -6.50500000 +1
  H(HETATM  429  H2  HET A  50)  -1.04200000 +1  -8.33400000 +1  -6.91200000 +1
  C(HETATM  430  C2  HET A  50)  -1.03000000 +1  -9.17500000 +1  -7.30300000 +1
  H(HETATM  431  H3  HET A  50)  -0.93000000 +1  -8.51000000 +1  -9.20500000 +1
  C(HETATM  432  C3  HET A  50)  -0.97900000 +1  -9.27400000 +1  -8.67800000 +1
  H(HETATM  433  H4  HET A  50)  -0.99500000 +1 -10.57900000 +1 -10.16700000 +1
  C(HETATM  434  C4  HET A  50)  -1.00000000 +1 -10.50600000 +1  -9.24200000 +1
  C(HETATM  435  C5  HET A  50)  -1.02800000 +1 -11.64100000 +1  -8.49000000 +1
  H(HETATM  436 1H1  HET A  50)  -1.41400000 +1 -12.76500000 +1  -5.91000000 +1
  N(HETATM  437  N1  HET A  50)  -1.13200000 +1 -12.81000000 +1  -6.72100000 +1
  H(HETATM  438 2H1  HET A  50)  -1.03200000 +1 -12.19600000 +1  -6.59100000 +1
  N(HETATM  439  N2  HET A  50)  -1.04000000 +1 -11.49200000 +1  -7.08700000 +1
  H(HETATM  440  H6  HET A  50)  -1.09900000 +1 -15.52700000 +1  -9.83400000 +1
  C(HETATM  441  C6  HET A  50)  -1.06200000 +1 -15.44100000 +1  -8.90900000 +1
  H(HETATM  442  H7  HET A  50)  -1.04200000 +1 -17.38100000 +1  -8.50200000 +1
  C(HETATM  443  C7  HET A  50)  -1.03000000 +1 -16.54000000 +1  -8.11100000 +1
  H(HETATM  444  H8  HET A  50)  -0.93000000 +1 -17.20500000 +1  -6.20900000 +1
  C(HETATM  445  C8  HET A  50)  -0.97900000 +1 -16.44100000 +1  -6.73600000 +1
  H(HETATM  446  H9  HET A  50)  -0.99500000 +1 -15.13600000 +1  -5.24700000 +1
  C(HETATM  447  C9  HET A  50)  -1.00000000 +1 -15.20900000 +1  -6.17200000 +1
  C(HETATM  448  C10 HET A  50)  -1.02800000 +1 -14.07400000 +1  -6.92400000 +1
  H(HETATM  449 1H3  HET A  50)  -1.41400000 +1 -12.95000000 +1  -9.50400000 +1
  N(HETATM  450  N3  HET A  50)  -1.13200000 +1 -12.90500000 +1  -8.69300000 +1
  H(HETATM  451 2H3  HET A  50)  -1.03200000 +1 -13.51900000 +1  -8.82300000 +1
  N(HETATM  452  N4  HET A  50)  -1.04000000 +1 -14.22300000 +1  -8.32700000 +1
  C(HETATM  453  C1  HET A  51)  -0.55500000 +1  -4.74600000 +1   9.65800000 +1
  H(HETATM  454  H2  HET A  51)  -0.50200000 +1  -6.10700000 +1   8.18500000 +1
  C(HETATM  455  C2  HET A  51)  -0.54400000 +1  -5.18800000 +1   8.32700000 +1
  H(HETATM  456  H3  HET A  51)  -0.58100000 +1  -4.72800000 +1   6.36600000 +1
  C(HETATM  457  C3  HET A  51)  -0.58800000 +1  -4.39400000 +1   7.23500000 +1
  C(HETATM  458  C4  HET A  51)  -0.64400000 +1  -3.03800000 +1   7.51600000 +1
  H(HETATM  459 1H1  HET A  51)  -0.69300000 +1  -0.92200000 +1   9.64300000 +1
  N(HETATM  460  N1  HET A  51)  -0.66500000 +1  -1.20800000 +1   8.83500000 +1
  H(HETATM  461 2H1  HET A  51)  -0.68900000 +1  -1.72300000 +1   8.93700000 +1
  N(HETATM  462  N2  HET A  51)  -0.65300000 +1  -2.56900000 +1   8.79500000 +1
  H(HETATM  463  H5  HET A  51)  -0.60900000 +1  -0.05500000 +1   4.68600000 +1
  C(HETATM  464  C5  HET A  51)  -0.60600000 +1   0.28100000 +1   5.55500000 +1
  H(HETATM  465  H6  HET A  51)  -0.52700000 +1   2.19200000 +1   5.04300000 +1
  C(HETATM  466  C6  HET A  51)  -0.55500000 +1   1.59400000 +1   5.75600000 +1
  H(HETATM  467  H7  HET A  51)  -0.50200000 +1   2.95500000 +1   7.22900000 +1
  C(HETATM  468  C7  HET A  51)  -0.54400000 +1   2.03600000 +1   7.08700000 +1
  H(HETATM  469  H8  HET A  51)  -0.58100000 +1   1.57600000 +1   9.04800000 +1
  C(HETATM  470  C8  HET A  51)  -0.58800000 +1   1.24200000 +1   8.17900000 +1
  C(HETATM  471  C9  HET A  51)  -0.64400000 +1  -0.11400000 +1   7.89800000 +1
  H(HETATM  472 1H3  HET A  51)  -0.69300000 +1  -2.23000000 +1   5.77100000 +1
  N(HETATM  473  N3  HET A  51)  -0.66500000 +1  -1.94400000 +1   6.57900000 +1
  H(HETATM  474 2H3  HET A  51)  -0.68900000 +1  -1.42900000 +1   6.47700000 +1
  N(HETATM  475  N4  HET A  51)  -0.65300000 +1  -0.58300000 +1   6.61900000 +1
  H(HETATM  476  H10 HET A  51)  -0.60900000 +1  -3.09700000 +1  10.72800000 +1
  C(HETATM  477  C10 HET A  51)  -0.60600000 +1  -3.43300000 +1   9.85900000 +1
  H(HETATM  478  H1  HET A  51)  -0.52700000 +1  -5.34400000 +1  10.37100000 +1
  H(HETATM  479  H1  HET A  52)   1.09900000 +1 -10.18800000 +1   5.58000000 +1
  C(HETATM  480  C1  HET A  52)   1.06200000 +1 -10.27400000 +1   6.50500000 +1
  H(HETATM  481  H2  HET A  52)   1.04200000 +1  -8.33400000 +1   6.91200000 +1
  C(HETATM  482  C2  HET A  52)   1.03000000 +1  -9.17500000 +1   7.30300000 +1
  H(HETATM  483  H3  HET A  52)   0.93000000 +1  -8.51000000 +1   9.20500000 +1
  C(HETATM  484  C3  HET A  52)   0.97900000 +1  -9.27400000 +1   8.67800000 +1
  H(HETATM  485  H4  HET A  52)   0.99500000 +1 -10.57900000 +1  10.16700000 +1
  C(HETATM  486  C4  HET A  52)   1.00000000 +1 -10.50600000 +1   9.24200000 +1
  C(HETATM  487  C5  HET A  52)   1.02800000 +1 -11.64100000 +1   8.49000000 +1
  H(HETATM  488 1H1  HET A  52)   1.41400000 +1 -12.76500000 +1   5.91000000 +1
  N(HETATM  489  N1  HET A  52)   1.13200000 +1 -12.81000000 +1   6.72100000 +1
  H(HETATM  490 2H1  HET A  52)   1.03200000 +1 -12.19600000 +1   6.59100000 +1
  N(HETATM  491  N2  HET A  52)   1.04000000 +1 -11.49200000 +1   7.08700000 +1
  H(HETATM  492  H6  HET A  52)   1.09900000 +1 -15.52700000 +1   9.83400000 +1
  C(HETATM  493  C6  HET A  52)   1.06200000 +1 -15.44100000 +1   8.90900000 +1
  H(HETATM  494  H7  HET A  52)   1.04200000 +1 -17.38100000 +1   8.50200000 +1
  C(HETATM  495  C7  HET A  52)   1.03000000 +1 -16.54000000 +1   8.11100000 +1
  H(HETATM  496  H8  HET A  52)   0.93000000 +1 -17.20500000 +1   6.20900000 +1
  C(HETATM  497  C8  HET A  52)   0.97900000 +1 -16.44100000 +1   6.73600000 +1
  H(HETATM  498  H9  HET A  52)   0.99500000 +1 -15.13600000 +1   5.24700000 +1
  C(HETATM  499  C9  HET A  52)   1.00000000 +1 -15.20900000 +1   6.17200000 +1
  C(HETATM  500  C10 HET A  52)   1.02800000 +1 -14.07400000 +1   6.92400000 +1
  H(HETATM  501 1H3  HET A  52)   1.41400000 +1 -12.95000000 +1   9.50400000 +1
  N(HETATM  502  N3  HET A  52)   1.13200000 +1 -12.90500000 +1   8.69300000 +1
  H(HETATM  503 2H3  HET A  52)   1.03200000 +1 -13.51900000 +1   8.82300000 +1
  N(HETATM  504  N4  HET A  52)   1.04000000 +1 -14.22300000 +1   8.32700000 +1
  H(HETATM  505 1H1  HET A  53)   0.68900000 +1  -1.42900000 +1  -6.47700000 +1
  N(HETATM  506  N1  HET A  53)   0.65300000 +1  -0.58300000 +1  -6.61900000 +1
  H(HETATM  507 2H1  HET A  53)   0.60900000 +1  -3.09700000 +1 -10.72800000 +1
  C(HETATM  508  C1  HET A  53)   0.60600000 +1  -3.43300000 +1  -9.85900000 +1
  H(HETATM  509  H2  HET A  53)   0.52700000 +1  -5.34400000 +1 -10.37100000 +1
  C(HETATM  510  C2  HET A  53)   0.55500000 +1  -4.74600000 +1  -9.65800000 +1
  H(HETATM  511  H3  HET A  53)   0.50200000 +1  -6.10700000 +1  -8.18500000 +1
  C(HETATM  512  C3  HET A  53)   0.54400000 +1  -5.18800000 +1  -8.32700000 +1
  H(HETATM  513  H4  HET A  53)   0.58100000 +1  -4.72800000 +1  -6.36600000 +1
  C(HETATM  514  C4  HET A  53)   0.58800000 +1  -4.39400000 +1  -7.23500000 +1
  C(HETATM  515  C5  HET A  53)   0.64400000 +1  -3.03800000 +1  -7.51600000 +1
  H(HETATM  516 1H2  HET A  53)   0.69300000 +1  -0.92200000 +1  -9.64300000 +1
  N(HETATM  517  N2  HET A  53)   0.66500000 +1  -1.20800000 +1  -8.83500000 +1
  H(HETATM  518 2H2  HET A  53)   0.68900000 +1  -1.72300000 +1  -8.93700000 +1
  N(HETATM  519  N3  HET A  53)   0.65300000 +1  -2.56900000 +1  -8.79500000 +1
  H(HETATM  520  H6  HET A  53)   0.60900000 +1  -0.05500000 +1  -4.68600000 +1
  C(HETATM  521  C6  HET A  53)   0.60600000 +1   0.28100000 +1  -5.55500000 +1
  H(HETATM  522  H7  HET A  53)   0.52700000 +1   2.19200000 +1  -5.04300000 +1
  C(HETATM  523  C7  HET A  53)   0.55500000 +1   1.59400000 +1  -5.75600000 +1
  H(HETATM  524  H8  HET A  53)   0.50200000 +1   2.95500000 +1  -7.22900000 +1
  C(HETATM  525  C8  HET A  53)   0.54400000 +1   2.03600000 +1  -7.08700000 +1
  H(HETATM  526  H9  HET A  53)   0.58100000 +1   1.57600000 +1  -9.04800000 +1
  C(HETATM  527  C9  HET A  53)   0.58800000 +1   1.24200000 +1  -8.17900000 +1
  C(HETATM  528  C10 HET A  53)   0.64400000 +1  -0.11400000 +1  -7.89800000 +1
  H(HETATM  529 1H4  HET A  53)   0.69300000 +1  -2.23000000 +1  -5.77100000 +1
  N(HETATM  530  N4  HET A  53)   0.66500000 +1  -1.94400000 +1  -6.57900000 +1
  H(HETATM  531  H1  HET A  54)  -5.96500000 +1   2.77200000 +1  -9.20500000 +1
  C(HETATM  532  C1  HET A  54)  -6.01300000 +1   2.00700000 +1  -8.67800000 +1
  H(HETATM  533  H2  HET A  54)  -6.02900000 +1   0.70300000 +1 -10.16700000 +1
  C(HETATM  534  C2  HET A  54)  -6.03400000 +1   0.77500000 +1  -9.24200000 +1
  C(HETATM  535  C3  HET A  54)  -6.06300000 +1  -0.36000000 +1  -8.49000000 +1
  H(HETATM  536 1H1  HET A  54)  -6.44800000 +1  -1.48300000 +1  -5.91000000 +1
  N(HETATM  537  N1  HET A  54)  -6.16600000 +1  -1.52900000 +1  -6.72100000 +1
  H(HETATM  538 2H1  HET A  54)  -6.06700000 +1  -0.91500000 +1  -6.59100000 +1
  N(HETATM  539  N2  HET A  54)  -6.07500000 +1  -0.21100000 +1  -7.08700000 +1
  H(HETATM  540  H4  HET A  54)  -6.13300000 +1  -4.24500000 +1  -9.83400000 +1
  C(HETATM  541  C4  HET A  54)  -6.09700000 +1  -4.15900000 +1  -8.90900000 +1
  H(HETATM  542  H5  HET A  54)  -6.07700000 +1  -6.10000000 +1  -8.50200000 +1
  C(HETATM  543  C5  HET A  54)  -6.06500000 +1  -5.25800000 +1  -8.11100000 +1
  H(HETATM  544  H6  HET A  54)  -5.96500000 +1  -5.92400000 +1  -6.20900000 +1
  C(HETATM  545  C6  HET A  54)  -6.01300000 +1  -5.15900000 +1  -6.73600000 +1
  H(HETATM  546  H7  HET A  54)  -6.02900000 +1  -3.85500000 +1  -5.24700000 +1
  C(HETATM  547  C7  HET A  54)  -6.03400000 +1  -3.92700000 +1  -6.17200000 +1
  C(HETATM  548  C8  HET A  54)  -6.06300000 +1  -2.79200000 +1  -6.92400000 +1
  H(HETATM  549 1H3  HET A  54)  -6.44800000 +1  -1.66900000 +1  -9.50400000 +1
  N(HETATM  550  N3  HET A  54)  -6.16600000 +1  -1.62300000 +1  -8.69300000 +1
  H(HETATM  551 2H3  HET A  54)  -6.06700000 +1  -2.23700000 +1  -8.82300000 +1
  N(HETATM  552  N4  HET A  54)  -6.07500000 +1  -2.94100000 +1  -8.32700000 +1
  H(HETATM  553  H9  HET A  54)  -6.13300000 +1   1.09300000 +1  -5.58000000 +1
  C(HETATM  554  C9  HET A  54)  -6.09700000 +1   1.00700000 +1  -6.50500000 +1
  H(HETATM  555  H10 HET A  54)  -6.07700000 +1   2.94800000 +1  -6.91200000 +1
  C(HETATM  556  C10 HET A  54)  -6.06500000 +1   2.10600000 +1  -7.30300000 +1
  O(HETATM  557  O1  O-O A  55)  -2.53700000 +1   3.34300000 +1 -18.54900000 +1
  O(HETATM  558  O2  O-O A  55)  -1.68200000 +1   2.42400000 +1 -19.19000000 +1
  O(HETATM  559  O1  O-O A  56)   1.68200000 +1  -5.57600000 +1  -3.77600000 +1
  O(HETATM  560  O2  O-O A  56)   2.53700000 +1  -6.49500000 +1  -3.13500000 +1
  O(HETATM  561  O1  O-O A  57)  -3.35300000 +1  -8.85700000 +1 -11.63800000 +1
  O(HETATM  562  O2  O-O A  57)  -2.49700000 +1  -7.93900000 +1 -12.27900000 +1
  O(HETATM  563  O1  O-O A  58)   3.35300000 +1   5.70500000 +1   3.77600000 +1
  O(HETATM  564  O2  O-O A  58)   2.49700000 +1   4.78700000 +1   3.13500000 +1
  O(HETATM  565  O1  O-O A  59)  -1.68200000 +1  -5.57600000 +1   3.77600000 +1
  O(HETATM  566  O2  O-O A  59)  -2.53700000 +1  -6.49500000 +1   3.13500000 +1
  O(HETATM  567  O   HOH A  60)   2.36600000 +1  -7.53300000 +1 -16.65900000 +1
  O(HETATM  568  O   HOH A  61)  -2.36600000 +1   4.38100000 +1  -1.24500000 +1
  O(HETATM  569  O1  O-O A  62)   1.68200000 +1   2.42400000 +1 -11.63800000 +1
  O(HETATM  570  O2  O-O A  62)   2.53700000 +1   3.34300000 +1 -12.27900000 +1
  O(HETATM  571  O1  O-O A  63)  -2.49700000 +1   4.78700000 +1  -3.13500000 +1
  O(HETATM  572  O2  O-O A  63)  -3.35300000 +1   5.70500000 +1  -3.77600000 +1
  O(HETATM  573  O1  O-O A  64)   3.35300000 +1  -8.85700000 +1 -19.19000000 +1
  O(HETATM  574  O2  O-O A  64)   2.49700000 +1  -7.93900000 +1 -18.54900000 +1
  O(HETATM  575  O   HOH A  65)  -5.03400000 +1  -7.37200000 +1 -15.41400000 +1
  O(HETATM  576  O   HOH A  66)   0.00000000 +1  -7.06100000 +1   0.00000000 +1
  O(HETATM  577  O   HOH A  67)   0.00000000 +1   3.90900000 +1 -15.41400000 +1
  O(HETATM  578  O   HOH A  68)   0.72800000 +1  -2.84600000 +1  -4.06300000 +1
  O(HETATM  579  O   HOH A  69)  -0.72800000 +1  -0.30600000 +1 -19.47700000 +1
  O(HETATM  580  O   HOH A  70)  -5.03400000 +1   4.22000000 +1   0.00000000 +1
  N(HETATM  581  N1  HET A  71)  -4.38100000 +1 -11.86500000 +1  -6.61900000 +1
  H(HETATM  582 1H1  HET A  71)  -4.42500000 +1 -14.37800000 +1 -10.72800000 +1
  C(HETATM  583  C1  HET A  71)  -4.42800000 +1 -14.71400000 +1  -9.85900000 +1
  H(HETATM  584  H2  HET A  71)  -4.50800000 +1 -16.62600000 +1 -10.37100000 +1
  C(HETATM  585  C2  HET A  71)  -4.48000000 +1 -16.02800000 +1  -9.65800000 +1
  H(HETATM  586  H3  HET A  71)  -4.53200000 +1 -17.38800000 +1  -8.18500000 +1
  C(HETATM  587  C3  HET A  71)  -4.49100000 +1 -16.47000000 +1  -8.32700000 +1
  H(HETATM  588  H4  HET A  71)  -4.45400000 +1 -16.01000000 +1  -6.36600000 +1
  C(HETATM  589  C4  HET A  71)  -4.44600000 +1 -15.67600000 +1  -7.23500000 +1
  C(HETATM  590  C5  HET A  71)  -4.39000000 +1 -14.32000000 +1  -7.51600000 +1
  H(HETATM  591 1H2  HET A  71)  -4.34200000 +1 -12.20300000 +1  -9.64300000 +1
  N(HETATM  592  N2  HET A  71)  -4.37000000 +1 -12.49000000 +1  -8.83500000 +1
  H(HETATM  593 2H2  HET A  71)  -4.34600000 +1 -13.00400000 +1  -8.93700000 +1
  N(HETATM  594  N3  HET A  71)  -4.38100000 +1 -13.85000000 +1  -8.79500000 +1
  H(HETATM  595  H6  HET A  71)  -4.42500000 +1 -11.33700000 +1  -4.68600000 +1
  C(HETATM  596  C6  HET A  71)  -4.42800000 +1 -11.00100000 +1  -5.55500000 +1
  H(HETATM  597  H7  HET A  71)  -4.50800000 +1  -9.08900000 +1  -5.04300000 +1
  C(HETATM  598  C7  HET A  71)  -4.48000000 +1  -9.68700000 +1  -5.75600000 +1
  H(HETATM  599  H8  HET A  71)  -4.53200000 +1  -8.32700000 +1  -7.22900000 +1
  C(HETATM  600  C8  HET A  71)  -4.49100000 +1  -9.24500000 +1  -7.08700000 +1
  H(HETATM  601  H9  HET A  71)  -4.45400000 +1  -9.70500000 +1  -9.04800000 +1
  C(HETATM  602  C9  HET A  71)  -4.44600000 +1 -10.03900000 +1  -8.17900000 +1
  C(HETATM  603  C10 HET A  71)  -4.39000000 +1 -11.39500000 +1  -7.89800000 +1
  H(HETATM  604 1H4  HET A  71)  -4.34200000 +1 -13.51200000 +1  -5.77100000 +1
  N(HETATM  605  N4  HET A  71)  -4.37000000 +1 -13.22500000 +1  -6.57900000 +1
  H(HETATM  606 2H1  HET A  71)  -4.34600000 +1 -12.71100000 +1  -6.47700000 +1
  O(HETATM  607  O   HOH A  72)   2.66800000 +1  -6.90100000 +1  -1.24500000 +1
  O(HETATM  608  O   HOH A  73)   2.66800000 +1   3.74900000 +1 -14.16900000 +1
  O(HETATM  609  O   HOH A  74)  -2.66800000 +1  -6.90100000 +1   1.24500000 +1
  O(HETATM  610  O   HOH A  75)  -5.76200000 +1 -14.12800000 +1   4.06300000 +1
  O(HETATM  611  O   HOH A  76)  -2.36600000 +1  -7.53300000 +1 -14.16900000 +1
  O(HETATM  612  O   HOH A  77)   2.36600000 +1   4.38100000 +1   1.24500000 +1
  O(HETATM  613  O   HOH A  78)  -2.66800000 +1   3.74900000 +1 -16.65900000 +1
  O(HETATM  614  O   HOH A  79)  -5.76200000 +1 -11.58700000 +1 -19.47700000 +1
  O(HETATM  615  O   HOH A  80)  -0.72800000 +1  -2.84600000 +1   4.06300000 +1
  O(HETATM  616  O   HOH A  81)   0.72800000 +1  -0.30600000 +1 -11.35100000 +1
  O(HETATM  617  O   HOH A  82)  -4.30700000 +1 -11.58700000 +1 -11.35100000 +1
  O(HETATM  618  O   HOH A  83)  -4.30700000 +1 -14.12800000 +1  -4.06300000 +1
  N(HETATM  619  N1  HET A  84)  -5.68800000 +1 -11.86500000 +1   6.61900000 +1
  H(HETATM  620 1H1  HET A  84)  -5.64400000 +1 -14.37800000 +1  10.72800000 +1
  C(HETATM  621  C1  HET A  84)  -5.64100000 +1 -14.71400000 +1   9.85900000 +1
  H(HETATM  622  H2  HET A  84)  -5.56100000 +1 -16.62600000 +1  10.37100000 +1
  C(HETATM  623  C2  HET A  84)  -5.58900000 +1 -16.02800000 +1   9.65800000 +1
  H(HETATM  624  H3  HET A  84)  -5.53700000 +1 -17.38800000 +1   8.18500000 +1
  C(HETATM  625  C3  HET A  84)  -5.57800000 +1 -16.47000000 +1   8.32700000 +1
  H(HETATM  626  H4  HET A  84)  -5.61500000 +1 -16.01000000 +1   6.36600000 +1
  C(HETATM  627  C4  HET A  84)  -5.62300000 +1 -15.67600000 +1   7.23500000 +1
  C(HETATM  628  C5  HET A  84)  -5.67900000 +1 -14.32000000 +1   7.51600000 +1
  H(HETATM  629 1H2  HET A  84)  -5.72700000 +1 -12.20300000 +1   9.64300000 +1
  N(HETATM  630  N2  HET A  84)  -5.69900000 +1 -12.49000000 +1   8.83500000 +1
  H(HETATM  631 2H2  HET A  84)  -5.72300000 +1 -13.00400000 +1   8.93700000 +1
  N(HETATM  632  N3  HET A  84)  -5.68800000 +1 -13.85000000 +1   8.79500000 +1
  H(HETATM  633  H6  HET A  84)  -5.64400000 +1 -11.33700000 +1   4.68600000 +1
  C(HETATM  634  C6  HET A  84)  -5.64100000 +1 -11.00100000 +1   5.55500000 +1
  H(HETATM  635  H7  HET A  84)  -5.56100000 +1  -9.08900000 +1   5.04300000 +1
  C(HETATM  636  C7  HET A  84)  -5.58900000 +1  -9.68700000 +1   5.75600000 +1
  H(HETATM  637  H8  HET A  84)  -5.53700000 +1  -8.32700000 +1   7.22900000 +1
  C(HETATM  638  C8  HET A  84)  -5.57800000 +1  -9.24500000 +1   7.08700000 +1
  H(HETATM  639  H9  HET A  84)  -5.61500000 +1  -9.70500000 +1   9.04800000 +1
  C(HETATM  640  C9  HET A  84)  -5.62300000 +1 -10.03900000 +1   8.17900000 +1
  C(HETATM  641  C10 HET A  84)  -5.67900000 +1 -11.39500000 +1   7.89800000 +1
  H(HETATM  642 1H4  HET A  84)  -5.72700000 +1 -13.51200000 +1   5.77100000 +1
  N(HETATM  643  N4  HET A  84)  -5.69900000 +1 -13.22500000 +1   6.57900000 +1
  H(HETATM  644 2H1  HET A  84)  -5.72300000 +1 -12.71100000 +1   6.47700000 +1
 Tv                               0.00000000 +1   0.00000000 +0  30.82800000 +0 
 Tv                               0.00000000 +1  22.56300000 +0   0.00000000 +0 
 Tv                              10.06900000 +1   0.00000000 +0   0.00000000 +0 
 

 **********************
 *                    *
 * JOB ENDED NORMALLY *
 *                    *
 **********************



 TOTAL JOB TIME:             0.19 SECONDS

 == MOPAC DONE ==
