 *******************************************************************************
 ** Site#: 9872         For non-commercial use only    Version 17.239W 64BITS **
 *******************************************************************************
 ** Cite this program as: MOPAC2016, Version: 17.239W, James J. P. Stewart,   **
 ** Stewart Computational Chemistry, web: HTTP://OpenMOPAC.net. Days left: 364**
 *******************************************************************************
 **                                                                           **
 **                                MOPAC2016                                  **
 **                                                                           **
 *******************************************************************************

                              PM6 CALCULATION RESULTS


 *******************************************************************************
 *  CALCULATION DONE:                                Mon Aug 28 22:47:55 2017  *
 *  PM6        - The PM6 Hamiltonian to be used
 *  MOZYME     - USE LOCALIZED M.O.s IN SOLVING THE SCF EQUATIONS
 *  OPT        - OPTIMIZE COORDINATES OF ALL ATOMS
 *  1SCF       - DO 1 SCF AND THEN STOP 
 *  T=         - A TIME OF 172800.0 SECONDS REQUESTED
 *  DUMP=N     - RESTART FILE WRITTEN EVERY  7200.000 SECONDS
 *  GNORM=     - EXIT WHEN GRADIENT NORM DROPS BELOW   4.00    
 *  OUTPUT     - MINIMIZE OUTPUT
 *  HTML       - WRITE HTML SCRIPT TO READ PDB FILE USING JSMOL
 *******************************************************************************
1SCF opt GNORM=4 HTML mozyme output PM6
 EMETAS Hexa-aqua-magnesium(ii) bis(2-(2-pyridyl)pyridinium) bis(adenosine-5'-triphosphate)-magnesium(ii) hexahydrate (PM6 geometry)

 

                   THE SYSTEM IS A SOLID


                UNIT CELL TRANSLATION VECTORS

              X              Y              Z
    T1 =   0.3382018      0.0210501     31.0559865
    T2 =  -0.0300460     22.4920750      0.0676887
    T3 =   9.7141270      0.0494211      0.0251776

 General Reference for PM6:
 "Optimization of Parameters for Semiempirical Methods V: Modification of NDDO Approximations
 and Application to 70 Elements", J. J. P. Stewart, J. Mol. Mod., 13, 1173-1213 (2007)
 URL: http://www.springerlink.com/content/ar33482301010477/fulltext.pdf

           Empirical Formula: C160 H296 N64 O160 P24 Mg8  =   712 atoms


   Ion Atom No.           Label               Charge (Distances are between charged sites predicted by Lewis structure theory)
 
    1  Mg  354   (HETATM  356 MG    MG I   9)   +2
    2  Mg  355   (HETATM  357 MG    MG J  10)   +2
    3  Mg  356   (HETATM  358 MG    MG K  11)   +2
    4  Mg  357   (HETATM  359 MG    MG L  12)   +2
    5  Mg  358   (HETATM  360 MG    MG M  13)   +2
    6  Mg  359   (HETATM  361 MG    MG N  14)   +2
    7  Mg  360   (HETATM  362 MG    MG O  15)   +2
    8  Mg  361   (HETATM  363 MG    MG P  16)   +2
 
    1   C   29   (HETATM   29  C9  ATP A   1)   +1  (5.3 Angstroms from anion  O  244, Label: HETATM  245  O8  ATP F   6)
    2   C   47   (HETATM   47  C2  ATP B   2)   +1  (5.2 Angstroms from anion  O  321, Label: HETATM  323  O9  ATP H   8)
    3   C  160   (HETATM  162  C9  ATP D   4)   +1  (5.6 Angstroms from anion  O  136, Label: HETATM  138  O3  ATP D   4)
    4   C  192   (HETATM  193  C8  ATP E   5)   +1  (5.6 Angstroms from anion  O  207, Label: HETATM  208  O13 ATP E   5)
    5   C  225   (HETATM  226  C3  ATP F   6)   +1  (5.2 Angstroms from anion  O   10, Label: HETATM   10  O6  ATP A   1)
    6   C  289   (HETATM  290  C9  ATP G   7)   +1  (7.2 Angstroms from anion  O  119, Label: HETATM  119  O13 ATP C   3)
    7   C  337   (HETATM  339  C9  ATP H   8)   +1  (5.3 Angstroms from anion  O   67, Label: HETATM   67  O9  ATP B   2)
    8   C  366   (HETATM  368  C4  BIS Q  17)   +1  (5.3 Angstroms from anion  O  140, Label: HETATM  142  O6  ATP D   4)
    9   C  389   (HETATM  390  C4  BIS R  18)   +1  (4.9 Angstroms from anion  O  317, Label: HETATM  319  O6  ATP H   8)
   10   C  408   (HETATM  409  C2  BIS S  19)   +1  (4.6 Angstroms from anion  O   67, Label: HETATM   67  O9  ATP B   2)
                                                    (4.8 Angstroms from anion  O   70, Label: HETATM   70  O12 ATP B   2)
   11   C  440   (HETATM  441  C8  BIS T  20)   +1  (6.4 Angstroms from anion  O  140, Label: HETATM  142  O6  ATP D   4)
   12   C  464   (HETATM  465  C9  BIS U  21)   +1  (5.3 Angstroms from anion  O  200, Label: HETATM  201  O7  ATP E   5)
   13   C  483   (HETATM  483  C7  BIS V  22)   +1  (6.9 Angstroms from anion  O  207, Label: HETATM  208  O13 ATP E   5)
   14   C  508   (HETATM  508  C8  BIS W  23)   +1  (3.9 Angstroms from anion  O   12, Label: HETATM   12  O8  ATP A   1)
   15   C  523   (HETATM  523  C2  BIS X  24)   +1  (4.8 Angstroms from anion  O  240, Label: HETATM  241  O5  ATP F   6)
 
    1   O    9   (HETATM    9  O5  ATP A   1)   -1  (2.1 Angstroms from cation Mg  358, Label: HETATM  360 MG    MG M  13)
    2   O   10   (HETATM   10  O6  ATP A   1)   -1  (4.4 Angstroms from cation Mg  358, Label: HETATM  360 MG    MG M  13)
    3   O   12   (HETATM   12  O8  ATP A   1)   -1  (3.9 Angstroms from cation  C  508, Label: HETATM  508  C8  BIS W  23)
                                                    (4.6 Angstroms from cation Mg  358, Label: HETATM  360 MG    MG M  13)
    4   O   14   (HETATM   14  O10 ATP A   1)   -1  (2.2 Angstroms from cation Mg  358, Label: HETATM  360 MG    MG M  13)
    5   O   63   (HETATM   63  O6  ATP B   2)   -1  (4.7 Angstroms from cation Mg  359, Label: HETATM  361 MG    MG N  14)
    6   O   67   (HETATM   67  O9  ATP B   2)   -1  (4.5 Angstroms from cation Mg  355, Label: HETATM  357 MG    MG J  10)
                                                    (4.5 Angstroms from cation Mg  359, Label: HETATM  361 MG    MG N  14)
                                                    (4.6 Angstroms from cation  C  408, Label: HETATM  409  C2  BIS S  19)
    7   O   68   (HETATM   68  O10 ATP B   2)   -1  (4.2 Angstroms from cation Mg  359, Label: HETATM  361 MG    MG N  14)
    8   O   70   (HETATM   70  O12 ATP B   2)   -1  (4.0 Angstroms from cation Mg  355, Label: HETATM  357 MG    MG J  10)
                                                    (4.4 Angstroms from cation Mg  359, Label: HETATM  361 MG    MG N  14)
                                                    (4.8 Angstroms from cation  C  408, Label: HETATM  409  C2  BIS S  19)
    9   O   92   (HETATM   92  O3  ATP C   3)   -1  (2.1 Angstroms from cation Mg  359, Label: HETATM  361 MG    MG N  14)
   10   O   93   (HETATM   93  O4  ATP C   3)   -1  (4.6 Angstroms from cation Mg  359, Label: HETATM  361 MG    MG N  14)
   11   O  117   (HETATM  117  O11 ATP C   3)   -1  (2.1 Angstroms from cation Mg  359, Label: HETATM  361 MG    MG N  14)
   12   O  119   (HETATM  119  O13 ATP C   3)   -1  (4.7 Angstroms from cation Mg  359, Label: HETATM  361 MG    MG N  14)
   13   O  136   (HETATM  138  O3  ATP D   4)   -1  (4.4 Angstroms from cation Mg  360, Label: HETATM  362 MG    MG O  15)
   14   O  140   (HETATM  142  O6  ATP D   4)   -1  (4.6 Angstroms from cation Mg  360, Label: HETATM  362 MG    MG O  15)
   15   O  144   (HETATM  146  O9  ATP D   4)   -1  (2.1 Angstroms from cation Mg  360, Label: HETATM  362 MG    MG O  15)
   16   O  200   (HETATM  201  O7  ATP E   5)   -1  (4.6 Angstroms from cation Mg  358, Label: HETATM  360 MG    MG M  13)
   17   O  204   (HETATM  205  O10 ATP E   5)   -1  (4.3 Angstroms from cation Mg  356, Label: HETATM  358 MG    MG K  11)
                                                    (4.5 Angstroms from cation Mg  358, Label: HETATM  360 MG    MG M  13)
   18   O  205   (HETATM  206  O11 ATP E   5)   -1  (4.4 Angstroms from cation Mg  358, Label: HETATM  360 MG    MG M  13)
   19   O  207   (HETATM  208  O13 ATP E   5)   -1  (4.0 Angstroms from cation Mg  356, Label: HETATM  358 MG    MG K  11)
                                                    (4.4 Angstroms from cation Mg  358, Label: HETATM  360 MG    MG M  13)
   20   O  240   (HETATM  241  O5  ATP F   6)   -1  (4.7 Angstroms from cation Mg  361, Label: HETATM  363 MG    MG P  16)
                                                    (4.8 Angstroms from cation  C  523, Label: HETATM  523  C2  BIS X  24)
   21   O  244   (HETATM  245  O8  ATP F   6)   -1  (4.5 Angstroms from cation Mg  361, Label: HETATM  363 MG    MG P  16)
   22   O  245   (HETATM  246  O9  ATP F   6)   -1  (4.2 Angstroms from cation Mg  361, Label: HETATM  363 MG    MG P  16)
   23   O  247   (HETATM  248  O11 ATP F   6)   -1  (4.3 Angstroms from cation Mg  361, Label: HETATM  363 MG    MG P  16)
   24   O  292   (HETATM  293  O10 ATP G   7)   -1  (2.1 Angstroms from cation Mg  361, Label: HETATM  363 MG    MG P  16)
                                                    (4.2 Angstroms from cation Mg  357, Label: HETATM  359 MG    MG L  12)
   25   O  293   (HETATM  294  O11 ATP G   7)   -1  (2.2 Angstroms from cation Mg  361, Label: HETATM  363 MG    MG P  16)
   26   O  294   (HETATM  295  O12 ATP G   7)   -1  (4.3 Angstroms from cation Mg  361, Label: HETATM  363 MG    MG P  16)
   27   O  295   (HETATM  296  O13 ATP G   7)   -1  (4.4 Angstroms from cation Mg  357, Label: HETATM  359 MG    MG L  12)
                                                    (4.5 Angstroms from cation Mg  361, Label: HETATM  363 MG    MG P  16)
   28   O  313   (HETATM  315  O3  ATP H   8)   -1  (4.1 Angstroms from cation Mg  354, Label: HETATM  356 MG    MG I   9)
                                                    (4.4 Angstroms from cation Mg  360, Label: HETATM  362 MG    MG O  15)
   29   O  317   (HETATM  319  O6  ATP H   8)   -1  (4.7 Angstroms from cation Mg  360, Label: HETATM  362 MG    MG O  15)
                                                    (4.9 Angstroms from cation  C  389, Label: HETATM  390  C4  BIS R  18)
   30   O  321   (HETATM  323  O9  ATP H   8)   -1  (4.2 Angstroms from cation Mg  354, Label: HETATM  356 MG    MG I   9)
                                                    (4.5 Angstroms from cation Mg  360, Label: HETATM  362 MG    MG O  15)
   31   O  322   (HETATM  324  O10 ATP H   8)   -1  (4.4 Angstroms from cation Mg  360, Label: HETATM  362 MG    MG O  15)
 Overlap Cutoff Distance:                                   7.000000 CUTOFS
 Cutoff for quadrupolar and higher 2-electron integrals:   30.000000 CUTOF2
 Cutoff for dipolar integrals:                             30.000002 CUTOF1
 Madelung cutoff:                                          30.000000 CUTOFP

 -------------------------------------------------------------------------------
1SCF opt GNORM=4 HTML mozyme output PM6
 EMETAS Hexa-aqua-magnesium(ii) bis(2-(2-pyridyl)pyridinium) bis(adenosine-5'-triphosphate)-magnesium(ii) hexahydrate (PM6 geometry)



     1SCF WAS SPECIFIED, SO BFGS WAS NOT USED                 
     SCF FIELD WAS ACHIEVED                                   


                              PM6 CALCULATION
                                                       MOPAC2016 (Version: 17.239W)
                                                       Mon Aug 28 22:50:22 2017
                                                       No. of days remaining = 364




          FINAL HEAT OF FORMATION =      -9704.93813 KCAL/MOL =  -40605.46113 KJ/MOL
          H.o.F. per unit cell    =      -1213.11727 KCAL, for   8 unit cells


          TOTAL ENERGY            =     -85519.17443 EV
          ELECTRONIC ENERGY       = -516112332.32900 EV
          CORE-CORE REPULSION     =  516026813.15457 EV

          NO. OF FILLED LEVELS    =       1176
          MOLECULAR WEIGHT        =       6614.2414

                   THE SYSTEM IS A SOLID


                UNIT CELL TRANSLATION VECTORS

              X              Y              Z
    T1 =   0.3382018      0.0210501     31.0559865
    T2 =  -0.0300460     22.4920750      0.0676887
    T3 =   9.7141270      0.0494211      0.0251776

          VOLUME OF UNIT CELL         6785.291 CUBIC ANGSTROMS
          DENSITY                        1.619 GRAMS/CC


          SCF CALCULATIONS        =          1
 
          WALL-CLOCK TIME         =  2 MINUTES AND 27.484 SECONDS
          COMPUTATION TIME        =  2 MINUTES AND 27.281 SECONDS





                  UNUSUALLY SHORT HYDROGEN BOND DISTANCES

  Hydrogen   R(H-A)  Atom A    R(H-B)  Atom B     R(A-B)      Loc-A      Loc-B
      79      1.41   O   67     1.17   N  334      2.58     ATP   2  B  ATP   8  H
     308      1.47   O  204     1.15   N  286      2.57     ATP   5  E  ATP   7  G
     176      1.49   O   93     1.14   N  156      2.63     ATP   3  C  ATP   4  D
 

           Empirical Formula: C160 H296 N64 O160 P24 Mg8  =   712 atoms


          NET CHARGE ON RESIDUES

      Residue         Charge  Anion or
                              Cation?
      ATP A   1       -2.228  ANION
      ATP B   2       -1.823  ANION
      ATP C   3       -2.551  ANION
      ATP D   4       -1.525  ANION
      ATP E   5       -2.144  ANION
      ATP F   6       -2.547  ANION
      ATP G   7       -2.214  ANION
      ATP H   8       -2.617  ANION
       MG I   9       +1.182  CATION
       MG J  10       +0.797  CATION
       MG K  11       +0.789  CATION
       MG L  12       +0.803  CATION
       MG M  13       +0.956  CATION
       MG N  14       +0.948  CATION
       MG O  15       +0.950  CATION
       MG P  16       +0.948  CATION
      BIS Q  17       +0.917  CATION
      BIS R  18       +0.536  CATION
      BIS S  19       +0.899  CATION
      BIS T  20       +0.947  CATION
      BIS U  21       +0.914  CATION
      BIS V  22       +0.933  CATION
      BIS W  23       +0.922  CATION
      BIS X  24       +0.922  CATION
      HOH Y  25       +0.140
      HOH Y  26       +0.156
      HOH Y  27       +0.156
      HOH Y  28       +0.137
      HOH Y  29       +0.132
      HOH Y  30       +0.127
      HOH Y  31       +0.133
      HOH Y  32       +0.143
      HOH Y  33       +0.129
      HOH Y  34       +0.148
      HOH Y  35       +0.160
      HOH Y  36       +0.156
      HOH Y  37       +0.135
      HOH Y  38       +0.132
      HOH Y  39       +0.134
      HOH Y  40       +0.141
      HOH Y  41       +0.137
      HOH Y  42       +0.130
      HOH Y  43       +0.127
      HOH Y  44       +0.145
      HOH Y  45       +0.129
      HOH Y  46       +0.146
      HOH Y  47       +0.155
      HOH Y  48       +0.153
 


                   No Salt Bridges Found



 **********************
 *                    *
 * JOB ENDED NORMALLY *
 *                    *
 **********************



 TOTAL JOB TIME:           148.31 SECONDS

 == MOPAC DONE ==
