 *******************************************************************************
 ** Site#: 9602  E-mail support:    MrMOPAC@ATT.net    Version 17.238W 64BITS **
 *******************************************************************************
 ** Cite this program as: MOPAC2016, Version: 17.238W, James J. P. Stewart,   **
 ** Stewart Computational Chemistry, web: HTTP://OpenMOPAC.net. Days left: 354**
 *******************************************************************************
 **                                                                           **
 **                                MOPAC2016                                  **
 **                                                                           **
 *******************************************************************************

                              PM6 CALCULATION RESULTS


 *******************************************************************************
 *  CALCULATION DONE:                                Sat Aug 26 20:37:57 2017  *
 *  PM6        - The PM6 Hamiltonian to be used
 *  MOZYME     - USE LOCALIZED M.O.s IN SOLVING THE SCF EQUATIONS
 *  NOOPT      - DO NOT OPTIMIZE ANY COORDINATES
 *  OPT-H      - OPTIMIZE COORDINATES OF ATOMS OF TYPE H
 *  1SCF       - DO 1 SCF AND THEN STOP 
 *  T=         - A TIME OF 172800.0 SECONDS REQUESTED
 *  DUMP=N     - RESTART FILE WRITTEN EVERY  7200.000 SECONDS
 *  GNORM=     - EXIT WHEN GRADIENT NORM DROPS BELOW   4.00    
 *  OUTPUT     - MINIMIZE OUTPUT
 *  HTML       - WRITE HTML SCRIPT TO READ PDB FILE USING JSMOL
 *******************************************************************************
noopt opt-H GNORM=4 HTML mozyme output PM6 1SCF
 EMETAS Hexa-aqua-magnesium(ii) bis(2-(2-pyridyl)pyridinium) bis(adenosine-5'-triphosphate)-magnesium(ii) hexahydrate (CSD geometry)

 

                   THE SYSTEM IS A SOLID


                UNIT CELL TRANSLATION VECTORS

              X              Y              Z
    T1 =   0.0000000      0.0000000     30.8280000
    T2 =   0.0000000     22.5630000      0.0000000
    T3 =  10.0690000      0.0000000      0.0000000

 General Reference for PM6:
 "Optimization of Parameters for Semiempirical Methods V: Modification of NDDO Approximations
 and Application to 70 Elements", J. J. P. Stewart, J. Mol. Mod., 13, 1173-1213 (2007)
 URL: http://www.springerlink.com/content/ar33482301010477/fulltext.pdf

           Empirical Formula: C160 H296 N64 O160 P24 Mg8  =   712 atoms


   Ion Atom No.           Label               Charge (Distances are between charged sites predicted by Lewis structure theory)
 
    1  Mg  356   (HETATM  356 MG    MG I   9)   +2
    2  Mg  357   (HETATM  357 MG    MG J  10)   +2
    3  Mg  358   (HETATM  358 MG    MG K  11)   +2
    4  Mg  359   (HETATM  359 MG    MG L  12)   +2
    5  Mg  360   (HETATM  360 MG    MG M  13)   +2
    6  Mg  361   (HETATM  361 MG    MG N  14)   +2
    7  Mg  362   (HETATM  362 MG    MG O  15)   +2
    8  Mg  363   (HETATM  363 MG    MG P  16)   +2
 
    1   C   29   (HETATM   29  C9  ATP A   1)   +1  (5.2 Angstroms from anion  O  245, Label: HETATM  245  O8  ATP F   6)
    2   C  162   (HETATM  162  C9  ATP D   4)   +1  (5.6 Angstroms from anion  O  138, Label: HETATM  138  O3  ATP D   4)
    3   C  193   (HETATM  193  C8  ATP E   5)   +1  (5.6 Angstroms from anion  O  208, Label: HETATM  208  O13 ATP E   5)
    4   C  339   (HETATM  339  C9  ATP H   8)   +1  (5.2 Angstroms from anion  O   67, Label: HETATM   67  O9  ATP B   2)
    5   C  368   (HETATM  368  C4  BIS Q  17)   +1  (5.6 Angstroms from anion  O  142, Label: HETATM  142  O6  ATP D   4)
    6   C  390   (HETATM  390  C4  BIS R  18)   +1  (4.6 Angstroms from anion  O  319, Label: HETATM  319  O6  ATP H   8)
    7   C  409   (HETATM  409  C2  BIS S  19)   +1  (4.4 Angstroms from anion  O   67, Label: HETATM   67  O9  ATP B   2)
    8   C  441   (HETATM  441  C8  BIS T  20)   +1  (6.4 Angstroms from anion  O  142, Label: HETATM  142  O6  ATP D   4)
    9   C  465   (HETATM  465  C9  BIS U  21)   +1  (5.6 Angstroms from anion  O  201, Label: HETATM  201  O7  ATP E   5)
   10   C  483   (HETATM  483  C7  BIS V  22)   +1  (6.9 Angstroms from anion  O  208, Label: HETATM  208  O13 ATP E   5)
   11   C  508   (HETATM  508  C8  BIS W  23)   +1  (4.2 Angstroms from anion  O   12, Label: HETATM   12  O8  ATP A   1)
   12   C  523   (HETATM  523  C2  BIS X  24)   +1  (4.6 Angstroms from anion  O  241, Label: HETATM  241  O5  ATP F   6)
 
    1   O    9   (HETATM    9  O5  ATP A   1)   -1  (2.1 Angstroms from cation Mg  360, Label: HETATM  360 MG    MG M  13)
    2   O   12   (HETATM   12  O8  ATP A   1)   -1  (4.2 Angstroms from cation  C  508, Label: HETATM  508  C8  BIS W  23)
                                                    (4.5 Angstroms from cation Mg  360, Label: HETATM  360 MG    MG M  13)
    3   O   14   (HETATM   14  O10 ATP A   1)   -1  (2.1 Angstroms from cation Mg  360, Label: HETATM  360 MG    MG M  13)
    4   O   63   (HETATM   63  O6  ATP B   2)   -1  (4.5 Angstroms from cation Mg  361, Label: HETATM  361 MG    MG N  14)
    5   O   67   (HETATM   67  O9  ATP B   2)   -1  (4.4 Angstroms from cation  C  409, Label: HETATM  409  C2  BIS S  19)
                                                    (4.4 Angstroms from cation Mg  357, Label: HETATM  357 MG    MG J  10)
                                                    (4.5 Angstroms from cation Mg  361, Label: HETATM  361 MG    MG N  14)
    6   O   68   (HETATM   68  O10 ATP B   2)   -1  (4.1 Angstroms from cation Mg  361, Label: HETATM  361 MG    MG N  14)
    7   O   70   (HETATM   70  O12 ATP B   2)   -1  (4.2 Angstroms from cation Mg  357, Label: HETATM  357 MG    MG J  10)
                                                    (4.2 Angstroms from cation Mg  361, Label: HETATM  361 MG    MG N  14)
    8   O   92   (HETATM   92  O3  ATP C   3)   -1  (2.1 Angstroms from cation Mg  361, Label: HETATM  361 MG    MG N  14)
    9   O   93   (HETATM   93  O4  ATP C   3)   -1  (4.5 Angstroms from cation Mg  361, Label: HETATM  361 MG    MG N  14)
   10   O  117   (HETATM  117  O11 ATP C   3)   -1  (2.1 Angstroms from cation Mg  361, Label: HETATM  361 MG    MG N  14)
   11   O  119   (HETATM  119  O13 ATP C   3)   -1  (4.5 Angstroms from cation Mg  361, Label: HETATM  361 MG    MG N  14)
   12   O  138   (HETATM  138  O3  ATP D   4)   -1  (4.2 Angstroms from cation Mg  362, Label: HETATM  362 MG    MG O  15)
   13   O  142   (HETATM  142  O6  ATP D   4)   -1  (4.5 Angstroms from cation Mg  362, Label: HETATM  362 MG    MG O  15)
   14   O  146   (HETATM  146  O9  ATP D   4)   -1  (2.1 Angstroms from cation Mg  362, Label: HETATM  362 MG    MG O  15)
   15   O  201   (HETATM  201  O7  ATP E   5)   -1  (4.5 Angstroms from cation Mg  360, Label: HETATM  360 MG    MG M  13)
   16   O  206   (HETATM  206  O11 ATP E   5)   -1  (4.0 Angstroms from cation Mg  360, Label: HETATM  360 MG    MG M  13)
   17   O  208   (HETATM  208  O13 ATP E   5)   -1  (4.2 Angstroms from cation Mg  358, Label: HETATM  358 MG    MG K  11)
                                                    (4.2 Angstroms from cation Mg  360, Label: HETATM  360 MG    MG M  13)
   18   O  241   (HETATM  241  O5  ATP F   6)   -1  (4.5 Angstroms from cation Mg  363, Label: HETATM  363 MG    MG P  16)
                                                    (4.6 Angstroms from cation  C  523, Label: HETATM  523  C2  BIS X  24)
   19   O  245   (HETATM  245  O8  ATP F   6)   -1  (4.5 Angstroms from cation Mg  363, Label: HETATM  363 MG    MG P  16)
   20   O  246   (HETATM  246  O9  ATP F   6)   -1  (4.0 Angstroms from cation Mg  363, Label: HETATM  363 MG    MG P  16)
   21   O  248   (HETATM  248  O11 ATP F   6)   -1  (4.2 Angstroms from cation Mg  363, Label: HETATM  363 MG    MG P  16)
   22   O  293   (HETATM  293  O10 ATP G   7)   -1  (2.1 Angstroms from cation Mg  363, Label: HETATM  363 MG    MG P  16)
                                                    (4.6 Angstroms from cation Mg  359, Label: HETATM  359 MG    MG L  12)
   23   O  294   (HETATM  294  O11 ATP G   7)   -1  (2.1 Angstroms from cation Mg  363, Label: HETATM  363 MG    MG P  16)
   24   O  295   (HETATM  295  O12 ATP G   7)   -1  (4.0 Angstroms from cation Mg  363, Label: HETATM  363 MG    MG P  16)
   25   O  296   (HETATM  296  O13 ATP G   7)   -1  (4.4 Angstroms from cation Mg  359, Label: HETATM  359 MG    MG L  12)
                                                    (4.5 Angstroms from cation Mg  363, Label: HETATM  363 MG    MG P  16)
   26   O  315   (HETATM  315  O3  ATP H   8)   -1  (4.2 Angstroms from cation Mg  356, Label: HETATM  356 MG    MG I   9)
                                                    (4.2 Angstroms from cation Mg  362, Label: HETATM  362 MG    MG O  15)
   27   O  319   (HETATM  319  O6  ATP H   8)   -1  (4.5 Angstroms from cation Mg  362, Label: HETATM  362 MG    MG O  15)
                                                    (4.6 Angstroms from cation  C  390, Label: HETATM  390  C4  BIS R  18)
   28   O  324   (HETATM  324  O10 ATP H   8)   -1  (4.1 Angstroms from cation Mg  362, Label: HETATM  362 MG    MG O  15)
 Overlap Cutoff Distance:                                   7.000000 CUTOFS
 Cutoff for quadrupolar and higher 2-electron integrals:   30.000000 CUTOF2
 Cutoff for dipolar integrals:                             30.000002 CUTOF1
 Madelung cutoff:                                          30.000000 CUTOFP

 -------------------------------------------------------------------------------
noopt opt-H GNORM=4 HTML mozyme output PM6 1SCF
 EMETAS Hexa-aqua-magnesium(ii) bis(2-(2-pyridyl)pyridinium) bis(adenosine-5'-triphosphate)-magnesium(ii) hexahydrate (CSD geometry)



     1SCF WAS SPECIFIED, SO BFGS WAS NOT USED                 
     SCF FIELD WAS ACHIEVED                                   


                              PM6 CALCULATION
                                                       MOPAC2016 (Version: 17.238W)
                                                       Sat Aug 26 20:40:43 2017
                                                       No. of days remaining = 354




          FINAL HEAT OF FORMATION =      -8926.92396 KCAL/MOL =  -37350.24986 KJ/MOL
          H.o.F. per unit cell    =      -1115.86550 KCAL, for   8 unit cells


          TOTAL ENERGY            =     -85485.50282 EV
          ELECTRONIC ENERGY       = -423281814.30015 EV
          CORE-CORE REPULSION     =  423196328.79732 EV

          NO. OF FILLED LEVELS    =       1176
          MOLECULAR WEIGHT        =       6614.2414

          VOLUME OF UNIT CELL         7003.716 CUBIC ANGSTROMS
          DENSITY                        1.568 GRAMS/CC


          SCF CALCULATIONS        =          2
 
          WALL-CLOCK TIME         =  2 MINUTES AND 46.430 SECONDS
          COMPUTATION TIME        =  2 MINUTES AND 45.907 SECONDS





                  UNUSUALLY SHORT HYDROGEN BOND DISTANCES

  Hydrogen   R(H-A)  Atom A    R(H-B)  Atom B     R(A-B)      Loc-A      Loc-B
     120      1.28   O   93     1.26   N  158      2.53     ATP   3  C  ATP   4  D
      79      1.30   O   67     1.23   N  336      2.53     ATP   2  B  ATP   8  H
     165      1.34   N  110     1.20   O  147      2.53     ATP   3  C  ATP   4  D
     343      1.35   N   75     1.19   O  323      2.53     ATP   2  B  ATP   8  H
     297      1.48   O  270     1.20   N  457      2.68     ATP   7  G  BIS  21  U
     133      1.48   O  119     1.20   N  365      2.68     ATP   3  C  BIS  17  Q
     342      1.49   O  319     1.20   N  392      2.68     ATP   8  H  BIS  18  R
     540      1.50   O  241     1.19   N  528      2.68     ATP   6  F  BIS  24  X
 

           Empirical Formula: C160 H296 N64 O160 P24 Mg8  =   712 atoms


          NET CHARGE ON RESIDUES

      Residue         Charge  Anion or
                              Cation?
      ATP A   1       -1.830  ANION
      ATP B   2       -2.799  ANION
      ATP C   3       -2.272  ANION
      ATP D   4       -1.419  ANION
      ATP E   5       -1.808  ANION
      ATP F   6       -2.614  ANION
      ATP G   7       -2.624  ANION
      ATP H   8       -1.704  ANION
       MG I   9       +1.227  CATION
       MG J  10       +0.855  CATION
       MG K  11       +0.850  CATION
       MG L  12       +0.854  CATION
       MG M  13       +0.895  CATION
       MG N  14       +0.891  CATION
       MG O  15       +0.896  CATION
       MG P  16       +0.893  CATION
      BIS Q  17       +0.507  CATION
      BIS R  18       +0.512  CATION
      BIS S  19       +0.920  CATION
      BIS T  20       +0.934  CATION
      BIS U  21       +0.506  CATION
      BIS V  22       +0.936  CATION
      BIS W  23       +0.936  CATION
      BIS X  24       +0.892  CATION
      HOH Y  25       +0.137
      HOH Y  26       +0.172
      HOH Y  27       +0.159
      HOH Y  28       +0.134
      HOH Y  29       +0.163
      HOH Y  30       +0.156
      HOH Y  31       +0.131
      HOH Y  32       +0.151
      HOH Y  33       +0.163
      HOH Y  34       +0.143
      HOH Y  35       +0.161
      HOH Y  36       +0.156
      HOH Y  37       +0.139
      HOH Y  38       +0.165
      HOH Y  39       +0.161
      HOH Y  40       +0.126
      HOH Y  41       +0.144
      HOH Y  42       +0.152
      HOH Y  43       +0.130
      HOH Y  44       +0.150
      HOH Y  45       +0.162
      HOH Y  46       +0.144
      HOH Y  47       +0.159
      HOH Y  48       +0.158
 


                   No Salt Bridges Found



 **********************
 *                    *
 * JOB ENDED NORMALLY *
 *                    *
 **********************



 TOTAL JOB TIME:           167.18 SECONDS

 == MOPAC DONE ==
