 *******************************************************************************
 ** Site#: 37037        For non-commercial use only           Version 21.153W **
 *******************************************************************************
 ** Cite this program as: MOPAC2016, Version: 21.153W, James J. P. Stewart,   **
 ** Stewart Computational Chemistry, web: HTTP://OpenMOPAC.net. Days left: 364**
 *******************************************************************************
 **                                                                           **
 **                                MOPAC2016                                  **
 **                                                                           **
 *******************************************************************************

                              PM7 CALCULATION RESULTS

 *******************************************************************************
 *  CALCULATION DONE:                                Thu Jun  3 09:45:20 2021  *
 *  SYMMETRY   - SYMMETRY CONDITIONS TO BE IMPOSED
 *  T=         - A TIME OF 172800.0 SECONDS REQUESTED
 *  DUMP=N     - RESTART FILE WRITTEN EVERY 7200.0 SECONDS REQUESTED
 *******************************************************************************



                    PARAMETER DEPENDENCE DATA

        REFERENCE ATOM      FUNCTION NO.    DEPENDENT ATOM(S)
            2                  1               3

             DESCRIPTIONS OF THE FUNCTIONS USED
   1      BOND LENGTH    IS SET EQUAL TO THE REFERENCE BOND LENGTH   
 
 symmetry
 Optimize the transition state for narcissistic Cyclopentadiene proton shift

  ATOM    CHEMICAL      BOND LENGTH      BOND ANGLE     TWIST ANGLE 
 NUMBER    SYMBOL       (ANGSTROMS)      (DEGREES)       (DEGREES) 
   (I)                     NA:I           NB:NA:I       NC:NB:NA:I       NA    NB    NC 
     1       C          0.00000000       0.0000000       0.0000000        0     0     0
     2       H          1.40000000  *    0.0000000       0.0000000        1     0     0
     3       C          1.40000000      62.7000000  *    0.0000000        2     1     0
     4       C          1.40000000  *  110.1000000  *  -97.5000000  *     3     2     1
     5       H          1.00000000  *  109.4000000  * -120.2000000  *     1     2     3
     6       H          2.20000000  *  119.7000000  *  121.0000000  *     1     2     3
     7       H          2.20000000  *  132.1000000  *   60.5000000  *     4     3     2
     8       H          1.00000000  *  125.1000000  * -119.6000000  *     4     3     2
     9       H          1.00000000  *  110.1000000  *  119.8000000  *     3     2     1
    10       C          1.00000000  *   31.6000000  *  -70.8000000  *     6     1     2
    11       C          1.00000000  *   31.2000000  *    1.2000000  *     7     4     3
 


          CARTESIAN COORDINATES 

    NO.       ATOM           X           Y           Z

     1         C          0.0000      0.0000      0.0000
     2         H          1.4000      0.0000      0.0000
     3         C          0.7579      1.2441      0.0000
     4         C          0.6897      1.7503     -1.3035
     5         H         -0.3322     -0.4745      0.8152
     6         H         -1.0900     -0.9842     -1.6380
     7         H         -0.2555      0.9834     -3.1361
     8         H          1.0983      2.6106     -1.6083
     9         H          1.0150      1.7635      0.8149
    10         C         -0.5183     -0.2230     -1.3319
    11         C         -0.0642      0.8713     -2.1609

 General Reference for PM7:
 "Optimization of Parameters for Semiempirical Methods VI: More Modifications to the 
 NDDO Approximations and Re-optimization of Parameters", J. J. P. Stewart, J. Mol. Mod., 1:32, 19 (2013)
 https://link.springer.com/article/10.1007/s00894-012-1667-x

           Empirical Formula: C5 H6  =    11 atoms



      MOLECULAR POINT GROUP   :   C1  


      RHF CALCULATION, NO. OF DOUBLY OCCUPIED LEVELS = 13


          Geometry optimization using EF

          DIAGONAL MATRIX USED AS START HESSIAN

 CYCLE:     1 TIME:   0.020 TIME LEFT:  2.00D  GRAD.:   213.157 HEAT:  83.09143
 CYCLE:     2 TIME:   0.000 TIME LEFT:  2.00D  GRAD.:   184.007 HEAT:  80.20653
 CYCLE:     3 TIME:   0.000 TIME LEFT:  2.00D  GRAD.:    94.317 HEAT:  76.21192
 CYCLE:     4 TIME:   0.012 TIME LEFT:  2.00D  GRAD.:    55.248 HEAT:  73.18491
 CYCLE:     5 TIME:   0.000 TIME LEFT:  2.00D  GRAD.:    91.435 HEAT:  72.53460
 CYCLE:     6 TIME:   0.000 TIME LEFT:  2.00D  GRAD.:    65.559 HEAT:  71.92533
 CYCLE:     7 TIME:   0.000 TIME LEFT:  2.00D  GRAD.:    24.923 HEAT:  71.73115
 CYCLE:     8 TIME:   0.000 TIME LEFT:  2.00D  GRAD.:    26.160 HEAT:  71.68479
 CYCLE:     9 TIME:   0.020 TIME LEFT:  2.00D  GRAD.:    10.012 HEAT:  71.59196
 CYCLE:    10 TIME:   0.000 TIME LEFT:  2.00D  GRAD.:     8.986 HEAT:  71.59094
 CYCLE:    11 TIME:   0.000 TIME LEFT:  2.00D  GRAD.:     4.249 HEAT:  71.57393
 CYCLE:    12 TIME:   0.000 TIME LEFT:  2.00D  GRAD.:     4.433 HEAT:  71.54390
 CYCLE:    13 TIME:   0.000 TIME LEFT:  2.00D  GRAD.:     1.188 HEAT:  71.53395
 CYCLE:    14 TIME:   0.016 TIME LEFT:  2.00D  GRAD.:     0.792 HEAT:  71.53161

     GRADIENT =  0.79165 IS LESS THAN CUTOFF =  1.00000



 -------------------------------------------------------------------------------
 symmetry
 Optimize the transition state for narcissistic Cyclopentadiene proton shift



     GEOMETRY OPTIMISED USING EIGENVECTOR FOLLOWING (EF).     
     SCF FIELD WAS ACHIEVED                                   


                              PM7 CALCULATION
                                                       MOPAC2016 (Version: 21.153W)
                                                       Thu Jun  3 09:45:20 2021
                                                       No. of days remaining = 364




          FINAL HEAT OF FORMATION =         71.53161 KCAL/MOL =     299.28825 KJ/MOL


          TOTAL ENERGY            =       -692.36635 EV
          ELECTRONIC ENERGY       =      -2611.23163 EV  POINT GROUP:     C1  
          CORE-CORE REPULSION     =       1918.86528 EV
          COSMO AREA              =        107.28 SQUARE ANGSTROMS
          COSMO VOLUME            =         94.39 CUBIC ANGSTROMS

          GRADIENT NORM           =          0.79165 = 0.23869 PER ATOM
          IONIZATION POTENTIAL    =          9.038167 EV
          HOMO LUMO ENERGIES (EV) =         -9.038  0.621
          NO. OF FILLED LEVELS    =         13
          MOLECULAR WEIGHT        =         66.1024

          MOLECULAR DIMENSIONS (Angstroms)

            Atom       Atom       Distance
            H     8    H     5     4.35087
            H     9    H     6     4.12940
            H     7    H     2     1.46209


          SCF CALCULATIONS        =         18
 
          WALL-CLOCK TIME         =          0.094 SECONDS
          COMPUTATION TIME        =          0.250 SECONDS




  ATOM    CHEMICAL      BOND LENGTH      BOND ANGLE     TWIST ANGLE 
 NUMBER    SYMBOL       (ANGSTROMS)      (DEGREES)       (DEGREES) 
   (I)                     NA:I           NB:NA:I       NC:NB:NA:I       NA    NB    NC 
     1       C          0.00000000       0.0000000       0.0000000        0     0     0
     2       H          1.42520260  *    0.0000000       0.0000000        1     0     0
     3       C          1.42520260      63.0430827  *    0.0000000        2     1     0
     4       C          1.41506936  *  110.0553772  *  -97.4305471  *     3     2     1
     5       H          1.07102206  *  109.2603748  * -120.4452434  *     1     2     3
     6       H          2.20981182  *  119.6959750  *  121.0184532  *     1     2     3
     7       H          2.20355199  *  132.2624421  *   60.7213281  *     4     3     2
     8       H          1.07028264  *  125.1713145  * -119.0670400  *     4     3     2
     9       H          1.07095118  *  109.4127343  *  120.4252096  *     3     2     1
    10       C          1.06951899  *   31.5843064  *  -71.0939015  *     6     1     2
    11       C          1.07175229  *   31.3906123  *    1.1354272  *     7     4     3

                             CARTESIAN COORDINATES

   1    C        0.000000000     0.000000000     0.000000000
   2    H        1.425202597     0.000000000     0.000000000
   3    C        0.779129196     1.270350976     0.000000000
   4    C        0.712375539     1.780821174    -1.318099165
   5    H       -0.353289038    -0.512327165     0.871662765
   6    H       -1.094735576    -0.989191360    -1.645090504
   7    H       -0.243639740     1.024252017    -3.153658820
   8    H        1.161376595     2.694306012    -1.648929080
   9    H        1.073702575     1.819507056     0.870971043
  10    C       -0.485717336    -0.173527128    -1.316975398
  11    C       -0.040457134     0.897627337    -2.108988544


           Empirical Formula: C5 H6  =    11 atoms



      MOLECULAR POINT GROUP   :   C1  


                  EIGENVALUES  
 -31.18194 -24.50583 -23.94143 -18.65633 -18.63624 -17.56676 -14.99472 -13.41784
 -12.86807 -12.86338 -12.84886  -9.76407  -9.03817   0.62077   1.31161   2.99661
   3.73499   4.50949   4.99865   5.66155   5.83509   6.04586   6.17512   6.46264
   6.56473   6.60684


              NET ATOMIC CHARGES AND DIPOLE CONTRIBUTIONS

  ATOM NO.   TYPE          CHARGE      No. of ELECS.   s-Pop       p-Pop       
    1          C          -0.251459        4.2515     1.07496     3.17650
    2          H           0.292201        0.7078     0.70780
    3          C          -0.251803        4.2518     1.07498     3.17682
    4          C          -0.197200        4.1972     1.08181     3.11539
    5          H           0.163338        0.8367     0.83666
    6          H           0.151096        0.8489     0.84890
    7          H           0.148123        0.8519     0.85188
    8          H           0.151156        0.8488     0.84884
    9          H           0.163486        0.8365     0.83651
   10          C          -0.197086        4.1971     1.08154     3.11554
   11          C          -0.171853        4.1719     1.08532     3.08653
 DIPOLE           X         Y         Z       TOTAL
 POINT-CHG.     1.318    -0.806     0.969     1.823
 HYBRID         0.327    -0.201     0.158     0.415
 SUM            1.645    -1.007     1.127     2.234


          ATOMIC ORBITAL ELECTRON POPULATIONS

     Atom    s        px        py        pz   
    1  C   1.07496   0.98622   1.11507   1.07522
    2  H   0.70780
    3  C   1.07498   1.16297   0.93870   1.07515
    4  C   1.08181   1.06210   1.06513   0.98816
    5  H   0.83666
    6  H   0.84890
    7  H   0.85188
    8  H   0.84884
    9  H   0.83651
   10  C   1.08154   1.06578   1.06155   0.98821
   11  C   1.08532   1.02148   0.99810   1.06695
 *******************************************************************************
 ** Site#: 37037        For non-commercial use only           Version 21.153W **
 *******************************************************************************
 ** Cite this program as: MOPAC2016, Version: 21.153W, James J. P. Stewart,   **
 ** Stewart Computational Chemistry, web: HTTP://OpenMOPAC.net. Days left: 364**
 *******************************************************************************
 **                                                                           **
 **                                MOPAC2016                                  **
 **                                                                           **
 *******************************************************************************

                              PM7 CALCULATION RESULTS

 *******************************************************************************
 *  CALCULATION DONE:                                Thu Jun  3 09:45:20 2021  *
 *  OLDGEO     - PREVIOUS GEOMETRY TO BE USED
 *  FORCE      - FORCE CALCULATION SPECIFIED
 *  T=         - A TIME OF 172800.0 SECONDS REQUESTED
 *  DUMP=N     - RESTART FILE WRITTEN EVERY 7200.0 SECONDS REQUESTED
 *  ISOTOPE    - SAVE THE FORCE MATRIX FOR USE LATER
 *******************************************************************************
oldgeo force isotope
 Optimize the transition state for narcissistic Cyclopentadiene proton shift

  ATOM    CHEMICAL      BOND LENGTH      BOND ANGLE     TWIST ANGLE 
 NUMBER    SYMBOL       (ANGSTROMS)      (DEGREES)       (DEGREES) 
   (I)                     NA:I           NB:NA:I       NC:NB:NA:I       NA    NB    NC 
     1       C          0.00000000       0.0000000       0.0000000        0     0     0
     2       H          1.42520260  *    0.0000000       0.0000000        1     0     0
     3       C          1.42520260      63.0430827  *    0.0000000        2     1     0
     4       C          1.41506936  *  110.0553772  *  -97.4305471  *     3     2     1
     5       H          1.07102206  *  109.2603748  * -120.4452434  *     1     2     3
     6       H          2.20981182  *  119.6959750  *  121.0184532  *     1     2     3
     7       H          2.20355199  *  132.2624421  *   60.7213281  *     4     3     2
     8       H          1.07028264  *  125.1713145  * -119.0670400  *     4     3     2
     9       H          1.07095118  *  109.4127343  *  120.4252096  *     3     2     1
    10       C          1.06951899  *   31.5843064  *  -71.0939015  *     6     1     2
    11       C          1.07175229  *   31.3906123  *    1.1354272  *     7     4     3
 


          CARTESIAN COORDINATES 

    NO.       ATOM           X           Y           Z

     1         C          0.0000      0.0000      0.0000
     2         H          1.4252      0.0000      0.0000
     3         C          0.7791      1.2704      0.0000
     4         C          0.7124      1.7808     -1.3181
     5         H         -0.3533     -0.5123      0.8717
     6         H         -1.0947     -0.9892     -1.6451
     7         H         -0.2436      1.0243     -3.1537
     8         H          1.1614      2.6943     -1.6489
     9         H          1.0737      1.8195      0.8710
    10         C         -0.4857     -0.1735     -1.3170
    11         C         -0.0405      0.8976     -2.1090

 General Reference for PM7:
 "Optimization of Parameters for Semiempirical Methods VI: More Modifications to the 
 NDDO Approximations and Re-optimization of Parameters", J. J. P. Stewart, J. Mol. Mod., 1:32, 19 (2013)
 https://link.springer.com/article/10.1007/s00894-012-1667-x

           Empirical Formula: C5 H6  =    11 atoms



      MOLECULAR POINT GROUP   :   C1  


      RHF CALCULATION, NO. OF DOUBLY OCCUPIED LEVELS = 13



          HEAT OF FORMATION =      71.531609 KCALS/MOLE


          CARTESIAN COORDINATE DERIVATIVES

   NUMBER  ATOM         X            Y            Z

     1       C     -0.028626    -0.290703    -0.426452
     2       H     -0.298094    -0.071335    -0.423369
     3       C      0.374654     0.113517     0.458965
     4       C     -0.152373    -0.288462    -0.296518
     5       H     -0.121655     0.013121    -0.024099
     6       H      0.224309     0.198912     0.392669
     7       H      0.250059     0.162689     0.219786
     8       H     -0.014183     0.119041     0.016972
     9       H     -0.149729     0.213784    -0.013899
    10       C     -0.008578    -0.067428     0.152143
    11       C     -0.075786    -0.103139    -0.056201
 


          GRADIENT NORM =   1.27508


          TIME FOR SCF CALCULATION =    0.02

          TIME FOR DERIVATIVES     =    0.00

          MOLECULAR WEIGHT =   66.10



          ROTATIONAL CONSTANTS IN CM(-1)

          A =    0.28381474   B =    0.28296459   C =    0.14538565



           PRINCIPAL MOMENTS OF INERTIA IN UNITS OF 10**(-40)*GRAM-CM**2

          A =       98.6304   B =       98.9268   C =      192.5415


          ORIENTATION OF MOLECULE IN FORCE CALCULATION

    NO.       ATOM         X         Y         Z

     1          C      -0.2054   -0.7475    0.9338
     2          H       1.2198   -0.7475    0.9338
     3          C       0.5737    0.5228    0.9338
     4          C       0.5070    1.0333   -0.3843
     5          H      -0.5587   -1.2599    1.8054
     6          H      -1.3002   -1.7367   -0.7113
     7          H      -0.4491    0.2767   -2.2199
     8          H       0.9560    1.9468   -0.7152
     9          H       0.8683    1.0720    1.8047
    10          C      -0.6911   -0.9211   -0.3832
    11          C      -0.2459    0.1501   -1.1752


    FIRST DERIVATIVES WILL BE USED IN THE CALCULATION OF SECOND DERIVATIVES

          ESTIMATED TIME TO COMPLETE CALCULATION =        1.29 SECONDS

    FOR POINT-GROUP C1   THERE ARE   1 UNIQUE SYMMETRY FUNCTIONS.

 STEP:   1 TIME =     0.00 SECS, INTEGRAL =      0.00 TIME LEFT: 172799.98
 STEP:   2 TIME =     0.00 SECS, INTEGRAL =      0.00 TIME LEFT: 172799.98
 STEP:   3 TIME =     0.00 SECS, INTEGRAL =      0.00 TIME LEFT: 172799.98
 STEP:   4 TIME =     0.00 SECS, INTEGRAL =      0.00 TIME LEFT: 172799.98
 STEP:   5 TIME =     0.01 SECS, INTEGRAL =      0.01 TIME LEFT: 172799.97
 STEP:   6 TIME =     0.00 SECS, INTEGRAL =      0.01 TIME LEFT: 172799.97
 STEP:   7 TIME =     0.00 SECS, INTEGRAL =      0.01 TIME LEFT: 172799.97
 STEP:   8 TIME =     0.02 SECS, INTEGRAL =      0.03 TIME LEFT: 172799.95
 STEP:   9 TIME =     0.00 SECS, INTEGRAL =      0.03 TIME LEFT: 172799.95
 STEP:  10 TIME =     0.01 SECS, INTEGRAL =      0.04 TIME LEFT: 172799.94
 STEP:  11 TIME =     0.00 SECS, INTEGRAL =      0.04 TIME LEFT: 172799.94
 STEP:  12 TIME =     0.00 SECS, INTEGRAL =      0.04 TIME LEFT: 172799.94
 STEP:  13 TIME =     0.02 SECS, INTEGRAL =      0.06 TIME LEFT: 172799.92
 STEP:  14 TIME =     0.00 SECS, INTEGRAL =      0.06 TIME LEFT: 172799.92
 STEP:  15 TIME =     0.00 SECS, INTEGRAL =      0.06 TIME LEFT: 172799.92
 STEP:  16 TIME =     0.02 SECS, INTEGRAL =      0.08 TIME LEFT: 172799.90
 STEP:  17 TIME =     0.00 SECS, INTEGRAL =      0.08 TIME LEFT: 172799.90
 STEP:  18 TIME =     0.00 SECS, INTEGRAL =      0.08 TIME LEFT: 172799.90
 STEP:  19 TIME =     0.01 SECS, INTEGRAL =      0.09 TIME LEFT: 172799.89
 STEP:  20 TIME =     0.00 SECS, INTEGRAL =      0.09 TIME LEFT: 172799.89
 STEP:  21 TIME =     0.00 SECS, INTEGRAL =      0.09 TIME LEFT: 172799.89
 STEP:  22 TIME =     0.00 SECS, INTEGRAL =      0.09 TIME LEFT: 172799.89
 STEP:  23 TIME =     0.00 SECS, INTEGRAL =      0.09 TIME LEFT: 172799.89
 STEP:  24 TIME =     0.02 SECS, INTEGRAL =      0.11 TIME LEFT: 172799.88
 STEP:  25 TIME =     0.00 SECS, INTEGRAL =      0.11 TIME LEFT: 172799.88
 STEP:  26 TIME =     0.00 SECS, INTEGRAL =      0.11 TIME LEFT: 172799.88
 STEP:  27 TIME =     0.01 SECS, INTEGRAL =      0.12 TIME LEFT: 172799.86
 STEP:  28 TIME =     0.00 SECS, INTEGRAL =      0.12 TIME LEFT: 172799.86
 STEP:  29 TIME =     0.00 SECS, INTEGRAL =      0.12 TIME LEFT: 172799.86
 STEP:  30 TIME =     0.02 SECS, INTEGRAL =      0.14 TIME LEFT: 172799.84
 STEP:  31 TIME =     0.00 SECS, INTEGRAL =      0.14 TIME LEFT: 172799.84
 STEP:  32 TIME =     0.00 SECS, INTEGRAL =      0.14 TIME LEFT: 172799.84
 STEP:  33 TIME =     0.01 SECS, INTEGRAL =      0.15 TIME LEFT: 172799.83

(To convert to Hartree/Bohr^2, multiply by (10^(-21) x N x a0^2)/(4.184 x 627.51) =  0.0642)


           FORCE MATRIX IN MILLIDYNES/ANGSTROM


                  C  1       H  2       C  3       C  4       H  5       H  6
 ------------------------------------------------------------------------------
     C    1  12.926999
     H    2   2.437267   2.833495
     C    3   5.135622   2.437671  12.901979
     C    4   2.021526   1.297856   5.571810  14.990841
     H    5   3.561602   0.303113   0.570103   0.108243   4.399246
     H    6   0.680786   0.023429   0.063152   0.079675   0.016820   4.454763
     H    7   0.080974   0.013990   0.080984   0.674706   0.007616   0.019507
     H    8   0.062951   0.023409   0.677660   3.607400   0.012249   0.006343
     H    9   0.567317   0.302291   3.562623   0.655224   0.014702   0.012077
     C   10   5.600867   1.298148   2.019256   2.240963   0.656704   3.612876
     C   11   2.396675   1.010599   2.393592   5.987710   0.115506   0.668187


                  H  7       H  8       H  9       C 10       C 11
 ------------------------------------------------------------------
     H    7   4.449653
     H    8   0.019540   4.447447
     H    9   0.007665   0.016504   4.399104
     C   10   0.671096   0.079387   0.106153  15.004203
     C   11   3.607939   0.668681   0.113666   5.976941  15.176675


          HEAT OF FORMATION =      71.531609 KCALS/MOLE

          ZERO POINT ENERGY      53.543 KCAL/MOL

         NOTE: SYSTEM IS NOT A GROUND STATE, THEREFORE ZERO POINT
         ENERGY IS NOT MEANINGFULL. ZERO POINT ENERGY PRINTED
         DOES NOT INCLUDE THE  1 IMAGINARY FREQUENCIES


           NORMAL COORDINATE ANALYSIS (Total motion = 1 Angstrom)


   Root No.       1         2         3         4         5         6         7         8

                 1 A       2 A       3 A       4 A       5 A       6 A       7 A       8 A   

               -1643.5     500.9     501.6     774.1     803.1     812.1     890.2     910.7
  
           1   -0.0657   -0.0416    0.0360    0.0187    0.0280   -0.0091    0.0229    0.0062
           2    0.0061    0.0287   -0.0251   -0.0112    0.0758   -0.0159   -0.0174   -0.0109
           3   -0.0162    0.0112   -0.0093    0.0014   -0.0854   -0.0447   -0.0083   -0.0012
           4    0.3145   -0.0403    0.0308    0.0055    0.0406   -0.0152    0.0115    0.0255
           5    0.5129   -0.0386    0.0706   -0.0029    0.0660    0.0102   -0.0082    0.0408
           6   -0.0002    0.0788    0.0595    0.1752   -0.0020    0.0013    0.0965    0.0019
           7    0.0352    0.0221   -0.0553    0.0190    0.0542    0.0110    0.0264   -0.0111
           8   -0.0558   -0.0117    0.0299   -0.0113    0.0593    0.0160   -0.0125   -0.0001
           9    0.0163   -0.0051    0.0138    0.0019    0.0861   -0.0436   -0.0083    0.0008
          10   -0.0098    0.0146    0.0589   -0.0052   -0.0190    0.0474   -0.0188   -0.0411
          11   -0.0038   -0.0105   -0.0344   -0.0179   -0.0595    0.0677    0.0112    0.0261
          12   -0.0267   -0.0046   -0.0180   -0.0011    0.0575   -0.0071    0.0047    0.0069
          13    0.0605   -0.1348    0.0807   -0.1216    0.0127   -0.0558   -0.0937   -0.1000
          14   -0.0468    0.0985   -0.0828    0.0832    0.0661    0.1140    0.0961    0.0754
          15   -0.0041    0.0142   -0.0239    0.0016   -0.0937    0.0138    0.0126    0.0069
          16    0.0064    0.1783   -0.0074   -0.1208   -0.0597   -0.1155    0.1061   -0.2281
          17   -0.0018   -0.1127    0.0065    0.0917   -0.0607   -0.0008   -0.0669    0.1479
          18   -0.0084   -0.0515    0.0021    0.0459    0.0240   -0.0392   -0.0340    0.0652
          19   -0.0028   -0.1459   -0.1103   -0.0956    0.0333   -0.0400    0.2021    0.0067
          20   -0.0046    0.0903    0.0667    0.0590    0.0509    0.0248   -0.1240   -0.0114
          21   -0.0001    0.0382    0.0287    0.0041   -0.0010    0.1107   -0.0549   -0.0027
          22   -0.0044    0.0474    0.1788   -0.1343   -0.0224   -0.0507    0.0949    0.2434
          23    0.0049   -0.0298   -0.1058    0.0640   -0.0841    0.1011   -0.0567   -0.1410
          24    0.0081   -0.0138   -0.0509    0.0450   -0.0233   -0.0400   -0.0307   -0.0681
          25   -0.0684    0.0563   -0.1804   -0.1279    0.0589   -0.1258   -0.1343    0.1059
          26    0.0327   -0.0084    0.0845    0.0701    0.0395   -0.0020    0.0424   -0.0528
          27    0.0039   -0.0178    0.0211    0.0019    0.0933    0.0150    0.0130   -0.0059
          28    0.0011    0.0578   -0.0021    0.0139   -0.0441   -0.0390   -0.0207    0.0412
          29   -0.0105   -0.0366    0.0033    0.0121   -0.0428   -0.0738    0.0131   -0.0242
          30    0.0267   -0.0180    0.0010   -0.0016   -0.0572   -0.0080    0.0050   -0.0067
          31    0.0136   -0.0496   -0.0369    0.0034   -0.0244    0.0236   -0.0254    0.0004
          32    0.0222    0.0301    0.0229   -0.0023   -0.0393   -0.0148    0.0154    0.0041
          33   -0.0001    0.0125    0.0094   -0.0235   -0.0007    0.0982    0.0067    0.0004


   Root No.       9        10        11        12        13        14        15        16

                 9 A      10 A      11 A      12 A      13 A      14 A      15 A      16 A   

                 988.4    1013.3    1034.6    1116.9    1128.1    1174.1    1176.2    1249.2
  
           1   -0.0180    0.0002    0.0345    0.0205   -0.0031   -0.0005    0.0029    0.0385
           2   -0.0202    0.0241   -0.0354    0.0453   -0.0050   -0.0085   -0.0051    0.0680
           3    0.0005    0.0016   -0.0106   -0.0224    0.0180    0.0118    0.0012   -0.0078
           4   -0.0390    0.0159    0.0761    0.0246   -0.0010    0.0107    0.0005    0.0693
           5    0.0236   -0.0122    0.1237   -0.0148   -0.0023    0.0187   -0.0024   -0.0424
           6    0.2315   -0.1320   -0.0019    0.2014    0.0000   -0.0148   -0.1657    0.0229
           7    0.0099   -0.0201   -0.0476   -0.0313   -0.0034   -0.0055    0.0068   -0.0432
           8    0.0253   -0.0115    0.0143   -0.0389   -0.0056   -0.0030    0.0002   -0.0651
           9    0.0005    0.0014    0.0106   -0.0223   -0.0185   -0.0111    0.0031   -0.0078
          10    0.0099    0.0366    0.0208    0.0024   -0.0127    0.0028    0.0004   -0.0116
          11   -0.0009   -0.0225   -0.0162    0.0206   -0.0187    0.0012    0.0007   -0.0153
          12   -0.0085   -0.0062   -0.0081    0.0020    0.0159   -0.0002    0.0017    0.0050
          13    0.0269    0.0201   -0.1672    0.0704    0.1531   -0.0725   -0.1977   -0.0413
          14   -0.1693    0.0549    0.1868   -0.0244    0.1122   -0.0495   -0.1112   -0.0333
          15   -0.0702    0.0286    0.0389   -0.0353    0.1471   -0.0426   -0.1432   -0.0929
          16   -0.0519   -0.1195    0.0688    0.0098   -0.0281    0.0096    0.0026    0.0116
          17    0.0448    0.0612   -0.0378   -0.1089    0.0251   -0.0919   -0.0393    0.0996
          18   -0.0409    0.0825   -0.0424    0.2072   -0.0873    0.2170    0.0911   -0.1801
          19    0.1054    0.1848    0.0044   -0.0076    0.1144    0.1757   -0.0109    0.0132
          20   -0.0650   -0.1138    0.0025    0.0051    0.1861    0.2850   -0.0241   -0.0045
          21   -0.0184   -0.0554   -0.0006   -0.0005    0.0001    0.0009    0.0119    0.0439
          22   -0.0647   -0.1105   -0.0682    0.1005    0.0370   -0.0804    0.0480   -0.0843
          23    0.0268    0.0796    0.0467    0.0404   -0.0131   -0.0303    0.0202   -0.0559
          24   -0.0396    0.0826    0.0448    0.2023    0.0908   -0.2003    0.1196   -0.1814
          25    0.1630   -0.0469    0.2406    0.0536    0.0304   -0.0096    0.0100    0.0106
          26    0.0539   -0.0409   -0.0643   -0.0550    0.1886   -0.0487    0.2355    0.0499
          27   -0.0706    0.0298   -0.0380   -0.0331   -0.1491    0.0199   -0.1471   -0.0918
          28    0.0051    0.0367   -0.0229   -0.0170   -0.0110   -0.0001   -0.0003    0.0084
          29   -0.0083   -0.0223    0.0105   -0.0112   -0.0199    0.0028   -0.0009    0.0173
          30   -0.0086   -0.0063    0.0079    0.0022   -0.0156    0.0003    0.0017    0.0054
          31   -0.0185   -0.0487    0.0023    0.0043    0.0046    0.0004    0.0025    0.0097
          32    0.0114    0.0297    0.0050   -0.0026    0.0075    0.0005   -0.0016   -0.0061
          33    0.0167    0.0066    0.0001   -0.0050    0.0000    0.0008    0.0119    0.0455


   Root No.      17        18        19        20        21        22        23        24

                17 A      18 A      19 A      20 A      21 A      22 A      23 A      24 A   

                1296.7    1436.4    1443.5    1539.6    1552.6    2163.1    2778.3    2779.8
  
           1    0.0137    0.0373   -0.0134    0.0257   -0.0122   -0.0459   -0.0115    0.0065
           2    0.0164    0.0195   -0.0071    0.0180    0.0046   -0.0143   -0.0180    0.0101
           3    0.0194    0.0715   -0.0953    0.0592   -0.0537    0.0007    0.0276   -0.0220
           4    0.0165    0.0213   -0.1367    0.0206    0.0023    0.7166   -0.0070    0.0082
           5    0.0273   -0.0602   -0.2049    0.0325   -0.0043   -0.4393   -0.0116   -0.0051
           6   -0.0002    0.0054   -0.0012   -0.0003   -0.0092    0.0504   -0.0000   -0.0031
           7    0.0085   -0.0005    0.0001    0.0034   -0.0101   -0.0080   -0.0108   -0.0060
           8    0.0199   -0.0445    0.0015    0.0309    0.0051    0.0474   -0.0186   -0.0102
           9   -0.0196    0.0976    0.0631   -0.0625   -0.0465    0.0006   -0.0278   -0.0219
          10   -0.0088    0.0297   -0.0492   -0.0302    0.0534   -0.0023   -0.0010    0.0037
          11   -0.0085    0.0792   -0.0375   -0.0672    0.0333    0.0015   -0.0007    0.0078
          12   -0.0203   -0.0577   -0.0975    0.0309    0.1222   -0.0032   -0.0029   -0.0037
          13   -0.0925   -0.0463    0.0421   -0.0679   -0.0322   -0.0124    0.1469   -0.1053
          14   -0.0872   -0.0414    0.0468   -0.0758   -0.0242   -0.0041    0.2155   -0.1540
          15   -0.0844    0.0187   -0.0166   -0.0354   -0.0690   -0.0001   -0.3670    0.2625
          16   -0.0039   -0.0555    0.0159   -0.0356   -0.0062   -0.0041   -0.0007    0.0629
          17    0.0651   -0.0378    0.0085   -0.0695    0.0375   -0.0075   -0.0002    0.0837
          18   -0.1678   -0.1038    0.0129    0.0236   -0.1181    0.0087    0.0001    0.0345
          19    0.0898   -0.0035    0.0603   -0.0800   -0.0140   -0.0000    0.0007    0.0073
          20    0.1463    0.0252    0.0924   -0.1284    0.0176    0.0000    0.0004   -0.0045
          21    0.0000   -0.0759    0.0143   -0.0044   -0.0852   -0.0027    0.0017    0.0374
          22    0.0608    0.0088   -0.0027   -0.0490   -0.0315    0.0047    0.0010   -0.0543
          23    0.0267    0.0690   -0.0073   -0.0634   -0.0047    0.0070    0.0011   -0.1110
          24    0.1697   -0.1007    0.0265   -0.0355   -0.1159    0.0085   -0.0007    0.0407
          25   -0.0355    0.0221    0.0149   -0.0356    0.0111   -0.0018    0.1258    0.0884
          26   -0.1209    0.0762    0.0332   -0.0900    0.0500    0.0128    0.2312    0.1631
          27    0.0840    0.0220    0.0091    0.0294   -0.0724    0.0001    0.3698    0.2605
          28   -0.0036   -0.0567    0.0105   -0.0471   -0.0000   -0.0024   -0.0000   -0.0044
          29   -0.0118   -0.0771   -0.0342   -0.0632   -0.0557    0.0014   -0.0010   -0.0056
          30    0.0205   -0.0234    0.1128   -0.0206    0.1253   -0.0033    0.0029   -0.0032
          31   -0.0127   -0.0054    0.0525    0.0690   -0.0252   -0.0004    0.0010   -0.0004
          32   -0.0207    0.0203    0.0800    0.1147    0.0066    0.0002    0.0016    0.0003
          33   -0.0001   -0.0683    0.0130   -0.0050   -0.1079   -0.0002   -0.0001   -0.0023


   Root No.      25        26        27

                25 A      26 A      27 A   

                2790.9    2794.4    2805.5
  
           1    0.0019   -0.0005   -0.0031
           2    0.0027   -0.0003   -0.0052
           3   -0.0024   -0.0019    0.0074
           4    0.0020    0.0010   -0.0016
           5   -0.0008    0.0014    0.0011
           6   -0.0005   -0.0003    0.0024
           7   -0.0016   -0.0005    0.0031
           8   -0.0031   -0.0011    0.0049
           9   -0.0019   -0.0003    0.0074
          10   -0.0095   -0.0117    0.0077
          11   -0.0182   -0.0247    0.0159
          12    0.0042    0.0100   -0.0059
          13   -0.0160   -0.0037    0.0333
          14   -0.0241   -0.0055    0.0493
          15    0.0415    0.0094   -0.0837
          16   -0.0687    0.2348    0.1521
          17   -0.0921    0.3142    0.2035
          18   -0.0375    0.1267    0.0822
          19    0.0835   -0.0222    0.0436
          20   -0.0516    0.0137   -0.0269
          21    0.4273   -0.1136    0.2232
          22    0.1125    0.1564   -0.0909
          23    0.2285    0.3179   -0.1849
          24   -0.0830   -0.1150    0.0670
          25    0.0133    0.0032   -0.0284
          26    0.0238    0.0061   -0.0517
          27    0.0389    0.0092   -0.0828
          28    0.0054   -0.0181   -0.0130
          29    0.0081   -0.0241   -0.0171
          30    0.0005   -0.0098   -0.0071
          31   -0.0069   -0.0001   -0.0039
          32    0.0035   -0.0041    0.0022
          33   -0.0329    0.0090   -0.0192


           MASS-WEIGHTED COORDINATE ANALYSIS (NORMAL COORDINATES)


   Root No.       1         2         3         4         5         6         7         8

                 1 A       2 A       3 A       4 A       5 A       6 A       7 A       8 A   

               -1643.5     500.9     501.6     774.1     803.1     812.1     890.2     910.7
  
           1   -0.3170   -0.2774    0.2335    0.1605    0.1270   -0.0485    0.1845    0.0422
           2    0.0295    0.1914   -0.1628   -0.0961    0.3442   -0.0843   -0.1401   -0.0743
           3   -0.0780    0.0748   -0.0606    0.0117   -0.3879   -0.2376   -0.0669   -0.0081
           4    0.4397   -0.0780    0.0579    0.0138    0.0534   -0.0235    0.0268    0.0506
           5    0.7172   -0.0747    0.1327   -0.0072    0.0868    0.0157   -0.0192    0.0810
           6   -0.0003    0.1523    0.1117    0.4350   -0.0027    0.0020    0.2256    0.0037
           7    0.1697    0.1475   -0.3586    0.1632    0.2460    0.0583    0.2132   -0.0757
           8   -0.2691   -0.0783    0.1941   -0.0973    0.2691    0.0850   -0.1007   -0.0007
           9    0.0787   -0.0344    0.0898    0.0162    0.3909   -0.2318   -0.0669    0.0056
          10   -0.0473    0.0971    0.3822   -0.0446   -0.0861    0.2522   -0.1520   -0.2814
          11   -0.0185   -0.0698   -0.2231   -0.1533   -0.2702    0.3599    0.0901    0.1788
          12   -0.1289   -0.0308   -0.1168   -0.0093    0.2609   -0.0379    0.0376    0.0470
          13    0.0846   -0.2606    0.1516   -0.3019    0.0166   -0.0860   -0.2189   -0.1984
          14   -0.0654    0.1905   -0.1556    0.2065    0.0870    0.1757    0.2246    0.1496
          15   -0.0057    0.0274   -0.0449    0.0039   -0.1233    0.0212    0.0294    0.0137
          16    0.0090    0.3446   -0.0138   -0.2999   -0.0785   -0.1780    0.2478   -0.4523
          17   -0.0024   -0.2178    0.0121    0.2276   -0.0798   -0.0012   -0.1564    0.2933
          18   -0.0117   -0.0995    0.0040    0.1139    0.0316   -0.0604   -0.0794    0.1292
          19   -0.0039   -0.2820   -0.2072   -0.2374    0.0437   -0.0617    0.4724    0.0132
          20   -0.0064    0.1745    0.1253    0.1465    0.0669    0.0382   -0.2897   -0.0227
          21   -0.0001    0.0738    0.0539    0.0102   -0.0013    0.1706   -0.1283   -0.0054
          22   -0.0062    0.0916    0.3359   -0.3333   -0.0295   -0.0781    0.2217    0.4826
          23    0.0068   -0.0576   -0.1987    0.1589   -0.1107    0.1558   -0.1324   -0.2796
          24    0.0114   -0.0267   -0.0957    0.1116   -0.0307   -0.0616   -0.0717   -0.1351
          25   -0.0957    0.1088   -0.3390   -0.3176    0.0774   -0.1938   -0.3139    0.2100
          26    0.0458   -0.0163    0.1588    0.1741    0.0520   -0.0030    0.0991   -0.1048
          27    0.0054   -0.0343    0.0397    0.0047    0.1228    0.0232    0.0303   -0.0117
          28    0.0051    0.3854   -0.0138    0.1191   -0.2003   -0.2075   -0.1674    0.2819
          29   -0.0506   -0.2440    0.0215    0.1038   -0.1945   -0.3924    0.1056   -0.1660
          30    0.1288   -0.1203    0.0066   -0.0139   -0.2598   -0.0426    0.0406   -0.0458
          31    0.0656   -0.3307   -0.2391    0.0296   -0.1107    0.1254   -0.2047    0.0024
          32    0.1072    0.2011    0.1487   -0.0198   -0.1782   -0.0787    0.1245    0.0283
          33   -0.0003    0.0837    0.0611   -0.2016   -0.0030    0.5224    0.0539    0.0028


   Root No.       9        10        11        12        13        14        15        16

                 9 A      10 A      11 A      12 A      13 A      14 A      15 A      16 A   

                 988.4    1013.3    1034.6    1116.9    1128.1    1174.1    1176.2    1249.2
  
           1   -0.1453    0.0015    0.2405    0.1428   -0.0235   -0.0032    0.0217    0.2428
           2   -0.1630    0.1758   -0.2469    0.3159   -0.0372   -0.0609   -0.0386    0.4288
           3    0.0041    0.0114   -0.0738   -0.1565    0.1354    0.0842    0.0091   -0.0491
           4   -0.0911    0.0335    0.1539    0.0498   -0.0022    0.0222    0.0010    0.1265
           5    0.0552   -0.0258    0.2502   -0.0300   -0.0050    0.0387   -0.0053   -0.0774
           6    0.5404   -0.2784   -0.0038    0.4073    0.0000   -0.0307   -0.3639    0.0418
           7    0.0797   -0.1463   -0.3320   -0.2184   -0.0253   -0.0393    0.0517   -0.2722
           8    0.2035   -0.0835    0.1001   -0.2713   -0.0420   -0.0213    0.0016   -0.4101
           9    0.0043    0.0099    0.0739   -0.1558   -0.1390   -0.0794    0.0237   -0.0493
          10    0.0796    0.2663    0.1450    0.0170   -0.0955    0.0199    0.0033   -0.0732
          11   -0.0075   -0.1640   -0.1127    0.1439   -0.1406    0.0085    0.0056   -0.0961
          12   -0.0688   -0.0454   -0.0564    0.0138    0.1193   -0.0011    0.0131    0.0317
          13    0.0628    0.0425   -0.3381    0.1424    0.3334   -0.1502   -0.4343   -0.0755
          14   -0.3953    0.1157    0.3778   -0.0493    0.2443   -0.1025   -0.2442   -0.0608
          15   -0.1638    0.0603    0.0786   -0.0713    0.3204   -0.0883   -0.3146   -0.1697
          16   -0.1212   -0.2521    0.1390    0.0199   -0.0612    0.0198    0.0057    0.0212
          17    0.1045    0.1291   -0.0764   -0.2202    0.0547   -0.1904   -0.0862    0.1819
          18   -0.0954    0.1739   -0.0856    0.4190   -0.1900    0.4497    0.2000   -0.3289
          19    0.2461    0.3897    0.0089   -0.0154    0.2491    0.3641   -0.0240    0.0240
          20   -0.1518   -0.2401    0.0050    0.0103    0.4053    0.5904   -0.0529   -0.0081
          21   -0.0429   -0.1168   -0.0013   -0.0010    0.0003    0.0019    0.0261    0.0802
          22   -0.1511   -0.2330   -0.1379    0.2033    0.0805   -0.1665    0.1053   -0.1540
          23    0.0625    0.1680    0.0943    0.0816   -0.0285   -0.0627    0.0443   -0.1021
          24   -0.0924    0.1742    0.0907    0.4090    0.1977   -0.4150    0.2626   -0.3312
          25    0.3805   -0.0989    0.4864    0.1084    0.0662   -0.0198    0.0220    0.0194
          26    0.1259   -0.0862   -0.1300   -0.1112    0.4107   -0.1009    0.5173    0.0911
          27   -0.1649    0.0629   -0.0768   -0.0670   -0.3248    0.0412   -0.3232   -0.1676
          28    0.0408    0.2673   -0.1600   -0.1184   -0.0830   -0.0004   -0.0020    0.0527
          29   -0.0669   -0.1624    0.0735   -0.0783   -0.1497    0.0199   -0.0066    0.1088
          30   -0.0690   -0.0460    0.0553    0.0156   -0.1170    0.0024    0.0126    0.0337
          31   -0.1493   -0.3545    0.0159    0.0297    0.0345    0.0030    0.0192    0.0609
          32    0.0915    0.2165    0.0351   -0.0178    0.0562    0.0039   -0.0120   -0.0384
          33    0.1349    0.0480    0.0006   -0.0346    0.0001    0.0059    0.0901    0.2866


   Root No.      17        18        19        20        21        22        23        24

                17 A      18 A      19 A      20 A      21 A      22 A      23 A      24 A   

                1296.7    1436.4    1443.5    1539.6    1552.6    2163.1    2778.3    2779.8
  
           1    0.1103    0.1701   -0.0562    0.1205   -0.0499   -0.1810   -0.0599    0.0442
           2    0.1321    0.0889   -0.0300    0.0843    0.0188   -0.0566   -0.0936    0.0693
           3    0.1567    0.3261   -0.4002    0.2778   -0.2196    0.0026    0.1438   -0.1507
           4    0.0386    0.0282   -0.1664    0.0280    0.0027    0.8192   -0.0106    0.0162
           5    0.0638   -0.0796   -0.2494    0.0441   -0.0051   -0.5022   -0.0175   -0.0101
           6   -0.0004    0.0072   -0.0014   -0.0003   -0.0109    0.0576   -0.0000   -0.0061
           7    0.0690   -0.0021    0.0005    0.0159   -0.0414   -0.0318   -0.0565   -0.0411
           8    0.1607   -0.2029    0.0064    0.1452    0.0211    0.1870   -0.0971   -0.0702
           9   -0.1583    0.4454    0.2653   -0.2935   -0.1901    0.0025   -0.1449   -0.1499
          10   -0.0713    0.1355   -0.2066   -0.1415    0.2187   -0.0091   -0.0050    0.0252
          11   -0.0686    0.3614   -0.1577   -0.3156    0.1363    0.0059   -0.0034    0.0533
          12   -0.1641   -0.2632   -0.4095    0.1449    0.5001   -0.0128   -0.0149   -0.0256
          13   -0.2161   -0.0611    0.0513   -0.0923   -0.0382   -0.0141    0.2219   -0.2093
          14   -0.2039   -0.0547    0.0570   -0.1031   -0.0286   -0.0047    0.3255   -0.3060
          15   -0.1973    0.0247   -0.0202   -0.0481   -0.0817   -0.0001   -0.5542    0.5215
          16   -0.0092   -0.0733    0.0194   -0.0484   -0.0074   -0.0047   -0.0011    0.1250
          17    0.1521   -0.0499    0.0103   -0.0945    0.0445   -0.0085   -0.0003    0.1664
          18   -0.3922   -0.1372    0.0157    0.0322   -0.1400    0.0099    0.0001    0.0685
          19    0.2099   -0.0046    0.0734   -0.1088   -0.0166   -0.0000    0.0011    0.0144
          20    0.3419    0.0333    0.1125   -0.1745    0.0208    0.0000    0.0006   -0.0089
          21    0.0000   -0.1003    0.0174   -0.0060   -0.1010   -0.0031    0.0026    0.0743
          22    0.1422    0.0116   -0.0033   -0.0666   -0.0373    0.0054    0.0015   -0.1080
          23    0.0623    0.0912   -0.0088   -0.0862   -0.0056    0.0079    0.0016   -0.2205
          24    0.3966   -0.1331    0.0323   -0.0482   -0.1373    0.0097   -0.0011    0.0809
          25   -0.0830    0.0292    0.0181   -0.0484    0.0131   -0.0020    0.1901    0.1757
          26   -0.2826    0.1008    0.0404   -0.1223    0.0593    0.0147    0.3493    0.3240
          27    0.1963    0.0291    0.0111    0.0400   -0.0858    0.0001    0.5585    0.5176
          28   -0.0289   -0.2588    0.0441   -0.2210   -0.0001   -0.0094   -0.0002   -0.0300
          29   -0.0956   -0.3520   -0.1438   -0.2968   -0.2280    0.0056   -0.0053   -0.0386
          30    0.1657   -0.1069    0.4738   -0.0967    0.5126   -0.0129    0.0149   -0.0222
          31   -0.1029   -0.0244    0.2204    0.3236   -0.1031   -0.0016    0.0050   -0.0024
          32   -0.1673    0.0927    0.3362    0.5382    0.0271    0.0009    0.0084    0.0021
          33   -0.0010   -0.3116    0.0548   -0.0236   -0.4416   -0.0009   -0.0006   -0.0156


   Root No.      25        26        27

                25 A      26 A      27 A   

                2790.9    2794.4    2805.5
  
           1    0.0117   -0.0032   -0.0231
           2    0.0167   -0.0020   -0.0390
           3   -0.0149   -0.0111    0.0557
           4    0.0036    0.0017   -0.0034
           5   -0.0015    0.0024    0.0023
           6   -0.0008   -0.0005    0.0053
           7   -0.0097   -0.0029    0.0237
           8   -0.0192   -0.0067    0.0372
           9   -0.0119   -0.0017    0.0559
          10   -0.0593   -0.0690    0.0580
          11   -0.1142   -0.1447    0.1205
          12    0.0265    0.0588   -0.0448
          13   -0.0290   -0.0063    0.0730
          14   -0.0437   -0.0093    0.1080
          15    0.0753    0.0160   -0.1833
          16   -0.1247    0.3992    0.3331
          17   -0.1671    0.5343    0.4456
          18   -0.0679    0.2155    0.1799
          19    0.1515   -0.0378    0.0955
          20   -0.0936    0.0233   -0.0590
          21    0.7753   -0.1932    0.4888
          22    0.2041    0.2659   -0.1990
          23    0.4146    0.5407   -0.4049
          24   -0.1506   -0.1955    0.1467
          25    0.0241    0.0054   -0.0622
          26    0.0431    0.0104   -0.1131
          27    0.0707    0.0157   -0.1813
          28    0.0340   -0.1065   -0.0980
          29    0.0510   -0.1415   -0.1289
          30    0.0031   -0.0576   -0.0539
          31   -0.0430   -0.0004   -0.0293
          32    0.0218   -0.0241    0.0163
          33   -0.2061    0.0527   -0.1451


          DESCRIPTION OF VIBRATIONS


 VIBRATION          1    1A           ATOM PAIR      ENERGY CONTRIBUTION    RADIAL
 FREQUENCY         -1643.53         C  1 -- H  2         -59.8% (-77.1%)     54.5%
 TRANSITION DIPOLE   0.3024         H  2 -- C  3         -59.8% (-77.1%)     54.4%
 TRAVEL (Ang.)       0.2273         C  3 -- C  4          -2.7% (-16.3%)     56.5%
 REDUCED MASS        0.7941         C  1 -- C 10          -2.7% (-16.3%)     56.3%
 EFFECTIVE MASS      2.3548
 FORCE CONSTANT     -1.2639

 VIBRATION          2    2A           ATOM PAIR      ENERGY CONTRIBUTION    RADIAL
 FREQUENCY           500.89         C 10 -- C 11         +20.8% ( 86.0%)      0.0%
 TRANSITION DIPOLE   0.1809         C  1 -- C 10         +16.2% ( 76.0%)      0.0%
 TRAVEL (Ang.)       0.3449         C  4 -- C 10          +9.2% ( 57.3%)      0.0%
 REDUCED MASS        1.1314         C  1 -- C 11          +8.8% ( 56.0%)      0.4%
 EFFECTIVE MASS     10.1486
 FORCE CONSTANT      0.1672

 VIBRATION          3    3A           ATOM PAIR      ENERGY CONTRIBUTION    RADIAL
 FREQUENCY           501.58         C  3 -- C  4         +19.3% ( 79.4%)      0.0%
 TRANSITION DIPOLE   0.1614         C  4 -- C 11         +16.9% ( 74.4%)      0.0%
 TRAVEL (Ang.)       0.3472         H  2 -- C  3          +9.7% ( 56.5%)     33.4%
 REDUCED MASS        1.1149         C  4 -- C 10          +8.5% ( 52.6%)      0.0%
 EFFECTIVE MASS      8.9818
 FORCE CONSTANT      0.1653

 VIBRATION          4    4A           ATOM PAIR      ENERGY CONTRIBUTION    RADIAL
 FREQUENCY           774.10         C  1 -- H  2         +12.6% ( 55.7%)     10.3%
 TRANSITION DIPOLE   0.9435         H  2 -- C  3         +12.6% ( 55.7%)     10.6%
 TRAVEL (Ang.)       0.6747         H  6 -- C 10          +9.3% ( 48.0%)      5.3%
 REDUCED MASS        0.1914         C  4 -- H  8          +9.1% ( 47.4%)      6.0%
 EFFECTIVE MASS      3.0099
 FORCE CONSTANT      0.0676

 VIBRATION          5    5A           ATOM PAIR      ENERGY CONTRIBUTION    RADIAL
 FREQUENCY           803.12         C  1 -- C  3         +13.1% (104.9%)      0.0%
 TRANSITION DIPOLE   0.0218         C  3 -- C  4          +9.1% ( 87.4%)      0.8%
 TRAVEL (Ang.)       0.1832         C  3 -- C 11          +9.1% ( 87.3%)     65.6%
 REDUCED MASS        2.5008         C  1 -- C 11          +9.0% ( 87.0%)     64.4%
 EFFECTIVE MASS     14.7475
 FORCE CONSTANT      0.9504

 VIBRATION          6    6A           ATOM PAIR      ENERGY CONTRIBUTION    RADIAL
 FREQUENCY           812.05         C  4 -- C 10         +13.5% (103.8%)    100.0%
 TRANSITION DIPOLE   0.7671         C 10 -- C 11         +11.7% ( 96.8%)      0.1%
 TRAVEL (Ang.)       0.1997         C  4 -- C 11         +11.6% ( 96.4%)      0.2%
 REDUCED MASS        2.0823         C  1 -- C 11         +11.5% ( 95.7%)     80.6%
 EFFECTIVE MASS     13.4009         C  3 -- C 11         +11.4% ( 95.3%)     79.6%
 FORCE CONSTANT      0.8090

 VIBRATION          7    7A           ATOM PAIR      ENERGY CONTRIBUTION    RADIAL
 FREQUENCY           890.20         H  7 -- C 11         +29.3% ( 64.4%)      0.0%
 TRANSITION DIPOLE   0.1954         C  3 -- H  9         +10.7% ( 39.0%)      0.4%
 TRAVEL (Ang.)       0.4988         C  1 -- H  5          +9.9% ( 37.4%)      0.4%
 REDUCED MASS        0.3044         H  6 -- C 10          +9.8% ( 37.3%)      0.0%
 EFFECTIVE MASS      2.8064
 FORCE CONSTANT      0.1421

 VIBRATION          8    8A           ATOM PAIR      ENERGY CONTRIBUTION    RADIAL
 FREQUENCY           910.72         C  4 -- H  8         +35.5% ( 66.8%)      0.0%
 TRANSITION DIPOLE   0.0554         H  6 -- C 10         +33.2% ( 64.6%)      0.0%
 TRAVEL (Ang.)       0.3811         C  4 -- C 10          +6.8% ( 29.1%)      0.0%
 REDUCED MASS        0.5098         C  1 -- H  5          +5.2% ( 25.6%)      0.1%
 EFFECTIVE MASS      2.6367
 FORCE CONSTANT      0.2491

 VIBRATION          9    9A           ATOM PAIR      ENERGY CONTRIBUTION    RADIAL
 FREQUENCY           988.44         C  1 -- H  2         +18.4% ( 56.9%)      0.9%
 TRANSITION DIPOLE   0.1330         H  2 -- C  3         +18.4% ( 56.8%)      0.9%
 TRAVEL (Ang.)       0.5125         C  3 -- H  9         +10.4% ( 42.8%)      7.2%
 REDUCED MASS        0.2597         C  1 -- H  5         +10.4% ( 42.7%)      7.1%
 EFFECTIVE MASS      3.1509
 FORCE CONSTANT      0.1495

 VIBRATION         10   10A           ATOM PAIR      ENERGY CONTRIBUTION    RADIAL
 FREQUENCY          1013.25         H  7 -- C 11         +20.2% ( 57.5%)      0.1%
 TRANSITION DIPOLE   0.1749         C  4 -- H  8         +10.4% ( 41.4%)      0.0%
 TRAVEL (Ang.)       0.3060         H  6 -- C 10         +10.3% ( 41.0%)      0.0%
 REDUCED MASS        0.7108         C  4 -- C 11          +8.2% ( 36.6%)      0.3%
 EFFECTIVE MASS      4.9395
 FORCE CONSTANT      0.4300

 VIBRATION         11   11A           ATOM PAIR      ENERGY CONTRIBUTION    RADIAL
 FREQUENCY          1034.59         C  1 -- H  5         +28.7% ( 51.9%)      0.0%
 TRANSITION DIPOLE   0.4652         C  3 -- H  9         +28.5% ( 51.7%)      0.0%
 TRAVEL (Ang.)       0.3433         C  3 -- C  4          +6.3% ( 24.4%)      0.2%
 REDUCED MASS        0.5529         C  1 -- C 10          +6.1% ( 23.9%)      0.2%
 EFFECTIVE MASS      3.2780
 FORCE CONSTANT      0.3487

 VIBRATION         12   12A           ATOM PAIR      ENERGY CONTRIBUTION    RADIAL
 FREQUENCY          1116.90         C  1 -- C  3         +15.8% ( 62.5%)    100.0%
 TRANSITION DIPOLE   0.8393         H  2 -- C  3         +11.8% ( 54.0%)      2.0%
 TRAVEL (Ang.)       0.3061         C  1 -- H  2         +11.7% ( 53.9%)      1.9%
 REDUCED MASS        0.6444         H  6 -- C 10         +10.2% ( 50.2%)      4.4%
 EFFECTIVE MASS      5.3118
 FORCE CONSTANT      0.4736

 VIBRATION         13   13A           ATOM PAIR      ENERGY CONTRIBUTION    RADIAL
 FREQUENCY          1128.08         C  3 -- H  9         +18.6% ( 54.0%)      4.6%
 TRANSITION DIPOLE   0.3999         C  1 -- H  5         +18.3% ( 53.5%)      4.3%
 TRAVEL (Ang.)       0.4753         H  7 -- C 11         +14.9% ( 48.4%)      0.0%
 REDUCED MASS        0.2646         C  3 -- C  4          +6.5% ( 31.9%)     91.5%
 EFFECTIVE MASS      2.9088
 FORCE CONSTANT      0.1984

 VIBRATION         14   14A           ATOM PAIR      ENERGY CONTRIBUTION    RADIAL
 FREQUENCY          1174.09         H  7 -- C 11         +44.8% ( 69.1%)      0.0%
 TRANSITION DIPOLE   0.0785         H  6 -- C 10         +22.2% ( 48.7%)      0.1%
 TRAVEL (Ang.)       0.4129         C  4 -- H  8         +19.1% ( 45.1%)      0.1%
 REDUCED MASS        0.3368         C  1 -- H  5          +4.4% ( 21.7%)      9.8%
 EFFECTIVE MASS      1.2263
 FORCE CONSTANT      0.2736

 VIBRATION         15   15A           ATOM PAIR      ENERGY CONTRIBUTION    RADIAL
 FREQUENCY          1176.15         C  3 -- H  9         +33.5% ( 58.9%)      0.2%
 TRANSITION DIPOLE   0.2589         C  1 -- H  5         +31.2% ( 56.7%)      0.1%
 TRAVEL (Ang.)       0.4453         H  2 -- C  3          +8.9% ( 30.4%)      0.2%
 REDUCED MASS        0.2892         C  1 -- H  2          +8.7% ( 30.0%)      0.3%
 EFFECTIVE MASS      1.1373
 FORCE CONSTANT      0.2357

 VIBRATION         16   16A           ATOM PAIR      ENERGY CONTRIBUTION    RADIAL
 FREQUENCY          1249.18         C  1 -- C  3         +18.5% ( 72.4%)    100.0%
 TRANSITION DIPOLE   0.4103         C  1 -- C 11          +9.8% ( 52.7%)     65.6%
 TRAVEL (Ang.)       0.1846         C  3 -- C 11          +9.8% ( 52.6%)     65.9%
 REDUCED MASS        1.5838         C  1 -- H  2          +7.0% ( 44.7%)      4.9%
 EFFECTIVE MASS      8.2620
 FORCE CONSTANT      1.4561

 VIBRATION         17   17A           ATOM PAIR      ENERGY CONTRIBUTION    RADIAL
 FREQUENCY          1296.69         C  4 -- H  8         +14.7% ( 45.0%)      0.2%
 TRANSITION DIPOLE   0.0373         H  6 -- C 10         +14.4% ( 44.6%)      0.2%
 TRAVEL (Ang.)       0.4594         H  7 -- C 11         +13.7% ( 43.5%)      0.0%
 REDUCED MASS        0.2464         C  1 -- H  5         +11.5% ( 39.9%)      0.1%
 EFFECTIVE MASS      2.4029         C  3 -- H  9         +11.5% ( 39.8%)      0.1%
 FORCE CONSTANT      0.2441

 VIBRATION         18   18A           ATOM PAIR      ENERGY CONTRIBUTION    RADIAL
 FREQUENCY          1436.37         C  3 -- C  4         +14.4% ( 67.7%)     87.5%
 TRANSITION DIPOLE   0.1317         C  4 -- C 10         +11.2% ( 59.6%)     96.3%
 TRAVEL (Ang.)       0.1482         C  1 -- C 10         +10.2% ( 57.0%)     64.6%
 REDUCED MASS        2.1366         C 10 -- C 11          +9.4% ( 54.7%)     94.9%
 EFFECTIVE MASS     11.7750
 FORCE CONSTANT      2.5972

 VIBRATION         19   19A           ATOM PAIR      ENERGY CONTRIBUTION    RADIAL
 FREQUENCY          1443.50         C  1 -- C 10         +14.3% ( 62.0%)     88.5%
 TRANSITION DIPOLE   0.4149         C  4 -- C 11         +13.0% ( 59.1%)    100.0%
 TRAVEL (Ang.)       0.1486         C 10 -- C 11         +11.1% ( 54.7%)     99.1%
 REDUCED MASS        2.1152         C  3 -- C  4          +9.5% ( 50.6%)     63.9%
 EFFECTIVE MASS      9.8348
 FORCE CONSTANT      2.5968

 VIBRATION         20   20A           ATOM PAIR      ENERGY CONTRIBUTION    RADIAL
 FREQUENCY          1539.56         C 10 -- C 11         +15.1% ( 65.8%)     59.1%
 TRANSITION DIPOLE   0.2714         C  4 -- C 11         +14.4% ( 64.3%)     49.1%
 TRAVEL (Ang.)       0.1291         C  3 -- C 11         +11.2% ( 56.8%)     55.3%
 REDUCED MASS        2.6270         C  1 -- C 11         +11.1% ( 56.3%)     60.3%
 EFFECTIVE MASS     10.7678
 FORCE CONSTANT      3.6686

 VIBRATION         21   21A           ATOM PAIR      ENERGY CONTRIBUTION    RADIAL
 FREQUENCY          1552.62         C  4 -- C 11         +15.8% ( 65.8%)     59.4%
 TRANSITION DIPOLE   0.4314         C 10 -- C 11         +15.3% ( 64.6%)     49.7%
 TRAVEL (Ang.)       0.1212         C  4 -- C 10         +15.1% ( 64.2%)     99.9%
 REDUCED MASS        2.9548         C  1 -- C 10          +9.4% ( 50.7%)     74.6%
 EFFECTIVE MASS     11.2314
 FORCE CONSTANT      4.1968

 VIBRATION         22   22A           ATOM PAIR      ENERGY CONTRIBUTION    RADIAL
 FREQUENCY          2163.11         H  2 -- C  3         +48.8% ( 96.4%)     83.2%
 TRANSITION DIPOLE   0.7213         C  1 -- H  2         +48.8% ( 96.4%)     83.2%
 TRAVEL (Ang.)       0.1865         C  1 -- C  3          +1.0% ( 13.9%)    100.0%
 REDUCED MASS        0.8965         C  1 -- C 11          +0.2% (  6.9%)      1.4%
 EFFECTIVE MASS      1.4814
 FORCE CONSTANT      2.4716

 VIBRATION         23   23A           ATOM PAIR      ENERGY CONTRIBUTION    RADIAL
 FREQUENCY          2778.34         C  3 -- H  9         +48.1% ( 71.0%)    100.0%
 TRANSITION DIPOLE   0.7507         C  1 -- H  5         +47.3% ( 70.4%)    100.0%
 TRAVEL (Ang.)       0.2285         C  1 -- C  3          +1.1% ( 10.6%)      0.0%
 REDUCED MASS        0.4647         C  3 -- C 11          +0.6% (  8.0%)     82.6%
 EFFECTIVE MASS      1.4063
 FORCE CONSTANT      2.1137

 VIBRATION         24   24A           ATOM PAIR      ENERGY CONTRIBUTION    RADIAL
 FREQUENCY          2779.75         C  1 -- H  5         +41.8% ( 66.2%)     99.9%
 TRANSITION DIPOLE   1.2420         C  3 -- H  9         +41.2% ( 65.8%)     99.9%
 TRAVEL (Ang.)       0.2592         C  4 -- H  8          +6.8% ( 26.8%)     99.9%
 REDUCED MASS        0.3610         H  6 -- C 10          +4.9% ( 22.7%)     99.9%
 EFFECTIVE MASS      1.3980
 FORCE CONSTANT      1.6434

 VIBRATION         25   25A           ATOM PAIR      ENERGY CONTRIBUTION    RADIAL
 FREQUENCY          2790.89         H  7 -- C 11         +64.7% ( 82.4%)    100.0%
 TRANSITION DIPOLE   0.5758         C  4 -- H  8         +24.2% ( 50.4%)     99.9%
 TRAVEL (Ang.)       0.2220         H  6 -- C 10          +4.9% ( 22.8%)     99.7%
 REDUCED MASS        0.4901         C  4 -- C 11          +1.0% ( 10.3%)      1.9%
 EFFECTIVE MASS      1.4044
 FORCE CONSTANT      2.2493

 VIBRATION         26   26A           ATOM PAIR      ENERGY CONTRIBUTION    RADIAL
 FREQUENCY          2794.36         H  6 -- C 10         +50.6% ( 72.6%)    100.0%
 TRANSITION DIPOLE   1.0866         C  4 -- H  8         +41.4% ( 65.6%)    100.0%
 TRAVEL (Ang.)       0.2364         H  7 -- C 11          +4.1% ( 20.6%)     99.3%
 REDUCED MASS        0.4319         C  4 -- C 10          +1.1% ( 10.9%)      1.9%
 EFFECTIVE MASS      1.4097
 FORCE CONSTANT      1.9870

 VIBRATION         27   27A           ATOM PAIR      ENERGY CONTRIBUTION    RADIAL
 FREQUENCY          2805.53         H  6 -- C 10         +35.0% ( 60.7%)    100.0%
 TRANSITION DIPOLE   0.3845         H  7 -- C 11         +25.8% ( 52.1%)    100.0%
 TRAVEL (Ang.)       0.3045         C  4 -- H  8         +23.1% ( 49.3%)    100.0%
 REDUCED MASS        0.2591         C  1 -- H  5          +5.2% ( 23.4%)    100.0%
 EFFECTIVE MASS      1.5551
 FORCE CONSTANT      1.2018

           FORCE CONSTANT IN INTERNAL COORDINATES (Millidynes/A)

    ATOM   CHEMICAL  BOND LENGTH      BOND ANGLE     TWIST ANGLE
   NUMBER   SYMBOL  FORCE CONSTANT  FORCE CONSTANT  FORCE CONSTANT

      1       C        0.000000        0.000000        0.000000
      2       H        2.693062        0.000000        0.000000
      3       C        5.118277       28.016217        0.000000
      4       C       13.792418       11.189377       30.927842
      5       H        4.312515        0.642335        0.625376
      6       H        8.809702        3.935269       13.550293
      7       H        9.012476       19.089382        2.233739
      8       H        4.357151        0.926765        0.288921
      9       H        4.312217        0.642490        0.622819
     10       C       11.510379       10.672674        0.738997
     11       C       11.581106       10.932508        0.730262
 *******************************************************************************
 ** Site#: 37037        For non-commercial use only           Version 21.153W **
 *******************************************************************************
 ** Cite this program as: MOPAC2016, Version: 21.153W, James J. P. Stewart,   **
 ** Stewart Computational Chemistry, web: HTTP://OpenMOPAC.net. Days left: 364**
 *******************************************************************************
 **                                                                           **
 **                                MOPAC2016                                  **
 **                                                                           **
 *******************************************************************************

                              PM7 CALCULATION RESULTS

 *******************************************************************************
 *  CALCULATION DONE:                                Thu Jun  3 09:45:20 2021  *
 *  IRC=N      - INTRINSIC REACTION COORDINATE  1 DEFINED
 *  OLDGEO     - PREVIOUS GEOMETRY TO BE USED
 *  RESTART    - CALCULATION RESTARTED
 *  T=         - A TIME OF 172800.0 SECONDS REQUESTED
 *  DUMP=N     - RESTART FILE WRITTEN EVERY 7200.0 SECONDS REQUESTED
 *  HTML       - WRITE HTML SCRIPT TO GENERATE ANIMATION USING JSMOL
 *             - TO DISPLAY IN PDB FORMAT, ADD "PDBOUT"
 *  X-PRIOR    - GEOMETRY CHANGES TAKE PRIORITY IN DRC
 *******************************************************************************
oldgeo irc=1* restart html x-priority=0.1
 Optimize the transition state for narcissistic Cyclopentadiene proton shift

  ATOM    CHEMICAL      BOND LENGTH      BOND ANGLE     TWIST ANGLE 
 NUMBER    SYMBOL       (ANGSTROMS)      (DEGREES)       (DEGREES) 
   (I)                     NA:I           NB:NA:I       NC:NB:NA:I       NA    NB    NC 
     1       C          0.00000000       0.0000000       0.0000000        0     0     0
     2       H          1.42520260  *    0.0000000       0.0000000        1     0     0
     3       C          1.42520260      63.0430827  *    0.0000000        2     1     0
     4       C          1.41506936  *  110.0553772  *  -97.4305471  *     3     2     1
     5       H          1.07102206  *  109.2603748  * -120.4452434  *     1     2     3
     6       H          2.20981182  *  119.6959750  *  121.0184532  *     1     2     3
     7       H          2.20355199  *  132.2624421  *   60.7213281  *     4     3     2
     8       H          1.07028264  *  125.1713145  * -119.0670400  *     4     3     2
     9       H          1.07095118  *  109.4127343  *  120.4252096  *     3     2     1
    10       C          1.06951899  *   31.5843064  *  -71.0939015  *     6     1     2
    11       C          1.07175229  *   31.3906123  *    1.1354272  *     7     4     3
 


          CARTESIAN COORDINATES 

    NO.       ATOM           X           Y           Z

     1         C          0.0000      0.0000      0.0000
     2         H          1.4252      0.0000      0.0000
     3         C          0.7791      1.2704      0.0000
     4         C          0.7124      1.7808     -1.3181
     5         H         -0.3533     -0.5123      0.8717
     6         H         -1.0947     -0.9892     -1.6451
     7         H         -0.2436      1.0243     -3.1537
     8         H          1.1614      2.6943     -1.6489
     9         H          1.0737      1.8195      0.8710
    10         C         -0.4857     -0.1735     -1.3170
    11         C         -0.0405      0.8976     -2.1090

 General Reference for PM7:
 "Optimization of Parameters for Semiempirical Methods VI: More Modifications to the 
 NDDO Approximations and Re-optimization of Parameters", J. J. P. Stewart, J. Mol. Mod., 1:32, 19 (2013)
 https://link.springer.com/article/10.1007/s00894-012-1667-x

           Empirical Formula: C5 H6  =    11 atoms



      MOLECULAR POINT GROUP   :   C1  


      RHF CALCULATION, NO. OF DOUBLY OCCUPIED LEVELS = 13


          MOLECULAR WEIGHT =   66.10


          ESTIMATED TIME TO COMPLETE CALCULATION =        0.00 SECONDS

          TIME USED UP TO RESTART =                  0.15

    FOR POINT-GROUP C1   THERE ARE   1 UNIQUE SYMMETRY FUNCTIONS.

           INITIAL VELOCITY IN DRC (Angstroms/Femtosecond)
        -0.06567         0.00611        -0.01616
         0.31450         0.51291        -0.00019
         0.03515        -0.05575         0.01630
        -0.00979        -0.00383        -0.02671
         0.06051        -0.04680        -0.00410
         0.00642        -0.00175        -0.00840
        -0.00276        -0.00460        -0.00007
        -0.00440         0.00489         0.00814
        -0.06842         0.03272         0.00388
         0.00105        -0.01048         0.02669
         0.01360         0.02221        -0.00005

 GEOMETRY PRIORITY, STEP = 0.1000 ANGSTROMS



     POINT   POTENTIAL  +  ENERGY LOST   =   TOTAL      ERROR    REF%   MOVEMENT
       1      71.53162      0.00000         71.53162   0.00000     1   %  0.0000
      39      70.95937      0.53245         71.49182  -0.02793     2   %  0.1000
      91      69.31595      2.16529         71.48124  -0.03852     3   %  0.1999
     136      66.81609      4.65603         71.47212  -0.04764     4   %  0.2998
     173      63.73462      7.73027         71.46489  -0.05487     5   %  0.3997
     199      60.33381     11.12596         71.45978  -0.05998     6   %  0.4997
     213      57.15974     14.29764         71.45738  -0.06237     7   %  0.5902
     223      53.39469     18.06534         71.46004  -0.05972     8   %  0.6995
     246      50.14046     21.32415         71.46462  -0.05514     9   %  0.7993
     273      47.14757     24.32243         71.47000  -0.04976    10   %  0.8991
     301      44.46143     27.01419         71.47562  -0.04414    11   %  0.9987
     331      42.10418     29.37739         71.48158  -0.03818    12   %  1.0980
     361      40.08032     31.40723         71.48755  -0.03221    13   %  1.1970
     391      38.38146     33.11195         71.49342  -0.02634    14   %  1.2954
     420      36.99057     34.50853         71.49909  -0.02067    15   %  1.3928
     447      35.88412     35.62037         71.50449  -0.01527    16   %  1.4883
     473      35.03183     36.47768         71.50950  -0.01025    17   %  1.5808
     496      34.39773     37.11628         71.51401  -0.00574    18   %  1.6681
     516      33.93880     37.57906         71.51786  -0.00189    19   %  1.7477
     533      33.60087     37.92018         71.52105   0.00129    20   %  1.8190
     547      33.33760     38.18610         71.52370   0.00394    21   %  1.8843
     559      33.12140     38.40456         71.52595   0.00619    22   %  1.9472
     569      32.93717     38.59081         71.52798   0.00822    23   %  2.0116
     579      32.77831     38.75158         71.52989   0.01013    24   %  2.0788
     589      32.64229     38.88946         71.53174   0.01199    25   %  2.1484
     598      32.52830     39.00526         71.53356   0.01380    26   %  2.2198
     608      32.43595     39.09940         71.53535   0.01560    27   %  2.2927
     617      32.36517     39.17196         71.53713   0.01737    28   %  2.3668
     627      32.31576     39.22312         71.53887   0.01912    29   %  2.4421
     643      32.28720     39.25553         71.54274   0.02298    30   %  2.5187


 IRC CALCULATION COMPLETE 
           INITIAL VELOCITY IN DRC (Angstroms/Femtosecond)
         0.06567        -0.00611         0.01616
        -0.31450        -0.51291         0.00019
        -0.03515         0.05575        -0.01630
         0.00979         0.00383         0.02671
        -0.06051         0.04680         0.00410
        -0.00642         0.00175         0.00840
         0.00276         0.00460         0.00007
         0.00440        -0.00489        -0.00814
         0.06842        -0.03272        -0.00388
        -0.00105         0.01048        -0.02669
        -0.01360        -0.02221         0.00005

 GEOMETRY PRIORITY, STEP = 0.1000 ANGSTROMS



     POINT   POTENTIAL  +  ENERGY LOST   =   TOTAL      ERROR    REF%   MOVEMENT
       1      71.53162      0.00000         71.53162   0.00000     1   %  0.0000
      39      70.98384      0.51062         71.49446  -0.02784     2   %  0.1000
      91      69.35657      2.12732         71.48389  -0.03841     3   %  0.1990
     135      66.86797      4.60689         71.47486  -0.04744     4   %  0.2982
     172      63.79322      7.67444         71.46767  -0.05463     5   %  0.3976
     198      60.39503     11.06756         71.46259  -0.05971     6   %  0.4973
     211      57.29833     14.16213         71.46046  -0.06184     7   %  0.5855
     223      53.45244     18.01126         71.46370  -0.05860     8   %  0.6968
     244      50.19439     21.27358         71.46797  -0.05433     9   %  0.7965
     269      47.19624     24.27671         71.47296  -0.04934    10   %  0.8961
     296      44.50441     26.97393         71.47834  -0.04396    11   %  0.9956
     324      42.14147     29.34245         71.48393  -0.03837    12   %  1.0949
     352      40.11209     31.37749         71.48957  -0.03273    13   %  1.1938
     381      38.40791     33.08727         71.49518  -0.02712    14   %  1.2922
     409      37.01215     34.48852         71.50066  -0.02164    15   %  1.3895
     435      35.90137     35.60457         71.50594  -0.01636    16   %  1.4849
     461      35.04530     36.46560         71.51090  -0.01140    17   %  1.5773
     484      34.40809     37.10731         71.51540  -0.00690    18   %  1.6646
     504      33.94673     37.57253         71.51926  -0.00304    19   %  1.7442
     521      33.60715     37.91526         71.52241   0.00011    20   %  1.8155
     534      33.34282     38.18215         71.52497   0.00267    21   %  1.8808
     545      33.12590     38.40121         71.52711   0.00481    22   %  1.9436
     555      32.94108     38.58791         71.52899   0.00669    23   %  2.0082
     564      32.78169     38.74906         71.53075   0.00845    24   %  2.0758
     573      32.64513     38.88729         71.53243   0.01013    25   %  2.1458
     582      32.53056     39.00350         71.53406   0.01176    26   %  2.2176
     590      32.43776     39.09791         71.53567   0.01337    27   %  2.2906
     599      32.36641     39.17085         71.53726   0.01496    28   %  2.3649
     607      32.31658     39.22223         71.53881   0.01651    29   %  2.4402
     622      32.28825     39.25484         71.54309   0.02079    30   %  2.5155


 IRC CALCULATION COMPLETE 

 **********************
 *                    *
 * JOB ENDED NORMALLY *
 *                    *
 **********************



 TOTAL JOB TIME:             3.81 SECONDS

 == MOPAC DONE ==
