 *******************************************************************************
 ** Site#: 37037        For non-commercial use only           Version 21.153W **
 *******************************************************************************
 ** Cite this program as: MOPAC2016, Version: 21.153W, James J. P. Stewart,   **
 ** Stewart Computational Chemistry, web: HTTP://OpenMOPAC.net. Days left: 364**
 *******************************************************************************
 **                                                                           **
 **                                MOPAC2016                                  **
 **                                                                           **
 *******************************************************************************

                              PM7 CALCULATION RESULTS

 *******************************************************************************
 *  CALCULATION DONE:                                Thu Jun  3 09:52:29 2021  *
 *  GEO_DAT    - DATA SET GEOMETRY IS IN FILE "Cyclopentadiene narcissistic reaction.arc"
 *  TS         - USE EF ROUTINE FOR TS SEARCH
 *  T=         - A TIME OF 172800.0 SECONDS REQUESTED
 *  DUMP=N     - RESTART FILE WRITTEN EVERY 7200.0 SECONDS REQUESTED
 *  GNORM      - EXIT WHEN GRADIENT NORM DROPS BELOW 2.000
 *******************************************************************************
TS gnorm=2   geo_dat="Cyclopentadiene narcissistic reaction.arc"
 Refine transition state for Cyclopentadiene_1 <=> Cyclopentadiene_2

  ATOM    CHEMICAL      BOND LENGTH      BOND ANGLE     TWIST ANGLE 
 NUMBER    SYMBOL       (ANGSTROMS)      (DEGREES)       (DEGREES) 
   (I)                     NA:I           NB:NA:I       NC:NB:NA:I       NA    NB    NC 
     1       C          0.00000000       0.0000000       0.0000000        0     0     0
     2       H          1.42520260  *    0.0000000       0.0000000        1     0     0
     3       C          1.42520260      63.0430827  *    0.0000000        2     1     0
     4       C          1.41506936  *  110.0553772  *  -97.4305471  *     3     2     1
     5       H          1.07102206  *  109.2603748  * -120.4452434  *     1     2     3
     6       H          2.20981182  *  119.6959750  *  121.0184532  *     1     2     3
     7       H          2.20355199  *  132.2624421  *   60.7213281  *     4     3     2
     8       H          1.07028264  *  125.1713145  * -119.0670400  *     4     3     2
     9       H          1.07095118  *  109.4127343  *  120.4252096  *     3     2     1
    10       C          1.06951899  *   31.5843064  *  -71.0939015  *     6     1     2
    11       C          1.07175229  *   31.3906123  *    1.1354272  *     7     4     3
 


          CARTESIAN COORDINATES 

    NO.       ATOM           X           Y           Z

     1         C          0.0000      0.0000      0.0000
     2         H          1.4252      0.0000      0.0000
     3         C          0.7791      1.2704      0.0000
     4         C          0.7124      1.7808     -1.3181
     5         H         -0.3533     -0.5123      0.8717
     6         H         -1.0947     -0.9892     -1.6451
     7         H         -0.2436      1.0243     -3.1537
     8         H          1.1614      2.6943     -1.6489
     9         H          1.0737      1.8195      0.8710
    10         C         -0.4857     -0.1735     -1.3170
    11         C         -0.0405      0.8976     -2.1090

 General Reference for PM7:
 "Optimization of Parameters for Semiempirical Methods VI: More Modifications to the 
 NDDO Approximations and Re-optimization of Parameters", J. J. P. Stewart, J. Mol. Mod., 1:32, 19 (2013)
 https://link.springer.com/article/10.1007/s00894-012-1667-x

           Empirical Formula: C5 H6  =    11 atoms



      MOLECULAR POINT GROUP   :   C1  


      RHF CALCULATION, NO. OF DOUBLY OCCUPIED LEVELS = 13


          Transition state refinement using EF

     GRADIENT =  0.80464 IS LESS THAN CUTOFF =  2.00000



 -------------------------------------------------------------------------------
 TS gnorm=2
 Refine transition state for Cyclopentadiene_1 <=> Cyclopentadiene_2



     GRADIENTS WERE INITIALLY ACCEPTABLY SMALL                
     SCF FIELD WAS ACHIEVED                                   


                              PM7 CALCULATION
                                                       MOPAC2016 (Version: 21.153W)
                                                       Thu Jun  3 09:52:29 2021
                                                       No. of days remaining = 364




          FINAL HEAT OF FORMATION =         71.53161 KCAL/MOL =     299.28825 KJ/MOL


          TOTAL ENERGY            =       -692.36635 EV
          ELECTRONIC ENERGY       =      -2611.23163 EV  POINT GROUP:     C1  
          CORE-CORE REPULSION     =       1918.86528 EV
          COSMO AREA              =        107.28 SQUARE ANGSTROMS
          COSMO VOLUME            =         94.39 CUBIC ANGSTROMS

          GRADIENT NORM           =          0.80464 = 0.24261 PER ATOM
          IONIZATION POTENTIAL    =          9.038166 EV
          HOMO LUMO ENERGIES (EV) =         -9.038  0.621
          NO. OF FILLED LEVELS    =         13
          MOLECULAR WEIGHT        =         66.1024

          MOLECULAR DIMENSIONS (Angstroms)

            Atom       Atom       Distance
            H     8    H     5     4.35087
            H     9    H     6     4.12940
            H     7    H     2     1.46209


          SCF CALCULATIONS        =          1
 
          WALL-CLOCK TIME         =          0.031 SECONDS
          COMPUTATION TIME        =          0.078 SECONDS




  ATOM    CHEMICAL      BOND LENGTH      BOND ANGLE     TWIST ANGLE 
 NUMBER    SYMBOL       (ANGSTROMS)      (DEGREES)       (DEGREES) 
   (I)                     NA:I           NB:NA:I       NC:NB:NA:I       NA    NB    NC 
     1       C          0.00000000       0.0000000       0.0000000        0     0     0
     2       H          1.42520260  *    0.0000000       0.0000000        1     0     0
     3       C          1.42520260      63.0430827  *    0.0000000        2     1     0
     4       C          1.41506936  *  110.0553772  *  -97.4305471  *     3     2     1
     5       H          1.07102206  *  109.2603748  * -120.4452434  *     1     2     3
     6       H          2.20981182  *  119.6959750  *  121.0184532  *     1     2     3
     7       H          2.20355199  *  132.2624421  *   60.7213281  *     4     3     2
     8       H          1.07028264  *  125.1713145  * -119.0670400  *     4     3     2
     9       H          1.07095118  *  109.4127343  *  120.4252096  *     3     2     1
    10       C          1.06951899  *   31.5843064  *  -71.0939015  *     6     1     2
    11       C          1.07175229  *   31.3906123  *    1.1354272  *     7     4     3

                             CARTESIAN COORDINATES

   1    C        0.000000000     0.000000000     0.000000000
   2    H        1.425202600     0.000000000     0.000000000
   3    C        0.779129198     1.270350979     0.000000000
   4    C        0.712375542     1.780821178    -1.318099169
   5    H       -0.353289040    -0.512327167     0.871662768
   6    H       -1.094735574    -0.989191357    -1.645090502
   7    H       -0.243639737     1.024252020    -3.153658830
   8    H        1.161376598     2.694306016    -1.648929084
   9    H        1.073702576     1.819507058     0.870971042
  10    C       -0.485717337    -0.173527128    -1.316975398
  11    C       -0.040457132     0.897627339    -2.108988551


           Empirical Formula: C5 H6  =    11 atoms



      MOLECULAR POINT GROUP   :   C1  


                  EIGENVALUES  
 -31.18194 -24.50584 -23.94142 -18.65634 -18.63624 -17.56676 -14.99472 -13.41785
 -12.86807 -12.86338 -12.84886  -9.76407  -9.03817   0.62077   1.31161   2.99661
   3.73498   4.50949   4.99865   5.66154   5.83508   6.04586   6.17513   6.46264
   6.56474   6.60684


              NET ATOMIC CHARGES AND DIPOLE CONTRIBUTIONS

  ATOM NO.   TYPE          CHARGE      No. of ELECS.   s-Pop       p-Pop       
    1          C          -0.251455        4.2515     1.07496     3.17650
    2          H           0.292196        0.7078     0.70780
    3          C          -0.251796        4.2518     1.07498     3.17681
    4          C          -0.197208        4.1972     1.08181     3.11540
    5          H           0.163338        0.8367     0.83666
    6          H           0.151097        0.8489     0.84890
    7          H           0.148123        0.8519     0.85188
    8          H           0.151157        0.8488     0.84884
    9          H           0.163485        0.8365     0.83651
   10          C          -0.197091        4.1971     1.08154     3.11555
   11          C          -0.171846        4.1718     1.08532     3.08652
 DIPOLE           X         Y         Z       TOTAL
 POINT-CHG.     1.318    -0.806     0.969     1.823
 HYBRID         0.327    -0.201     0.158     0.415
 SUM            1.645    -1.007     1.127     2.234


          ATOMIC ORBITAL ELECTRON POPULATIONS

     Atom    s        px        py        pz   
    1  C   1.07496   0.98622   1.11506   1.07522
    2  H   0.70780
    3  C   1.07498   1.16296   0.93870   1.07515
    4  C   1.08181   1.06210   1.06513   0.98816
    5  H   0.83666
    6  H   0.84890
    7  H   0.85188
    8  H   0.84884
    9  H   0.83651
   10  C   1.08154   1.06579   1.06156   0.98821
   11  C   1.08532   1.02148   0.99810   1.06694
 *******************************************************************************
 ** Site#: 37037        For non-commercial use only           Version 21.153W **
 *******************************************************************************
 ** Cite this program as: MOPAC2016, Version: 21.153W, James J. P. Stewart,   **
 ** Stewart Computational Chemistry, web: HTTP://OpenMOPAC.net. Days left: 364**
 *******************************************************************************
 **                                                                           **
 **                                MOPAC2016                                  **
 **                                                                           **
 *******************************************************************************

                              PM7 CALCULATION RESULTS

 *******************************************************************************
 *  CALCULATION DONE:                                Thu Jun  3 09:52:29 2021  *
 *  IRC=N      - INTRINSIC REACTION COORDINATE -1 DEFINED
 *  DRC        - DYNAMIC REACTION COORDINATE CALCULATION
 *  OLDGEO     - PREVIOUS GEOMETRY TO BE USED
 *  T=         - A TIME OF 172800.0 SECONDS REQUESTED
 *  DUMP=N     - RESTART FILE WRITTEN EVERY 7200.0 SECONDS REQUESTED
 *  CYCLES=    - DO A MAXIMUM OF 200 STEPS
 *  GNORM      - EXIT WHEN GRADIENT NORM DROPS BELOW 0.000
 *  HTML       - WRITE HTML SCRIPT TO GENERATE ANIMATION USING JSMOL
 *             - TO DISPLAY IN PDB FORMAT, ADD "PDBOUT"
 *  T-PRIOR    - TIME TAKES PRIORITY IN DRC
 *******************************************************************************
oldgeo   IRC=-1* DRC HTML T-priority=0.2 cycles=200 gnorm=0
 Reaction path for Cyclopentadiene_1 <=> Cyclopentadiene_2

  ATOM    CHEMICAL      BOND LENGTH      BOND ANGLE     TWIST ANGLE 
 NUMBER    SYMBOL       (ANGSTROMS)      (DEGREES)       (DEGREES) 
   (I)                     NA:I           NB:NA:I       NC:NB:NA:I       NA    NB    NC 
     1       C          0.00000000       0.0000000       0.0000000        0     0     0
     2       H          1.42520260  *    0.0000000       0.0000000        1     0     0
     3       C          1.42520260      63.0430827  *    0.0000000        2     1     0
     4       C          1.41506936  *  110.0553772  *  -97.4305471  *     3     2     1
     5       H          1.07102206  *  109.2603748  * -120.4452434  *     1     2     3
     6       H          2.20981182  *  119.6959750  *  121.0184532  *     1     2     3
     7       H          2.20355199  *  132.2624421  *   60.7213281  *     4     3     2
     8       H          1.07028264  *  125.1713145  * -119.0670400  *     4     3     2
     9       H          1.07095118  *  109.4127343  *  120.4252096  *     3     2     1
    10       C          1.06951899  *   31.5843064  *  -71.0939015  *     6     1     2
    11       C          1.07175229  *   31.3906123  *    1.1354272  *     7     4     3
 


          CARTESIAN COORDINATES 

    NO.       ATOM           X           Y           Z

     1         C          0.0000      0.0000      0.0000
     2         H          1.4252      0.0000      0.0000
     3         C          0.7791      1.2704      0.0000
     4         C          0.7124      1.7808     -1.3181
     5         H         -0.3533     -0.5123      0.8717
     6         H         -1.0947     -0.9892     -1.6451
     7         H         -0.2436      1.0243     -3.1537
     8         H          1.1614      2.6943     -1.6489
     9         H          1.0737      1.8195      0.8710
    10         C         -0.4857     -0.1735     -1.3170
    11         C         -0.0405      0.8976     -2.1090

 General Reference for PM7:
 "Optimization of Parameters for Semiempirical Methods VI: More Modifications to the 
 NDDO Approximations and Re-optimization of Parameters", J. J. P. Stewart, J. Mol. Mod., 1:32, 19 (2013)
 https://link.springer.com/article/10.1007/s00894-012-1667-x

           Empirical Formula: C5 H6  =    11 atoms



      MOLECULAR POINT GROUP   :   C1  


      RHF CALCULATION, NO. OF DOUBLY OCCUPIED LEVELS = 13



          HEAT OF FORMATION =      71.531619 KCALS/MOLE


          GRADIENT NORM =   1.26920

          MOLECULAR WEIGHT =   66.10


          ESTIMATED TIME TO COMPLETE CALCULATION =        1.03 SECONDS

    FOR POINT-GROUP C1   THERE ARE   1 UNIQUE SYMMETRY FUNCTIONS.

 STEP:   1 TIME =     0.00 SECS, INTEGRAL =      0.00 TIME LEFT: 172800.00
 STEP:   2 TIME =     0.00 SECS, INTEGRAL =      0.00 TIME LEFT: 172800.00
 STEP:   3 TIME =     0.00 SECS, INTEGRAL =      0.00 TIME LEFT: 172800.00
 STEP:   4 TIME =     0.02 SECS, INTEGRAL =      0.02 TIME LEFT: 172799.98
 STEP:   5 TIME =     0.00 SECS, INTEGRAL =      0.02 TIME LEFT: 172799.98
 STEP:   6 TIME =     0.00 SECS, INTEGRAL =      0.02 TIME LEFT: 172799.98
 STEP:   7 TIME =     0.02 SECS, INTEGRAL =      0.03 TIME LEFT: 172799.97
 STEP:   8 TIME =     0.00 SECS, INTEGRAL =      0.03 TIME LEFT: 172799.97
 STEP:   9 TIME =     0.00 SECS, INTEGRAL =      0.03 TIME LEFT: 172799.97
 STEP:  10 TIME =     0.02 SECS, INTEGRAL =      0.05 TIME LEFT: 172799.95
 STEP:  11 TIME =     0.00 SECS, INTEGRAL =      0.05 TIME LEFT: 172799.95
 STEP:  12 TIME =     0.00 SECS, INTEGRAL =      0.05 TIME LEFT: 172799.95
 STEP:  13 TIME =     0.02 SECS, INTEGRAL =      0.06 TIME LEFT: 172799.94
 STEP:  14 TIME =     0.00 SECS, INTEGRAL =      0.06 TIME LEFT: 172799.94
 STEP:  15 TIME =     0.00 SECS, INTEGRAL =      0.06 TIME LEFT: 172799.94
 STEP:  16 TIME =     0.00 SECS, INTEGRAL =      0.06 TIME LEFT: 172799.94
 STEP:  17 TIME =     0.02 SECS, INTEGRAL =      0.08 TIME LEFT: 172799.92
 STEP:  18 TIME =     0.00 SECS, INTEGRAL =      0.08 TIME LEFT: 172799.92
 STEP:  19 TIME =     0.00 SECS, INTEGRAL =      0.08 TIME LEFT: 172799.92
 STEP:  20 TIME =     0.00 SECS, INTEGRAL =      0.08 TIME LEFT: 172799.92
 STEP:  21 TIME =     0.00 SECS, INTEGRAL =      0.08 TIME LEFT: 172799.92
 STEP:  22 TIME =     0.00 SECS, INTEGRAL =      0.08 TIME LEFT: 172799.92
 STEP:  23 TIME =     0.02 SECS, INTEGRAL =      0.09 TIME LEFT: 172799.91
 STEP:  24 TIME =     0.00 SECS, INTEGRAL =      0.09 TIME LEFT: 172799.91
 STEP:  25 TIME =     0.00 SECS, INTEGRAL =      0.09 TIME LEFT: 172799.91
 STEP:  26 TIME =     0.00 SECS, INTEGRAL =      0.09 TIME LEFT: 172799.91
 STEP:  27 TIME =     0.02 SECS, INTEGRAL =      0.11 TIME LEFT: 172799.89
 STEP:  28 TIME =     0.00 SECS, INTEGRAL =      0.11 TIME LEFT: 172799.89
 STEP:  29 TIME =     0.00 SECS, INTEGRAL =      0.11 TIME LEFT: 172799.89
 STEP:  30 TIME =     0.00 SECS, INTEGRAL =      0.11 TIME LEFT: 172799.89
 STEP:  31 TIME =     0.00 SECS, INTEGRAL =      0.11 TIME LEFT: 172799.89
 STEP:  32 TIME =     0.00 SECS, INTEGRAL =      0.11 TIME LEFT: 172799.89
 STEP:  33 TIME =     0.00 SECS, INTEGRAL =      0.11 TIME LEFT: 172799.89
           INITIAL VELOCITY IN DRC (Angstroms/Femtosecond)
        -0.06807         0.00802        -0.01466
         0.30836         0.49487        -0.00877
         0.03737        -0.05600         0.01474
        -0.01084        -0.00179        -0.02375
         0.07365        -0.04991        -0.00258
         0.00914        -0.00317        -0.00930
        -0.00229        -0.00491        -0.00062
        -0.00799         0.00696         0.00901
        -0.07177         0.03361         0.00397
         0.00170        -0.00899         0.02561
         0.01391         0.01870        -0.00125
 THE VIBRATIONAL FREQUENCY ( -1490.97CM(-1)) IS TOO SMALL
 FOR ONE QUANTUM TO BE USED
 INSTEAD 0.3KCAL/MOLE WILL BE USED TO START THE IRC

 TIME PRIORITY, INTERVAL = 0.20 FEMTOSECONDS



 FEMTOSECONDS  POINT  POTENTIAL + KINETIC  =   TOTAL     ERROR    REF%   MOVEMENT
     0.000       1    71.53161    0.30000    71.83161   0.00000     1   %  0.0000
     0.200       1    71.53091    0.05775    71.58866  -0.24295     2   %  0.0044
     0.400       1    71.52790   -0.13074    71.39717  -0.43445     3   %  0.0089
     0.600       1    71.52259   -0.26547    71.25712  -0.57449     4   %  0.0133
     0.800       1    71.51498   -0.34645    71.16853  -0.66308     5   %  0.0178
     1.000       1    71.50507   -0.37368    71.13140  -0.70021     6   %  0.0223
     1.200       1    71.49286   -0.34715    71.14571  -0.68590     7   %  0.0268
     1.400       1    71.47835   -0.26686    71.21148  -0.62013     8   %  0.0313
     1.600       1    71.46153   -0.13283    71.32870  -0.50291     9   %  0.0358
     1.800       1    71.44241    0.05497    71.49738  -0.33423    10   %  0.0404
     2.000       1    71.42099    0.29652    71.71751  -0.11410    11   %  0.0450
     2.200       1    71.39727    0.59182    71.98909   0.15748    12   %  0.0495
     2.400       5    71.36221    0.46935    71.83155  -0.00006    13   %  0.0556
     2.600       7    71.32500    0.50653    71.83153  -0.00008    14   %  0.0615
     2.800       8    71.28245    0.54907    71.83152  -0.00009    15   %  0.0675
     3.000      10    71.23397    0.59753    71.83150  -0.00011    16   %  0.0738
     3.200      11    71.17884    0.65264    71.83148  -0.00013    17   %  0.0804
     3.400      12    71.11627    0.71519    71.83146  -0.00015    18   %  0.0872
     3.600      14    71.04542    0.78602    71.83143  -0.00018    19   %  0.0944
     3.800      15    70.96531    0.86609    71.83140  -0.00021    20   %  0.1019
     4.000      16    70.87484    0.95653    71.83137  -0.00024    21   %  0.1098
     4.200      17    70.77278    1.05856    71.83133  -0.00028    22   %  0.1181
     4.400      18    70.65778    1.17351    71.83129  -0.00032    23   %  0.1268
     4.600      19    70.52835    1.30289    71.83125  -0.00036    24   %  0.1359
     4.800      19    70.38290    1.44829    71.83120  -0.00041    25   %  0.1455
     5.000      20    70.21978    1.61136    71.83114  -0.00047    26   %  0.1556
     5.200      21    70.03684    1.79431    71.83115  -0.00045    27   %  0.1663
     5.400      22    69.83212    1.99916    71.83129  -0.00032    28   %  0.1775
     5.600      23    69.60330    2.22791    71.83121  -0.00040    29   %  0.1893
     5.800      24    69.34805    2.48322    71.83127  -0.00034    30   %  0.2018
     6.000      25    69.06382    2.76746    71.83128  -0.00033    31   %  0.2150
     6.200      26    68.74798    3.08332    71.83130  -0.00031    32   %  0.2288
     6.400      27    68.39776    3.43358    71.83133  -0.00027    33   %  0.2435
     6.600      28    68.01038    3.82084    71.83123  -0.00038    34   %  0.2589
     6.800      29    67.58303    4.24809    71.83112  -0.00048    35   %  0.2751
     7.000      30    67.11288    4.71831    71.83119  -0.00041    36   %  0.2923
     7.200      31    66.59722    5.23405    71.83127  -0.00033    37   %  0.3103
     7.400      32    66.03347    5.79785    71.83132  -0.00028    38   %  0.3293
     7.600      33    65.41932    6.41212    71.83143  -0.00017    39   %  0.3493
     7.800      34    64.75272    7.07887    71.83159  -0.00001    40   %  0.3703
     8.000      35    64.03208    7.79972    71.83180   0.00020    41   %  0.3924
     8.200      36    63.25638    8.57573    71.83211   0.00051    42   %  0.4156
     8.400      36    62.42508    9.40743    71.83251   0.00091    43   %  0.4399
     8.600      37    61.53823   10.29478    71.83301   0.00142    44   %  0.4653
     8.800      38    60.59696   11.23667    71.83364   0.00204    45   %  0.4920
     9.000      39    59.60385   12.23053    71.83439   0.00279    46   %  0.5198
     9.200      39    58.55972   13.27554    71.83527   0.00368    47   %  0.5489
     9.400      40    57.46950   14.36678    71.83628   0.00469    48   %  0.5792
     9.600      40    56.33980   15.49761    71.83741   0.00582    49   %  0.6108
     9.800      41    55.17110   16.66756    71.83866   0.00707    50   %  0.6436
    10.000      42    53.97507   17.86694    71.84201   0.01043    51   %  0.6776
    10.200      42    52.75742   19.08589    71.84331   0.01173    52   %  0.7129
    10.400      43    51.52575   20.30938    71.83513   0.00355    53   %  0.7494
    10.600      44    50.28877   21.54488    71.83366   0.00208    54   %  0.7871
    10.800      46    49.05597   22.77709    71.83306   0.00149    55   %  0.8260
    11.000      47    47.83688   23.99571    71.83258   0.00102    56   %  0.8660
    11.200      48    46.64183   25.19043    71.83226   0.00070    57   %  0.9072
    11.400      50    45.48016   26.35192    71.83208   0.00052    58   %  0.9494
    11.600      52    44.36215   27.46981    71.83196   0.00040    59   %  0.9927
    11.800      54    43.29733   28.53455    71.83188   0.00033    60   %  1.0370
    12.000      56    42.29494   29.53691    71.83184   0.00029    61   %  1.0822
    12.200      58    41.36370   30.46812    71.83182   0.00028    62   %  1.1283
    12.400      60    40.51173   31.32007    71.83180   0.00026    63   %  1.1752
    12.600      62    39.74639   32.08539    71.83178   0.00025    64   %  1.2228
    12.800      64    39.07421   32.75756    71.83176   0.00023    65   %  1.2712
    13.000      66    38.50077   33.33098    71.83174   0.00022    66   %  1.3202
    13.200      68    38.03068   33.80104    71.83172   0.00020    67   %  1.3697
    13.400      70    37.66750   34.16421    71.83170   0.00019    68   %  1.4196
    13.600      72    37.41364   34.41804    71.83169   0.00018    69   %  1.4700
    13.800      74    37.27040   34.56127    71.83168   0.00017    70   %  1.5207
    14.000      76    37.23788   34.59378    71.83167   0.00016    71   %  1.5716
    14.200      78    37.31499   34.51667    71.83166   0.00016    72   %  1.6226
    14.400      80    37.49945   34.33221    71.83166   0.00017    73   %  1.6737
    14.600      82    37.78780   34.04386    71.83166   0.00018    74   %  1.7247
    14.800      84    38.17548   33.65619    71.83167   0.00019    75   %  1.7756
    15.000      86    38.65682   33.17487    71.83168   0.00020    76   %  1.8264
    15.200      88    39.22517   32.60653    71.83170   0.00022    77   %  1.8768
    15.400      90    39.87301   31.95870    71.83172   0.00025    78   %  1.9269
    15.600      92    40.59203   31.23970    71.83173   0.00027    79   %  1.9765
    15.800      94    41.37333   30.45844    71.83177   0.00031    80   %  2.0255
    16.000      96    42.20742   29.62436    71.83178   0.00032    81   %  2.0740
    16.200      98    43.08458   28.74722    71.83180   0.00035    82   %  2.1217
    16.400     100    43.99492   27.83693    71.83184   0.00039    83   %  2.1687
    16.600     102    44.92849   26.90339    71.83189   0.00044    84   %  2.2148
    16.800     104    45.87554   25.95639    71.83193   0.00049    85   %  2.2600
    17.000     105    46.82680   25.00518    71.83198   0.00054    86   %  2.3042
    17.200     107    47.77319   24.05883    71.83202   0.00059    87   %  2.3474
    17.400     109    48.70627   23.12579    71.83206   0.00063    88   %  2.3895
    17.600     110    49.61839   22.21370    71.83209   0.00066    89   %  2.4304
    17.800     112    50.50282   21.32929    71.83211   0.00069    90   %  2.4702
    18.000     114    51.35341   20.47871    71.83212   0.00070    91   %  2.5087
    18.200     116    52.16512   19.66700    71.83212   0.00070    92   %  2.5459
    18.400     118    52.93387   18.89822    71.83209   0.00067    93   %  2.5818
    18.600     120    53.65660   18.17545    71.83205   0.00064    94   %  2.6163
    18.800     122    54.33124   17.50076    71.83200   0.00059    95   %  2.6495
    19.000     124    54.95671   16.87526    71.83197   0.00056    96   %  2.6813
    19.200     126    55.53292   16.29901    71.83193   0.00052    97   %  2.7116
    19.400     128    56.06070   15.77118    71.83188   0.00047    98   %  2.7405
    19.600     130    56.54177   15.29006    71.83182   0.00042    99   %  2.7680
    19.800     132    56.97860   14.85316    71.83176   0.00036   100   %  2.7941
    20.000     134    57.37435   14.45732    71.83167   0.00028   101   %  2.8187
    20.200     136    57.73279   14.09885    71.83164   0.00024   102   %  2.8418
    20.400     138    58.05802   13.77356    71.83158   0.00019   103   %  2.8636
    20.600     140    58.35440   13.47714    71.83153   0.00014   104   %  2.8839
    20.800     142    58.62632   13.20516    71.83148   0.00009   105   %  2.9028
    21.000     144    58.87802   12.95341    71.83144   0.00005   106   %  2.9204
    21.200     146    59.11334   12.71805    71.83139   0.00001   107   %  2.9366
    21.400     148    59.33550   12.49585    71.83135  -0.00003   108   %  2.9515
    21.600     150    59.54687   12.28444    71.83131  -0.00007   109   %  2.9651
    21.800     152    59.74876   12.08252    71.83128  -0.00011   110   %  2.9774
    22.000     154    59.94122   11.89002    71.83124  -0.00014   111   %  2.9885
    22.200     156    60.12295   11.70825    71.83121  -0.00017   112   %  2.9984
    22.400     158    60.29116   11.54002    71.83117  -0.00020   113   %  3.0072
    22.600     160    60.44157   11.38958    71.83115  -0.00023   114   %  3.0148
    22.800     162    60.56849   11.26264    71.83112  -0.00025   115   %  3.0214
    23.000     164    60.66499   11.16612    71.83111  -0.00026   116   %  3.0270
    23.200     166    60.72314   11.10797    71.83110  -0.00027   117   %  3.0316
    23.400     168    60.73435   11.09675    71.83111  -0.00026   118   %  3.0352
    23.600     170    60.68985   11.14128    71.83113  -0.00024   119   %  3.0380
    23.800     172    60.58110   11.25006    71.83116  -0.00021   120   %  3.0399
    24.000     173    60.40040   11.43077    71.83117  -0.00020   121   %  3.0409
    24.200     175    60.14141   11.68980    71.83122  -0.00015   122   %  3.0412
    24.400     177    59.79955   12.03177    71.83133  -0.00004   123   %  3.0408
    24.600     178    59.37272   12.45880    71.83152   0.00016   124   %  3.0397
    24.800     180    58.86151   12.97030    71.83181   0.00045   125   %  3.0379
    25.000     181    58.26898   13.56327    71.83225   0.00090   126   %  3.0355
    25.200     182    57.60216   14.23028    71.83243   0.00108   127   %  3.0325
    25.400     184    56.87012   14.96215    71.83227   0.00092   128   %  3.0289
    25.600     185    56.08471   15.74732    71.83203   0.00068   129   %  3.0247
    25.800     187    55.26013   16.57172    71.83185   0.00050   130   %  3.0201
    26.000     189    54.41211   17.41974    71.83185   0.00050   131   %  3.0149
    26.200     191    53.55729   18.27453    71.83182   0.00048   132   %  3.0093
    26.400     193    52.71251   19.11928    71.83179   0.00045   133   %  3.0032
    26.600     195    51.89409   19.93765    71.83174   0.00040   134   %  2.9967
    26.800     197    51.11711   20.71457    71.83168   0.00035   135   %  2.9897
    27.000     199    50.39482   21.43680    71.83162   0.00028   136   %  2.9823
    27.200     201    49.73811   22.09344    71.83155   0.00022   137   %  2.9745
    27.400     203    49.15516   22.67631    71.83148   0.00015   138   %  2.9663
    27.600     205    48.65123   23.18017    71.83140   0.00008   139   %  2.9578
    27.800     207    48.22859   23.60274    71.83133   0.00001   140   %  2.9488
    28.000     209    47.88665   23.94462    71.83127  -0.00005   141   %  2.9394
    28.200     211    47.62211   24.20910    71.83121  -0.00010   142   %  2.9296
    28.400     213    47.42936   24.40180    71.83116  -0.00015   143   %  2.9195
    28.600     215    47.30082   24.53030    71.83112  -0.00019   144   %  2.9090
    28.800     217    47.22739   24.60370    71.83109  -0.00022   145   %  2.8982
    29.000     219    47.19894   24.63212    71.83106  -0.00024   146   %  2.8870
    29.200     221    47.20473   24.62632    71.83104  -0.00025   147   %  2.8755
    29.400     223    47.23390   24.59714    71.83104  -0.00026   148   %  2.8637
    29.600     225    47.27573   24.55531    71.83103  -0.00026   149   %  2.8517
    29.800     227    47.32018   24.51085    71.83103  -0.00025   150   %  2.8395
    30.000     229    47.35808   24.47296    71.83104  -0.00024   151   %  2.8271
    30.200     231    47.38139   24.44966    71.83105  -0.00023   152   %  2.8146
    30.400     233    47.38341   24.44766    71.83107  -0.00021   153   %  2.8021
    30.600     235    47.35894   24.47215    71.83109  -0.00019   154   %  2.7897
    30.800     237    47.30438   24.52672    71.83111  -0.00016   155   %  2.7773
    31.000     239    47.21784   24.61329    71.83113  -0.00014   156   %  2.7651
    31.200     241    47.09912   24.73203    71.83115  -0.00011   157   %  2.7532
    31.400     243    46.94980   24.88137    71.83117  -0.00009   158   %  2.7415
    31.600     245    46.77315   25.05805    71.83119  -0.00006   159   %  2.7301
    31.800     247    46.57412   25.25709    71.83121  -0.00004   160   %  2.7190
    32.000     249    46.35927   25.47196    71.83123  -0.00001   161   %  2.7083
    32.200     251    46.13660   25.69465    71.83125   0.00001   162   %  2.6979
    32.400     253    45.91541   25.91586    71.83127   0.00003   163   %  2.6879
    32.600     255    45.70610   26.12518    71.83128   0.00004   164   %  2.6783
    32.800     257    45.51989   26.31139    71.83129   0.00005   165   %  2.6692
    33.000     259    45.36852   26.46277    71.83129   0.00006   166   %  2.6605
    33.200     261    45.26379   26.56749    71.83128   0.00005   167   %  2.6524
    33.400     263    45.21732   26.61395    71.83127   0.00005   168   %  2.6448
    33.600     265    45.23986   26.59139    71.83125   0.00003   169   %  2.6378
    33.800     267    45.34089   26.49033    71.83122   0.00000   170   %  2.6316
    34.000     269    45.52811   26.30307    71.83118  -0.00003   171   %  2.6260
    34.200     271    45.80689   26.02424    71.83113  -0.00008   172   %  2.6212
    34.400     273    46.17983   25.65124    71.83107  -0.00014   173   %  2.6172
    34.600     275    46.64637   25.18464    71.83100  -0.00020   174   %  2.6141
    34.800     277    47.20247   24.62846    71.83093  -0.00026   175   %  2.6119
    35.000     279    47.84052   23.99034    71.83086  -0.00033   176   %  2.6107
    35.200     281    48.54932   23.28147    71.83080  -0.00039   177   %  2.6105
    35.400     283    49.31431   22.51643    71.83074  -0.00045   178   %  2.6113
    35.600     285    50.11795   21.71274    71.83068  -0.00050   179   %  2.6132
    35.800     287    50.94032   20.89032    71.83065  -0.00053   180   %  2.6162
    36.000     289    51.75989   20.07074    71.83063  -0.00055   181   %  2.6204
    36.200     291    52.55435   19.27627    71.83063  -0.00055   182   %  2.6258
    36.400     293    53.30168   18.52897    71.83064  -0.00053   183   %  2.6324
    36.600     295    53.98108   17.84960    71.83068  -0.00049   184   %  2.6402
    36.800     297    54.57408   17.25658    71.83066  -0.00051   185   %  2.6493
    37.000     299    55.06519   16.76546    71.83065  -0.00051   186   %  2.6597
    37.200     301    55.44282   16.38790    71.83072  -0.00045   187   %  2.6713
    37.400     302    55.70014   16.13073    71.83087  -0.00029   188   %  2.6842
    37.600     303    55.83493   15.99623    71.83115  -0.00001   189   %  2.6983
    37.800     305    55.84969   15.98169    71.83138   0.00022   190   %  2.7137
    38.000     307    55.75218   16.07926    71.83144   0.00029   191   %  2.7303
    38.200     309    55.55394   16.27750    71.83144   0.00028   192   %  2.7481
    38.400     311    55.27026   16.56122    71.83149   0.00034   193   %  2.7671
    38.600     313    54.91920   16.91233    71.83153   0.00038   194   %  2.7872
    38.800     315    54.52055   17.31100    71.83155   0.00041   195   %  2.8084
    39.000     317    54.09495   17.73661    71.83156   0.00042   196   %  2.8307
    39.200     319    53.66281   18.16874    71.83155   0.00041   197   %  2.8540
    39.400     321    53.24341   18.58812    71.83153   0.00039   198   %  2.8783
    39.600     323    52.85409   18.97741    71.83149   0.00036   199   %  2.9035
    39.800     325    52.50958   19.32187    71.83145   0.00031   200   %  2.9297


           INITIAL VELOCITY IN DRC (Angstroms/Femtosecond)
         0.06807        -0.00802         0.01466
        -0.30836        -0.49487         0.00877
        -0.03737         0.05600        -0.01474
         0.01084         0.00179         0.02375
        -0.07365         0.04991         0.00258
        -0.00914         0.00317         0.00930
         0.00229         0.00491         0.00062
         0.00799        -0.00696        -0.00901
         0.07177        -0.03361        -0.00397
        -0.00170         0.00899        -0.02561
        -0.01391        -0.01870         0.00125
 THE VIBRATIONAL FREQUENCY ( -1490.97CM(-1)) IS TOO SMALL
 FOR ONE QUANTUM TO BE USED
 INSTEAD 0.3KCAL/MOLE WILL BE USED TO START THE IRC

 TIME PRIORITY, INTERVAL = 0.20 FEMTOSECONDS



 FEMTOSECONDS  POINT  POTENTIAL + KINETIC  =   TOTAL     ERROR    REF%   MOVEMENT
     0.000       1    71.53162    0.30000    71.83162   0.00000     1   %  0.0000
     0.200       1    71.53027    0.05636    71.58663  -0.24499     2   %  0.0045
     0.400       1    71.52655   -0.13303    71.39352  -0.43810     3   %  0.0089
     0.600       1    71.52047   -0.26817    71.25230  -0.57932     4   %  0.0134
     0.800       1    71.51202   -0.34906    71.16296  -0.66866     5   %  0.0179
     1.000       1    71.50120   -0.37569    71.12551  -0.70611     6   %  0.0225
     1.200       1    71.48802   -0.34808    71.13995  -0.69167     7   %  0.0270
     1.400       1    71.47247   -0.26621    71.20627  -0.62535     8   %  0.0316
     1.600       1    71.45456   -0.13008    71.32448  -0.50714     9   %  0.0362
     1.800       1    71.43428    0.06029    71.49457  -0.33705    10   %  0.0408
     2.000       1    71.41163    0.30492    71.71655  -0.11507    11   %  0.0454
     2.200       1    71.38662    0.60380    71.99042   0.15880    12   %  0.0501
     2.400       5    71.34984    0.48172    71.83156  -0.00006    13   %  0.0562
     2.600       7    71.31084    0.52068    71.83152  -0.00010    14   %  0.0621
     2.800       8    71.26629    0.56520    71.83149  -0.00013    15   %  0.0683
     3.000      10    71.21557    0.61588    71.83145  -0.00017    16   %  0.0746
     3.200      11    71.15795    0.67346    71.83140  -0.00022    17   %  0.0813
     3.400      12    71.09259    0.73876    71.83134  -0.00027    18   %  0.0883
     3.600      14    71.01862    0.81265    71.83127  -0.00035    19   %  0.0956
     3.800      15    70.93504    0.89615    71.83118  -0.00044    20   %  0.1032
     4.000      16    70.84068    0.99040    71.83108  -0.00054    21   %  0.1112
     4.200      17    70.73429    1.09666    71.83095  -0.00067    22   %  0.1196
     4.400      18    70.61448    1.21633    71.83080  -0.00082    23   %  0.1284
     4.600      19    70.47969    1.35094    71.83063  -0.00099    24   %  0.1377
     4.800      19    70.32830    1.50212    71.83042  -0.00119    25   %  0.1475
     5.000      20    70.15860    1.67159    71.83019  -0.00143    26   %  0.1578
     5.200      21    69.96839    1.86175    71.83013  -0.00148    27   %  0.1687
     5.400      22    69.75565    2.07472    71.83037  -0.00125    28   %  0.1802
     5.600      23    69.51804    2.31211    71.83015  -0.00147    29   %  0.1923
     5.800      24    69.25313    2.57695    71.83009  -0.00153    30   %  0.2050
     6.000      25    68.95840    2.87173    71.83013  -0.00149    31   %  0.2185
     6.200      26    68.63113    3.19888    71.83001  -0.00161    32   %  0.2327
     6.400      27    68.26856    3.56139    71.82995  -0.00166    33   %  0.2476
     6.600      28    67.86791    3.96200    71.82991  -0.00170    34   %  0.2634
     6.800      29    67.42633    4.40348    71.82981  -0.00180    35   %  0.2801
     7.000      30    66.94106    4.88867    71.82973  -0.00188    36   %  0.2976
     7.200      31    66.40945    5.42020    71.82965  -0.00197    37   %  0.3161
     7.400      32    65.82900    6.00054    71.82954  -0.00207    38   %  0.3356
     7.600      33    65.19752    6.63193    71.82945  -0.00216    39   %  0.3560
     7.800      34    64.51300    7.31604    71.82904  -0.00257    40   %  0.3776
     8.000      35    63.77412    8.05602    71.83014  -0.00147    41   %  0.4002
     8.200      36    62.97998    8.85099    71.83097  -0.00064    42   %  0.4239
     8.400      36    62.13045    9.70020    71.83065  -0.00095    43   %  0.4487
     8.600      37    61.22572   10.60541    71.83113  -0.00047    44   %  0.4748
     8.800      38    60.26707   11.56461    71.83167   0.00007    45   %  0.5020
     9.000      39    59.25700   12.57534    71.83234   0.00074    46   %  0.5304
     9.200      39    58.19902   13.63414    71.83316   0.00156    47   %  0.5601
     9.400      40    57.09505   14.73907    71.83412   0.00252    48   %  0.5909
     9.600      41    55.95221   15.88301    71.83522   0.00363    49   %  0.6231
     9.800      41    54.77687   17.05957    71.83644   0.00485    50   %  0.6564
    10.000      42    53.57278   18.26695    71.83973   0.00814    51   %  0.6911
    10.200      43    52.35200   19.48603    71.83804   0.00645    52   %  0.7269
    10.400      44    51.11883   20.71447    71.83330   0.00171    53   %  0.7639
    10.600      45    49.88408   21.94850    71.83258   0.00100    54   %  0.8022
    10.800      46    48.65668   23.17575    71.83242   0.00084    55   %  0.8416
    11.000      47    47.44678   24.38509    71.83188   0.00030    56   %  0.8821
    11.200      49    46.26366   25.56826    71.83192   0.00035    57   %  0.9237
    11.400      51    45.11775   26.71418    71.83193   0.00036    58   %  0.9664
    11.600      53    44.01869   27.81323    71.83192   0.00036    59   %  1.0101
    11.800      55    42.97594   28.85594    71.83188   0.00032    60   %  1.0548
    12.000      57    41.99862   29.83323    71.83186   0.00030    61   %  1.1003
    12.200      59    41.09530   30.73656    71.83186   0.00030    62   %  1.1467
    12.400      61    40.27383   31.55802    71.83186   0.00031    63   %  1.1939
    12.600      63    39.54134   32.29052    71.83186   0.00031    64   %  1.2419
    12.800      65    38.90407   32.92779    71.83186   0.00032    65   %  1.2904
    13.000      67    38.36730   33.46455    71.83186   0.00032    66   %  1.3396
    13.200      69    37.93533   33.89653    71.83186   0.00033    67   %  1.3892
    13.400      71    37.61134   34.22053    71.83187   0.00034    68   %  1.4393
    13.600      73    37.39740   34.43448    71.83188   0.00036    69   %  1.4898
    13.800      75    37.29439   34.53751    71.83190   0.00038    70   %  1.5405
    14.000      77    37.30201   34.52991    71.83192   0.00041    71   %  1.5913
    14.200      79    37.41875   34.41320    71.83195   0.00045    72   %  1.6423
    14.400      81    37.64190   34.19009    71.83199   0.00049    73   %  1.6933
    14.600      83    37.96756   33.86447    71.83203   0.00053    74   %  1.7442
    14.800      85    38.39072   33.44135    71.83207   0.00058    75   %  1.7950
    15.000      87    38.90530   32.92680    71.83210   0.00062    76   %  1.8455
    15.200      89    39.50428   32.32785    71.83213   0.00065    77   %  1.8957
    15.400      91    40.17974   31.65241    71.83215   0.00067    78   %  1.9455
    15.600      93    40.92309   30.90909    71.83219   0.00071    79   %  1.9947
    15.800      95    41.72506   30.10710    71.83216   0.00069    80   %  2.0434
    16.000      97    42.57604   29.25612    71.83216   0.00069    81   %  2.0915
    16.200      99    43.46611   28.36605    71.83216   0.00070    82   %  2.1388
    16.400     100    44.38529   27.44690    71.83220   0.00074    83   %  2.1853
    16.600     102    45.32370   26.50853    71.83222   0.00077    84   %  2.2309
    16.800     104    46.27157   25.56067    71.83225   0.00080    85   %  2.2756
    17.000     106    47.21958   24.61269    71.83227   0.00082    86   %  2.3192
    17.200     108    48.15887   23.67342    71.83229   0.00084    87   %  2.3618
    17.400     109    49.08143   22.75086    71.83229   0.00085    88   %  2.4033
    17.600     111    49.97982   21.85247    71.83229   0.00085    89   %  2.4436
    17.800     113    50.84741   20.98486    71.83227   0.00084    90   %  2.4827
    18.000     115    51.67858   20.15366    71.83224   0.00081    91   %  2.5205
    18.200     116    52.46873   19.36346    71.83219   0.00076    92   %  2.5570
    18.400     118    53.21414   18.61799    71.83213   0.00070    93   %  2.5922
    18.600     120    53.91216   17.91989    71.83206   0.00063    94   %  2.6260
    18.800     122    54.56119   17.27079    71.83198   0.00056    95   %  2.6584
    19.000     124    55.16061   16.67132    71.83193   0.00052    96   %  2.6894
    19.200     126    55.71078   16.12109    71.83187   0.00046    97   %  2.7190
    19.400     128    56.21298   15.61883    71.83181   0.00039    98   %  2.7472
    19.600     130    56.66932   15.16242    71.83174   0.00033    99   %  2.7739
    19.800     132    57.08269   14.74898    71.83167   0.00026   100   %  2.7992
    20.000     134    57.45656   14.37503    71.83160   0.00019   101   %  2.8231
    20.200     136    57.79502   14.03652    71.83154   0.00014   102   %  2.8455
    20.400     138    58.10237   13.72911    71.83148   0.00008   103   %  2.8666
    20.600     140    58.38314   13.44829    71.83143   0.00003   104   %  2.8862
    20.800     142    58.64178   13.18960    71.83139  -0.00001   105   %  2.9044
    21.000     144    58.88251   12.94884    71.83135  -0.00005   106   %  2.9213
    21.200     146    59.10902   12.72229    71.83131  -0.00009   107   %  2.9368
    21.400     148    59.32429   12.50699    71.83128  -0.00012   108   %  2.9511
    21.600     150    59.53035   12.30090    71.83124  -0.00015   109   %  2.9641
    21.800     152    59.72806   12.10315    71.83121  -0.00018   110   %  2.9758
    22.000     154    59.91698   11.91420    71.83119  -0.00020   111   %  2.9864
    22.200     156    60.09519   11.73597    71.83116  -0.00023   112   %  2.9958
    22.400     158    60.25927   11.57186    71.83114  -0.00025   113   %  3.0040
    22.600     160    60.40433   11.42679    71.83111  -0.00027   114   %  3.0112
    22.800     162    60.52407   11.30703    71.83110  -0.00028   115   %  3.0174
    23.000     164    60.61103   11.22006    71.83109  -0.00029   116   %  3.0226
    23.200     166    60.65688   11.17420    71.83109  -0.00029   117   %  3.0268
    23.400     168    60.65279   11.17831    71.83110  -0.00028   118   %  3.0302
    23.600     170    60.58988   11.24123    71.83111  -0.00026   119   %  3.0326
    23.800     172    60.45981   11.37133    71.83114  -0.00024   120   %  3.0343
    24.000     174    60.25523   11.57591    71.83113  -0.00024   121   %  3.0352
    24.200     176    59.97032   11.86086    71.83118  -0.00020   122   %  3.0353
    24.400     177    59.60147   12.22981    71.83128  -0.00009   123   %  3.0347
    24.600     179    59.14747   12.68399    71.83146   0.00009   124   %  3.0335
    24.800     180    58.60981   13.22194    71.83175   0.00038   125   %  3.0316
    25.000     181    57.99343   13.83875    71.83218   0.00081   126   %  3.0291
    25.200     183    57.30586   14.52636    71.83221   0.00085   127   %  3.0261
    25.400     184    56.55735   15.27473    71.83208   0.00072   128   %  3.0225
    25.600     186    55.76098   16.07094    71.83192   0.00056   129   %  3.0183
    25.800     188    54.93161   16.90022    71.83183   0.00048   130   %  3.0137
    26.000     190    54.08544   17.74638    71.83183   0.00047   131   %  3.0086
    26.200     192    53.23932   18.59247    71.83180   0.00045   132   %  3.0030
    26.400     194    52.40998   19.42177    71.83175   0.00041   133   %  2.9970
    26.600     196    51.61333   20.21837    71.83170   0.00035   134   %  2.9905
    26.800     198    50.86375   20.96788    71.83163   0.00029   135   %  2.9836
    27.000     200    50.17358   21.65799    71.83156   0.00022   136   %  2.9763
    27.200     202    49.55258   22.27891    71.83149   0.00016   137   %  2.9685
    27.400     204    49.00772   22.82370    71.83142   0.00009   138   %  2.9604
    27.600     206    48.54296   23.28840    71.83136   0.00002   139   %  2.9519
    27.800     208    48.15930   23.67199    71.83129  -0.00003   140   %  2.9430
    28.000     210    47.85494   23.97630    71.83124  -0.00009   141   %  2.9336
    28.200     212    47.62551   24.20569    71.83119  -0.00013   142   %  2.9240
    28.400     214    47.46444   24.36672    71.83115  -0.00016   143   %  2.9139
    28.600     216    47.36341   24.46772    71.83113  -0.00019   144   %  2.9034
    28.800     218    47.31276   24.51835    71.83111  -0.00020   145   %  2.8927
    29.000     220    47.30200   24.52909    71.83110  -0.00021   146   %  2.8815
    29.200     222    47.32025   24.51087    71.83112  -0.00019   147   %  2.8701
    29.400     224    47.35660   24.47450    71.83110  -0.00020   148   %  2.8584
    29.600     226    47.40056   24.43054    71.83111  -0.00019   149   %  2.8465
    29.800     228    47.44241   24.38871    71.83112  -0.00017   150   %  2.8344
    30.000     230    47.47341   24.35773    71.83114  -0.00015   151   %  2.8221
    30.200     232    47.48607   24.34509    71.83116  -0.00013   152   %  2.8097
    30.400     234    47.47430   24.35688    71.83118  -0.00010   153   %  2.7974
    30.600     236    47.43361   24.39760    71.83120  -0.00008   154   %  2.7851
    30.800     238    47.36112   24.47011    71.83123  -0.00005   155   %  2.7729
    31.000     240    47.25570   24.57555    71.83125  -0.00002   156   %  2.7609
    31.200     242    47.11794   24.71333    71.83127   0.00001   157   %  2.7491
    31.400     244    46.95020   24.88110    71.83130   0.00003   158   %  2.7375
    31.600     246    46.75652   25.07480    71.83132   0.00006   159   %  2.7262
    31.800     248    46.54262   25.28873    71.83134   0.00008   160   %  2.7153
    32.000     250    46.31573   25.51564    71.83136   0.00011   161   %  2.7046
    32.200     252    46.08452   25.74686    71.83138   0.00013   162   %  2.6942
    32.400     254    45.85888   25.97252    71.83140   0.00015   163   %  2.6842
    32.600     256    45.64967   26.18174    71.83141   0.00017   164   %  2.6746
    32.800     258    45.46848   26.36294    71.83142   0.00018   165   %  2.6654
    33.000     260    45.32722   26.50418    71.83140   0.00016   166   %  2.6567
    33.200     262    45.23780   26.59361    71.83141   0.00018   167   %  2.6484
    33.400     264    45.21163   26.61976    71.83139   0.00016   168   %  2.6407
    33.600     266    45.25911   26.57226    71.83137   0.00014   169   %  2.6336
    33.800     268    45.38913   26.44220    71.83133   0.00011   170   %  2.6272
    34.000     270    45.60857   26.22272    71.83129   0.00007   171   %  2.6215
    34.200     272    45.92176   25.90947    71.83123   0.00002   172   %  2.6166
    34.400     274    46.33009   25.50107    71.83117  -0.00005   173   %  2.6126
    34.600     276    46.83160   24.99949    71.83109  -0.00011   174   %  2.6095
    34.800     278    47.42078   24.41024    71.83102  -0.00019   175   %  2.6073
    35.000     280    48.08847   23.74248    71.83094  -0.00026   176   %  2.6061
    35.200     282    48.82196   23.00891    71.83087  -0.00033   177   %  2.6060
    35.400     284    49.60530   22.22551    71.83081  -0.00039   178   %  2.6070
    35.600     286    50.41975   21.41100    71.83075  -0.00044   179   %  2.6090
    35.800     288    51.24447   20.58625    71.83071  -0.00048   180   %  2.6123
    36.000     290    52.05730   19.77339    71.83069  -0.00050   181   %  2.6167
    36.200     292    52.83575   18.99493    71.83068  -0.00050   182   %  2.6223
    36.400     294    53.55800   18.27270    71.83070  -0.00049   183   %  2.6292
    36.600     296    54.20391   17.62680    71.83071  -0.00047   184   %  2.6373
    36.800     298    54.75596   17.07470    71.83067  -0.00051   185   %  2.6467
    37.000     300    55.20005   16.63061    71.83066  -0.00051   186   %  2.6574
    37.200     301    55.52664   16.30409    71.83074  -0.00044   187   %  2.6694
    37.400     302    55.73043   16.10049    71.83092  -0.00025   188   %  2.6827
    37.600     304    55.81116   16.02006    71.83122   0.00005   189   %  2.6972
    37.800     306    55.77391   16.05753    71.83143   0.00027   190   %  2.7131
    38.000     307    55.62780   16.20368    71.83148   0.00032   191   %  2.7301
    38.200     309    55.38626   16.44525    71.83151   0.00034   192   %  2.7484
    38.400     311    55.06599   16.76557    71.83157   0.00041   193   %  2.7679
    38.600     313    54.68607   17.14553    71.83160   0.00044   194   %  2.7884
    38.800     315    54.26696   17.56465    71.83162   0.00046   195   %  2.8101
    39.000     317    53.82952   18.00210    71.83162   0.00046   196   %  2.8329
    39.200     319    53.39398   18.43761    71.83160   0.00045   197   %  2.8567
    39.400     321    52.97912   18.85245    71.83157   0.00042   198   %  2.8815
    39.600     323    52.60140   19.23012    71.83153   0.00038   199   %  2.9072
    39.800     325    52.27449   19.55699    71.83148   0.00034   200   %  2.9338



 **********************
 *                    *
 * JOB ENDED NORMALLY *
 *                    *
 **********************



 TOTAL JOB TIME:             5.53 SECONDS

 == MOPAC DONE ==
