 *******************************************************************************
 ** Site#: 37037        For non-commercial use only           Version 21.153W **
 *******************************************************************************
 ** Cite this program as: MOPAC2016, Version: 21.153W, James J. P. Stewart,   **
 ** Stewart Computational Chemistry, web: HTTP://OpenMOPAC.net. Days left: 364**
 *******************************************************************************
 **                                                                           **
 **                                MOPAC2016                                  **
 **                                                                           **
 *******************************************************************************

                              PM7 CALCULATION RESULTS

 *******************************************************************************
 *  CALCULATION DONE:                                Thu Jun  3 15:21:15 2021  *
 *  GEO-OK     - OVERRIDE INTERATOMIC DISTANCE AND OTHER SAFETY CHECKS
 *  GEO_DAT    - DATA SET GEOMETRY IS IN FILE "Cyclopentadiene_2.arc"
 *  GEO_REF    - REFERENCE GEOMETRY IS IN FILE "Cyclopentadiene_1.arc"
 *               (NO BIAS TOWARDS THE REFERENCE GEOMETRY WILL BE APPLIED)
 *  RESIDUES   - DETERMINE THE SEQUENCE OF RESIDUES
 *  OPT        - OPTIMIZE COORDINATES OF ALL ATOMS
 *  LOCATE-TS  - LOCATE A TRANSITION STATE USING REACTANTS AND PRODUCTS
 *  T=         - A TIME OF 172800.0 SECONDS REQUESTED
 *  DUMP=N     - RESTART FILE WRITTEN EVERY 7200.0 SECONDS REQUESTED
 *  HTML       - WRITE HTML SCRIPT TO READ PDB FILE USING JSMOL
 *******************************************************************************
geo-ok geo_ref="Cyclopentadiene_1.arc" geo_dat="Cyclopentadiene_2.arc" locate-ts(C:30,120,120;SET:1) opt  HTML
 Transition state for narcissistic Cyclopentadiene proton shift

   ATOM   CHEMICAL          X               Y               Z
  NUMBER   SYMBOL      (ANGSTROMS)     (ANGSTROMS)     (ANGSTROMS)
 
     1       C         -0.11905107  *  -0.76862200  *   0.96879338  *
     2       H          0.56792568  *  -1.58770311  *   1.24993387  *
     3       C          0.58946947  *   0.56414086  *   0.90206772  *
     4       C          0.47868927  *   1.07212453  *  -0.34723955  *
     5       H         -0.93275824  *  -0.76647831  *   1.71713669  *
     6       H         -1.20866895  *  -1.79429181  *  -0.72819498  *
     7       H         -0.50780611  *   0.33108144  *  -2.21317221  *
     8       H          0.86886163  *   1.99778632  *  -0.72135680  *
     9       H          1.08245121  *   0.98009452  *   1.75518948  *
    10       C         -0.64647040  *  -0.93236638  *  -0.43742253  *
    11       C         -0.29055774  *   0.14060712  *  -1.18098237  *
 

                        After docking

                     Atoms that move a lot

                     Atom Label             GEO_REF Coordinates       Movement    Integral

            (HETATM    2 1H2  HET A   1)   1.675   0.216   1.249        1.69         1.69
            (HETATM    9 2H2  HET A   1)   0.262   1.181   1.717        0.70         2.40
            (HETATM    5  H1  HET A   1)  -0.380  -1.407   1.757        0.70         3.10
            (HETATM    6  H4  HET A   1)  -1.386  -1.680  -0.718        0.63         3.73
            (HETATM    8  H3  HET A   1)   1.051   1.891  -0.730        0.63         4.36
            (HETATM    1  C1  HET A   1)  -0.234  -0.780   0.904        0.37         4.73
            (HETATM    3  C2  HET A   1)   0.633   0.456   0.969        0.37         5.10
            (HETATM   10  C4  HET A   1)  -0.738  -0.913  -0.345        0.34         5.44
            (HETATM    4  C3  HET A   1)   0.538   0.999  -0.438        0.34         5.77
            (HETATM   11  C5  HET A   1)  -0.258   0.195  -1.180        0.0376       5.81

     Residues that move a lot and their (Movement in Angstroms, per atom)


   Difference between GEO_DAT and GEO_REF: 5.835 = total,  0.5305 = Average,  0.6846 = RMS, in Angstroms

 General Reference for PM7:
 "Optimization of Parameters for Semiempirical Methods VI: More Modifications to the 
 NDDO Approximations and Re-optimization of Parameters", J. J. P. Stewart, J. Mol. Mod., 1:32, 19 (2013)
 https://link.springer.com/article/10.1007/s00894-012-1667-x

           Empirical Formula: C5 H6  =    11 atoms



      MOLECULAR POINT GROUP   :   C2v 

          COMPUTED CHARGE ON SYSTEM: +0

 Set 1: Atoms involved in covalent bond-breaking and bond-making                  Connectivity of atoms

                                                                             Data-set                  Reference
                                     (PDB labels from GEO-REF)
   1    Atom:   C     1  PDB Label: (HETATM    1  C1  HET A   1)           2     3     5    10        3     5    10
   2    Atom:   H     2  PDB Label: (HETATM    2 1H1  HET A   1)           1                          3
   3    Atom:   C     3  PDB Label: (HETATM    3  C2  HET A   1)           1     4     9              1     2     4     9

 Set 2 : Atoms involved in covalent bond-breaking and bond-making, plus nearest neighbors

   1    Atom:   C     1  PDB Label: (HETATM    1  C1  HET A   1)
   2    Atom:   H     2  PDB Label: (HETATM    2 1H1  HET A   1)
   3    Atom:   C     3  PDB Label: (HETATM    3  C2  HET A   1)
   4    Atom:   H     5  PDB Label: (HETATM    5 2H1  HET A   1)
   5    Atom:   C    10  PDB Label: (HETATM   10  C4  HET A   1)
   6    Atom:   C     4  PDB Label: (HETATM    4  C3  HET A   1)
   7    Atom:   H     9  PDB Label: (HETATM    9  H2  HET A   1)

          Set 1 selected by keywork 'SET' within keyword 'LOCATE-TS'

          Current value of GEO_REF constraint:                 30.00  Kcal/mol/Angstrom^2
          Distance between the geometries:                      5.84  Angstroms

          Heat of formation of the first geometry:             32.295 Kcal/mol
          Heat of formation of the second geometry:            32.296 Kcal/mol
          Contribution to heat of formation due to stress:    309.359  Kcal/mol
          Gradient arising from first geometry:               272.466  Kcal/mol/Angstrom
          Gradient arising from second geometry:              272.486  Kcal/mol/Angstrom
          Angle between gradient vectors:                     179.76  degrees

 CYCLE:     1 TIME:   0.016 TIME LEFT:  2.00D  GRAD.:   192.667 HEAT:  373.9505
 CYCLE:     2 TIME:   0.000 TIME LEFT:  2.00D  GRAD.:   191.976 HEAT:  373.3944
 CYCLE:     3 TIME:   0.000 TIME LEFT:  2.00D  GRAD.:   808.981 HEAT:  325.6282
 CYCLE:     4 TIME:   0.000 TIME LEFT:  2.00D  GRAD.:   215.436 HEAT:  227.4538
 CYCLE:     5 TIME:   0.000 TIME LEFT:  2.00D  GRAD.:   112.061 HEAT:  218.2290
 CYCLE:     6 TIME:   0.016 TIME LEFT:  2.00D  GRAD.:    77.911 HEAT:  225.7261
 CYCLE:     7 TIME:   0.000 TIME LEFT:  2.00D  GRAD.:    38.506 HEAT:  220.7038
 CYCLE:     8 TIME:   0.000 TIME LEFT:  2.00D  GRAD.:    24.567 HEAT:  220.1196
 CYCLE:     9 TIME:   0.000 TIME LEFT:  2.00D  GRAD.:    23.838 HEAT:  219.3601
 CYCLE:    10 TIME:   0.016 TIME LEFT:  2.00D  GRAD.:    18.564 HEAT:  218.7840
 CYCLE:    11 TIME:   0.000 TIME LEFT:  2.00D  GRAD.:    13.072 HEAT:  218.8219
 CYCLE:    12 TIME:   0.000 TIME LEFT:  2.00D  GRAD.:    12.753 HEAT:  218.8317
 CYCLE:    13 TIME:   0.000 TIME LEFT:  2.00D  GRAD.:     5.978 HEAT:  218.6396
 CYCLE:    14 TIME:   0.016 TIME LEFT:  2.00D  GRAD.:     4.704 HEAT:  218.4912
 CYCLE:    15 TIME:   0.000 TIME LEFT:  2.00D  GRAD.:     4.314 HEAT:  218.4409
 CYCLE:    16 TIME:   0.000 TIME LEFT:  2.00D  GRAD.:     5.201 HEAT:  218.3736
 CYCLE:    17 TIME:   0.000 TIME LEFT:  2.00D  GRAD.:     4.462 HEAT:  218.3241
 CYCLE:    18 TIME:   0.016 TIME LEFT:  2.00D  GRAD.:     1.791 HEAT:  218.3058

     GRADIENT =  1.79051 IS LESS THAN CUTOFF =  4.00000



          First geometry (derived from data-set) after optimization subject to 
          GEO_REF constraint of 30.0 Kcal/mol/Angstrom^2 towards the reference geometry written to file:
          'M:/OpenMOPAC_NET/Manual/Individual JSmol paths/Cyclopentadiene/Locate_TS bias=30.0 first.mop'


          Second geometry (derived from reference geometry)after optimization subject to 
          GEO_REF constraint of 30.0 Kcal/mol/Angstrom^2 towards the data-set geometry written to file:
          'M:/OpenMOPAC_NET/Manual/Individual JSmol paths/Cyclopentadiene/Locate_TS bias=30.0 second.mop'


          Job name: 'M:/OpenMOPAC_NET/Manual/Individual JSmol paths/Cyclopentadiene/Locate_TS'

          Current value of GEO_REF constraint:                 30.00  Kcal/mol/Angstrom^2
          Distance between the geometries:                    3.76  Angstroms

                     Atoms that move a lot

                     Atom Label             GEO_REF Coordinates       Movement    Integral

            (HETATM    2 1H1  HET A   1)   1.587  -0.102   1.235        1.05         1.05
            (HETATM    5 2H1  HET A   1)  -0.455  -1.281   1.791        0.39         1.44
            (HETATM    9  H2  HET A   1)   0.424   1.222   1.728        0.39         1.83
            (HETATM    1  C1  HET A   1)  -0.223  -0.753   0.904        0.34         2.17
            (HETATM    3  C2  HET A   1)   0.643   0.462   0.958        0.34         2.52
            (HETATM    6  H4  HET A   1)  -1.253  -1.741  -0.721        0.32         2.84
            (HETATM    8  H3  HET A   1)   0.913   1.989  -0.736        0.32         3.15
            (HETATM   10  C4  HET A   1)  -0.701  -0.906  -0.350        0.25         3.40
            (HETATM    4  C3  HET A   1)   0.504   1.041  -0.437        0.25         3.65
            (HETATM   11  C5  HET A   1)  -0.269   0.218  -1.183        0.0697       3.72

     Residues that move a lot and their (Movement in Angstroms, per atom)


          Heat of formation of the first geometry:             50.041 Kcal/mol
          Heat of formation of the second geometry:            50.075 Kcal/mol
          Contribution to heat of formation due to stress:    118.190  Kcal/mol
          Gradient arising from first geometry:                84.259  Kcal/mol/Angstrom
          Gradient arising from second geometry:               84.123  Kcal/mol/Angstrom
          Angle between gradient vectors:                     178.92  degrees


          Average of first and second geometries after optimization subject to 
          GEO_REF constraint of 30.0 Kcal/mol/Angstrom^2 towards the data-set geometry written to file:
          'M:/OpenMOPAC_NET/Manual/Individual JSmol paths/Cyclopentadiene/Locate_TS bias=30.0 average.mop'

 CYCLE:     1 TIME:   0.000 TIME LEFT:  2.00D  GRAD.:   427.392 HEAT:  550.7679
 CYCLE:     2 TIME:   0.016 TIME LEFT:  2.00D  GRAD.:   424.195 HEAT:  547.9387
 CYCLE:     3 TIME:   0.000 TIME LEFT:  2.00D  GRAD.:   722.081 HEAT:  366.2968
 CYCLE:     4 TIME:   0.000 TIME LEFT:  2.00D  GRAD.:   601.034 HEAT:  331.4741
 CYCLE:     5 TIME:   0.000 TIME LEFT:  2.00D  GRAD.:   256.032 HEAT:  233.1581
 CYCLE:     6 TIME:   0.016 TIME LEFT:  2.00D  GRAD.:   199.185 HEAT:  273.6493
 CYCLE:     7 TIME:   0.000 TIME LEFT:  2.00D  GRAD.:    87.982 HEAT:  258.7280
 CYCLE:     8 TIME:   0.000 TIME LEFT:  2.00D  GRAD.:    79.285 HEAT:  234.5969
 CYCLE:     9 TIME:   0.000 TIME LEFT:  2.00D  GRAD.:    62.487 HEAT:  228.4381
 CYCLE:    10 TIME:   0.016 TIME LEFT:  2.00D  GRAD.:    34.185 HEAT:  238.0579
 CYCLE:    11 TIME:   0.000 TIME LEFT:  2.00D  GRAD.:    16.790 HEAT:  239.9367
 CYCLE:    12 TIME:   0.000 TIME LEFT:  2.00D  GRAD.:    18.746 HEAT:  234.7085
 CYCLE:    13 TIME:   0.000 TIME LEFT:  2.00D  GRAD.:     9.939 HEAT:  233.8582
 CYCLE:    14 TIME:   0.016 TIME LEFT:  2.00D  GRAD.:    16.448 HEAT:  237.2634
 CYCLE:    15 TIME:   0.000 TIME LEFT:  2.00D  GRAD.:     8.414 HEAT:  237.4468
 CYCLE:    16 TIME:   0.000 TIME LEFT:  2.00D  GRAD.:     6.615 HEAT:  235.4486
 CYCLE:    17 TIME:   0.000 TIME LEFT:  2.00D  GRAD.:     4.863 HEAT:  235.0341
 CYCLE:    18 TIME:   0.016 TIME LEFT:  2.00D  GRAD.:    10.411 HEAT:  237.0232
 CYCLE:    19 TIME:   0.000 TIME LEFT:  2.00D  GRAD.:     5.989 HEAT:  236.9251
 CYCLE:    20 TIME:   0.000 TIME LEFT:  2.00D  GRAD.:     3.880 HEAT:  235.4961

     GRADIENT =  3.88024 IS LESS THAN CUTOFF =  4.00000



          First geometry (derived from data-set) after optimization subject to 
          GEO_REF constraint of 120.0 Kcal/mol/Angstrom^2 towards the reference geometry written to file:
          'M:/OpenMOPAC_NET/Manual/Individual JSmol paths/Cyclopentadiene/Locate_TS bias=120.0 first.mop'


          Second geometry (derived from reference geometry)after optimization subject to 
          GEO_REF constraint of 120.0 Kcal/mol/Angstrom^2 towards the data-set geometry written to file:
          'M:/OpenMOPAC_NET/Manual/Individual JSmol paths/Cyclopentadiene/Locate_TS bias=120.0 second.mop'


          Job name: 'M:/OpenMOPAC_NET/Manual/Individual JSmol paths/Cyclopentadiene/Locate_TS'

          Current value of GEO_REF constraint:                120.00  Kcal/mol/Angstrom^2
          Distance between the geometries:                    1.65  Angstroms

                     Atoms that move a lot

                     Atom Label             GEO_REF Coordinates       Movement    Integral

            (HETATM    2 1H1  HET A   1)   1.463  -0.403   1.176        0.41         0.41
            (HETATM    3  C2  HET A   1)   0.644   0.500   0.947        0.27         0.68
            (HETATM    1  C1  HET A   1)  -0.199  -0.722   0.911        0.27         0.95
            (HETATM   10  C4  HET A   1)  -0.646  -0.919  -0.351        0.13         1.08
            (HETATM    4  C3  HET A   1)   0.462   1.083  -0.432        0.13         1.21
            (HETATM    5 2H1  HET A   1)  -0.508  -1.184   1.810        0.11         1.32
            (HETATM    9  H2  HET A   1)   0.590   1.255   1.749        0.10         1.42
            (HETATM   11  C5  HET A   1)  -0.279   0.221  -1.179        0.0756       1.50
            (HETATM    8  H3  HET A   1)   0.809   2.054  -0.744        0.0689       1.57
            (HETATM    6  H4  HET A   1)  -1.143  -1.796  -0.705        0.0689       1.64

     Residues that move a lot and their (Movement in Angstroms, per atom)


          Heat of formation of the first geometry:             71.815 Kcal/mol
          Heat of formation of the second geometry:            71.071 Kcal/mol
          Contribution to heat of formation due to stress:     92.611  Kcal/mol
          Gradient arising from first geometry:               147.324  Kcal/mol/Angstrom
          Gradient arising from second geometry:              148.133  Kcal/mol/Angstrom
          Angle between gradient vectors:                     178.44  degrees


          Average of first and second geometries after optimization subject to 
          GEO_REF constraint of 120.0 Kcal/mol/Angstrom^2 towards the data-set geometry written to file:
          'M:/OpenMOPAC_NET/Manual/Individual JSmol paths/Cyclopentadiene/Locate_TS bias=120.0 average.mop'

 CYCLE:     1 TIME:   0.016 TIME LEFT:  2.00D  GRAD.:   119.174 HEAT:  208.1746
 CYCLE:     2 TIME:   0.000 TIME LEFT:  2.00D  GRAD.:   117.227 HEAT:  207.9303
 CYCLE:     3 TIME:   0.000 TIME LEFT:  2.00D  GRAD.:    46.670 HEAT:  193.1571
 CYCLE:     4 TIME:   0.000 TIME LEFT:  2.00D  GRAD.:    45.893 HEAT:  183.2227
 CYCLE:     5 TIME:   0.016 TIME LEFT:  2.00D  GRAD.:    20.148 HEAT:  181.9731
 CYCLE:     6 TIME:   0.000 TIME LEFT:  2.00D  GRAD.:    16.929 HEAT:  182.7006
 CYCLE:     7 TIME:   0.000 TIME LEFT:  2.00D  GRAD.:    16.515 HEAT:  183.4318
 CYCLE:     8 TIME:   0.000 TIME LEFT:  2.00D  GRAD.:    18.610 HEAT:  183.8469
 CYCLE:     9 TIME:   0.016 TIME LEFT:  2.00D  GRAD.:     8.717 HEAT:  183.7252
 CYCLE:    10 TIME:   0.000 TIME LEFT:  2.00D  GRAD.:     7.437 HEAT:  183.4305
 CYCLE:    11 TIME:   0.000 TIME LEFT:  2.00D  GRAD.:     5.069 HEAT:  183.1559
 CYCLE:    12 TIME:   0.016 TIME LEFT:  2.00D  GRAD.:     5.479 HEAT:  183.0237
 CYCLE:    13 TIME:   0.000 TIME LEFT:  2.00D  GRAD.:     3.849 HEAT:  183.1008

     GRADIENT =  3.84921 IS LESS THAN CUTOFF =  4.00000



          First geometry (derived from data-set) after optimization subject to 
          GEO_REF constraint of 120.0 Kcal/mol/Angstrom^2 towards the reference geometry written to file:
          'M:/OpenMOPAC_NET/Manual/Individual JSmol paths/Cyclopentadiene/Locate_TS bias=120.0 first.mop'


          Second geometry (derived from reference geometry)after optimization subject to 
          GEO_REF constraint of 120.0 Kcal/mol/Angstrom^2 towards the data-set geometry written to file:
          'M:/OpenMOPAC_NET/Manual/Individual JSmol paths/Cyclopentadiene/Locate_TS bias=120.0 second.mop'


          Job name: 'M:/OpenMOPAC_NET/Manual/Individual JSmol paths/Cyclopentadiene/Locate_TS'

          Current value of GEO_REF constraint:                120.00  Kcal/mol/Angstrom^2
          Distance between the geometries:                    1.21  Angstroms

                     Atoms that move a lot

                     Atom Label             GEO_REF Coordinates       Movement    Integral

            (HETATM    2 1H1  HET A   1)   1.417  -0.433   1.103        0.31         0.31
            (HETATM    3  C2  HET A   1)   0.630   0.529   0.943        0.24         0.55
            (HETATM    1  C1  HET A   1)  -0.200  -0.707   0.924        0.24         0.79
            (HETATM   10  C4  HET A   1)  -0.629  -0.930  -0.348        0.0944       0.88
            (HETATM    4  C3  HET A   1)   0.448   1.096  -0.426        0.0930       0.97
            (HETATM   11  C5  HET A   1)  -0.280   0.214  -1.172        0.0617       1.04
            (HETATM    5 2H1  HET A   1)  -0.504  -1.183   1.821        0.0540       1.09
            (HETATM    9  H2  HET A   1)   0.645   1.254   1.764        0.0528       1.14
            (HETATM    6  H4  HET A   1)  -1.127  -1.807  -0.695        0.0343       1.18
            (HETATM    8  H3  HET A   1)   0.798   2.062  -0.740        0.0343       1.21

     Residues that move a lot and their (Movement in Angstroms, per atom)


          Heat of formation of the first geometry:             63.039 Kcal/mol
          Heat of formation of the second geometry:            62.594 Kcal/mol
          Contribution to heat of formation due to stress:     57.468  Kcal/mol
          Gradient arising from first geometry:               117.233  Kcal/mol/Angstrom
          Gradient arising from second geometry:              117.659  Kcal/mol/Angstrom
          Angle between gradient vectors:                     178.12  degrees


          Average of first and second geometries after optimization subject to 
          GEO_REF constraint of 120.0 Kcal/mol/Angstrom^2 towards the data-set geometry written to file:
          'M:/OpenMOPAC_NET/Manual/Individual JSmol paths/Cyclopentadiene/Locate_TS bias=120.0 average.mop'

  Loop:   1  Energy minimization, excluding active site, using L-BFGS

 CYCLE:     1 TIME:   0.016 TIME LEFT:  2.00D  GRAD.:    23.155 HEAT:  74.32746
 CYCLE:     2 TIME:   0.000 TIME LEFT:  2.00D  GRAD.:    22.758 HEAT:  74.31707
 CYCLE:     3 TIME:   0.000 TIME LEFT:  2.00D  GRAD.:    23.605 HEAT:  74.07440
 CYCLE:     4 TIME:   0.000 TIME LEFT:  2.00D  GRAD.:    22.926 HEAT:  74.31399
 CYCLE:     5 TIME:   0.016 TIME LEFT:  2.00D  GRAD.:    23.986 HEAT:  74.07537
 CYCLE:     6 TIME:   0.000 TIME LEFT:  2.00D  GRAD.:    16.388 HEAT:  73.88647
 CYCLE:     7 TIME:   0.000 TIME LEFT:  2.00D  GRAD.:    15.392 HEAT:  73.49434
 CYCLE:     8 TIME:   0.000 TIME LEFT:  2.00D  GRAD.:    13.920 HEAT:  73.25300
 CYCLE:     9 TIME:   0.016 TIME LEFT:  2.00D  GRAD.:    12.415 HEAT:  72.99010
 CYCLE:    10 TIME:   0.000 TIME LEFT:  2.00D  GRAD.:    17.125 HEAT:  72.91152
 CYCLE:    11 TIME:   0.000 TIME LEFT:  2.00D  GRAD.:     6.137 HEAT:  72.82911
 CYCLE:    12 TIME:   0.000 TIME LEFT:  2.00D  GRAD.:     5.121 HEAT:  72.79574
 CYCLE:    13 TIME:   0.016 TIME LEFT:  2.00D  GRAD.:     4.240 HEAT:  72.74419

     GRADIENT =  4.23957 IS LESS THAN CUTOFF =  5.00000


  Loop:   1  Gradient minimization of atoms in the active site using TS

          Transition state on cycle 1 written to file:
          'M:/OpenMOPAC_NET/Manual/Individual JSmol paths/Cyclopentadiene/Locate_TS Loop1.mop'


          HESSIAN CALCULATED NUMERICALLY

 CYCLE:     1 TIME:   0.016 TIME LEFT:  2.00D  GRAD.:    22.903 HEAT:  72.74340
 CYCLE:     2 TIME:   0.000 TIME LEFT:  2.00D  GRAD.:    18.044 HEAT:  71.67669
 CYCLE:     3 TIME:   0.016 TIME LEFT:  2.00D  GRAD.:    15.804 HEAT:  71.70853
 CYCLE:     4 TIME:   0.000 TIME LEFT:  2.00D  GRAD.:     6.502 HEAT:  71.71773
 CYCLE:     5 TIME:   0.000 TIME LEFT:  2.00D  GRAD.:     3.794 HEAT:  71.68827
 CYCLE:     6 TIME:   0.000 TIME LEFT:  2.00D  GRAD.:     4.809 HEAT:  71.69767
 CYCLE:     7 TIME:   0.016 TIME LEFT:  2.00D  GRAD.:     2.262 HEAT:  71.71414

     GRADIENT =  2.26234 IS LESS THAN CUTOFF =  3.00000


  Loop:   2  Energy minimization, excluding active site, using L-BFGS

 CYCLE:     1 TIME:   0.000 TIME LEFT:  2.00D  GRAD.:     8.033 HEAT:  71.71294
 CYCLE:     2 TIME:   0.016 TIME LEFT:  2.00D  GRAD.:     7.968 HEAT:  71.71226
 CYCLE:     3 TIME:   0.000 TIME LEFT:  2.00D  GRAD.:    14.909 HEAT:  71.69099
 CYCLE:     4 TIME:   0.016 TIME LEFT:  2.00D  GRAD.:     8.792 HEAT:  71.71362
 CYCLE:     5 TIME:   0.000 TIME LEFT:  2.00D  GRAD.:    17.476 HEAT:  71.70794
 CYCLE:     6 TIME:   0.016 TIME LEFT:  2.00D  GRAD.:     4.488 HEAT:  71.64646

     GRADIENT =  4.48755 IS LESS THAN CUTOFF =  5.00000


  Loop:   2  Gradient minimization of atoms in the active site using TS

          Transition state on cycle 2 written to file:
          'M:/OpenMOPAC_NET/Manual/Individual JSmol paths/Cyclopentadiene/Locate_TS Loop2.mop'


     GRADIENT =  2.91819 IS LESS THAN CUTOFF =  3.00000


  Loop:   3  Energy minimization, excluding active site, using L-BFGS

 CYCLE:     1 TIME:   0.016 TIME LEFT:  2.00D  GRAD.:     4.841 HEAT:  71.64560

     GRADIENT =  4.84119 IS LESS THAN CUTOFF =  5.00000


  Loop:   3  Gradient minimization of atoms in the active site using TS

          Transition state on cycle 3 written to file:
          'M:/OpenMOPAC_NET/Manual/Individual JSmol paths/Cyclopentadiene/Locate_TS Loop3.mop'


     GRADIENT =  2.79235 IS LESS THAN CUTOFF =  3.00000



 -------------------------------------------------------------------------------
 geo-ok HTML MOZYME
 Transition state for narcissistic Cyclopentadiene proton shift



     GRADIENTS WERE INITIALLY ACCEPTABLY SMALL                
     SCF FIELD WAS ACHIEVED                                   


                              PM7 CALCULATION
                                                       MOPAC2016 (Version: 21.153W)
                                                       Thu Jun  3 15:21:16 2021
                                                       No. of days remaining = 364




          FINAL HEAT OF FORMATION =         71.64557 KCAL/MOL =     299.76507 KJ/MOL


          TOTAL ENERGY            =       -692.36200 EV
          ELECTRONIC ENERGY       =      -2610.98009 EV
          CORE-CORE REPULSION     =       1918.61809 EV

          GRADIENT NORM           =          2.79235 = 0.84193 PER ATOM
          NO. OF FILLED LEVELS    =         13
          MOLECULAR WEIGHT        =         66.1024

          MOLECULAR DIMENSIONS (Angstroms)

            Atom       Atom       Distance
            H     8    H     5     4.34580
            H     9    H     6     4.12145
            H     7    H     2     1.55579


          SCF CALCULATIONS        =         47
 



       FINAL  POINT  AND  DERIVATIVES

                                         Cartesian Gradients         Cartesian Coordinates          |Gradient|
  Atom                                   X        Y        Z        X          Y          Z
 
    1  C(HETATM    1  C1  HET A   1)    1.168    0.432    0.975   -0.08627   -0.70899    0.94469       1.582
    2  H(HETATM    2 1H1  HET A   1)    0.193   -0.103   -0.234    1.33288   -0.57643    0.94839       0.320
    3  C(HETATM    3  C2  HET A   1)    1.441   -1.687    0.518    0.57023    0.62661    0.92276       2.279
 

              GRADIENTS FOR ALL GROUPS

                Group       Gradient
 
              HET    1        2.792




   ATOM                 CHEMICAL                   X               Y               Z
  NUMBER                 SYMBOL               (ANGSTROMS)     (ANGSTROMS)     (ANGSTROMS)
 
     1       C(HETATM    1  C1  HET A   1)   -0.08627437  *  -0.70899161  *   0.94468883  *
     2       H(HETATM    2 1H1  HET A   1)    1.33287519  *  -0.57643115  *   0.94838684  *
     3       C(HETATM    3  C2  HET A   1)    0.57022738  *   0.62661028  *   0.92276412  *
     4       C(HETATM    4  C3  HET A   1)    0.44957087      1.11199225     -0.40136151   
     5       H(HETATM    5 2H1  HET A   1)   -0.40641067     -1.22864746      1.82561520   
     6       H(HETATM    6  H4  HET A   1)   -1.08722925     -1.82274474     -0.67829400   
     7       H(HETATM    7  H5  HET A   1)   -0.49310407      0.26724970     -2.20754880   
     8       H(HETATM    8  H3  HET A   1)    0.81030428      2.05930726     -0.74244567   
     9       H(HETATM    9  H2  HET A   1)    0.79255430      1.22411525      1.78417182   
    10       C(HETATM   10  C4  HET A   1)   -0.55863909     -0.94651126     -0.36961010   
    11       C(HETATM   11  C5  HET A   1)   -0.23151715      0.15613319     -1.17428351   

                             CARTESIAN COORDINATES

   1    C       -0.086274367    -0.708991611     0.944688828
   2    H        1.332875186    -0.576431153     0.948386836
   3    C        0.570227383     0.626610282     0.922764116
   4    C        0.449570875     1.111992249    -0.401361513
   5    H       -0.406410670    -1.228647462     1.825615195
   6    H       -1.087229248    -1.822744736    -0.678293997
   7    H       -0.493104074     0.267249701    -2.207548798
   8    H        0.810304278     2.059307256    -0.742445666
   9    H        0.792554305     1.224115255     1.784171817
  10    C       -0.558639093    -0.946511260    -0.369610095
  11    C       -0.231517154     0.156133186    -1.174283509


                  UNUSUALLY SHORT HYDROGEN BOND DISTANCES

  Hydrogen   R(H-A)  Atom A    R(H-B)  Atom B     R(A-B)      Loc-A      Loc-B
       2      1.43   C    1     1.42   C    3      1.49     HET   1  A  HET   1  A
 

           Empirical Formula: C5 H6  =    11 atoms



              NET ATOMIC CHARGES AND DIPOLE CONTRIBUTIONS

  ATOM NO.                 TYPE                        CHARGE      No. of ELECS.   s-Pop       p-Pop       
    1          C(HETATM    1  C1  HET A   1)          -0.254079        4.2541     1.07515     3.17893
    2          H(HETATM    2 1H1  HET A   1)           0.293172        0.7068     0.70683
    3          C(HETATM    3  C2  HET A   1)          -0.253834        4.2538     1.07482     3.17902
    4          C(HETATM    4  C3  HET A   1)          -0.196738        4.1967     1.08195     3.11478
    5          H(HETATM    5 2H1  HET A   1)           0.164039        0.8360     0.83596
    6          H(HETATM    6  H4  HET A   1)           0.150766        0.8492     0.84923
    7          H(HETATM    7  H5  HET A   1)           0.148257        0.8517     0.85174
    8          H(HETATM    8  H3  HET A   1)           0.150880        0.8491     0.84912
    9          H(HETATM    9  H2  HET A   1)           0.164265        0.8357     0.83574
   10          C(HETATM   10  C4  HET A   1)          -0.196329        4.1963     1.08183     3.11450
   11          C(HETATM   11  C5  HET A   1)          -0.170398        4.1704     1.08534     3.08506

          NET CHARGE ON RESIDUES

      Residue         Charge  Anion or
                              Cation?
      HET A   1       +0.000
 


 DIPOLE           X         Y         Z       TOTAL
 POINT-CHG.     1.332    -0.636     0.991     1.778
 HYBRID         0.334    -0.162     0.164     0.406
 SUM            1.666    -0.798     1.156     2.179


          ATOMIC ORBITAL ELECTRON POPULATIONS

                   Atom                  s        px        py        pz   
    1  C(HETATM    1  C1  HET A   1)   1.07515   1.00419   1.09925   1.07549
    2  H(HETATM    2 1H1  HET A   1)   0.70683
    3  C(HETATM    3  C2  HET A   1)   1.07482   1.16213   0.94220   1.07468
    4  C(HETATM    4  C3  HET A   1)   1.08195   1.06167   1.06410   0.98902
    5  H(HETATM    5 2H1  HET A   1)   0.83596
    6  H(HETATM    6  H4  HET A   1)   0.84923
    7  H(HETATM    7  H5  HET A   1)   0.85174
    8  H(HETATM    8  H3  HET A   1)   0.84912
    9  H(HETATM    9  H2  HET A   1)   0.83574
   10  C(HETATM   10  C4  HET A   1)   1.08183   1.06471   1.06198   0.98781
   11  C(HETATM   11  C5  HET A   1)   1.08534   1.02386   0.99346   1.06773

 **********************
 *                    *
 * JOB ENDED NORMALLY *
 *                    *
 **********************



 TOTAL JOB TIME:             0.44 SECONDS

 == MOPAC DONE ==
