 *******************************************************************************
 ** Site#: 37037        For non-commercial use only           Version 21.153W **
 *******************************************************************************
 ** Cite this program as: MOPAC2016, Version: 21.153W, James J. P. Stewart,   **
 ** Stewart Computational Chemistry, web: HTTP://OpenMOPAC.net. Days left: 362**
 *******************************************************************************
 **                                                                           **
 **                                MOPAC2016                                  **
 **                                                                           **
 *******************************************************************************

                              PM7 CALCULATION RESULTS

 *******************************************************************************
 *  CALCULATION DONE:                                Sat Jun  5 15:48:11 2021  *
 *  SYMMETRY   - SYMMETRY CONDITIONS TO BE IMPOSED
 *  T=         - A TIME OF 172800.0 SECONDS REQUESTED
 *  DUMP=N     - RESTART FILE WRITTEN EVERY 7200.0 SECONDS REQUESTED
 *******************************************************************************



                    PARAMETER DEPENDENCE DATA

        REFERENCE ATOM      FUNCTION NO.    DEPENDENT ATOM(S)
            2                  1               3

             DESCRIPTIONS OF THE FUNCTIONS USED
   1      BOND LENGTH    IS SET EQUAL TO THE REFERENCE BOND LENGTH   
 
symmetry
 Transition state for Pentadiene <=> Pentadiene

  ATOM    CHEMICAL      BOND LENGTH      BOND ANGLE     TWIST ANGLE 
 NUMBER    SYMBOL       (ANGSTROMS)      (DEGREES)       (DEGREES) 
   (I)                     NA:I           NB:NA:I       NC:NB:NA:I       NA    NB    NC 
     1       C          0.00000000       0.0000000       0.0000000        0     0     0
     2       H          1.40000000  *    0.0000000       0.0000000        1     0     0
     3       C          1.40000000     128.0000000  *    0.0000000        2     1     0
     4       C          1.40000000  *  100.0000000  *   55.0000000  *     3     2     1
     5       H          1.00000000  *   84.0000000  *   65.0000000  *     1     2     3
     6       H          1.00000000  *  114.0000000  *  175.0000000  *     1     2     3
     7       H          2.10000000  *  119.0000000  *  -74.0000000  *     1     2     3
     8       H          2.10000000  *  149.0000000  *  -35.0000000  *     4     3     2
     9       H          1.00000000  *  118.0000000  *  140.0000000  *     4     3     2
    10       H          1.00000000  *   86.0000000  *  -64.0000000  *     3     2     1
    11       H          1.00000000  *  113.0000000  * -176.0000000  *     3     2     1
    12       C          1.00000000  *   34.0000000  *   46.0000000  *     7     1     2
    13       C          1.00000000  *   34.0000000  *    9.0000000  *     8     4     3
 


          CARTESIAN COORDINATES 

    NO.       ATOM           X           Y           Z

     1         C          0.0000      0.0000      0.0000
     2         H          1.4000      0.0000      0.0000
     3         C          2.2619      1.1032      0.0000
     4         C          1.7884      1.7817      1.1294
     5         H          0.1045      0.4203     -0.9013
     6         H         -0.4067     -0.9101     -0.0796
     7         H         -1.0181      0.5063      1.7656
     8         H          0.1725      2.3336      2.3517
     9         H          2.4592      2.2064      1.7374
    10         H          1.8744      1.3175     -0.8966
    11         H          3.2261      0.8458     -0.0642
    12         C         -0.2764      0.7450      1.1387
    13         C          0.4777      1.7656      1.5873

 General Reference for PM7:
 "Optimization of Parameters for Semiempirical Methods VI: More Modifications to the 
 NDDO Approximations and Re-optimization of Parameters", J. J. P. Stewart, J. Mol. Mod., 1:32, 19 (2013)
 https://link.springer.com/article/10.1007/s00894-012-1667-x

           Empirical Formula: C5 H8  =    13 atoms



      MOLECULAR POINT GROUP   :   C1  


      RHF CALCULATION, NO. OF DOUBLY OCCUPIED LEVELS = 14


          Geometry optimization using EF

          DIAGONAL MATRIX USED AS START HESSIAN

 CYCLE:     1 TIME:   0.016 TIME LEFT:  2.00D  GRAD.:   456.422 HEAT:  86.40651
 CYCLE:     2 TIME:   0.016 TIME LEFT:  2.00D  GRAD.:   401.021 HEAT:  84.92518
 CYCLE:     3 TIME:   0.000 TIME LEFT:  2.00D  GRAD.:   191.796 HEAT:  73.37916
 CYCLE:     4 TIME:   0.000 TIME LEFT:  2.00D  GRAD.:   240.804 HEAT:  66.79317
 CYCLE:     5 TIME:   0.016 TIME LEFT:  2.00D  GRAD.:   151.484 HEAT:  65.71742
 CYCLE:     6 TIME:   0.000 TIME LEFT:  2.00D  GRAD.:   125.575 HEAT:  63.39780
 CYCLE:     7 TIME:   0.016 TIME LEFT:  2.00D  GRAD.:    70.677 HEAT:  62.61251
 CYCLE:     8 TIME:   0.000 TIME LEFT:  2.00D  GRAD.:    61.077 HEAT:  61.81933
 CYCLE:     9 TIME:   0.000 TIME LEFT:  2.00D  GRAD.:    36.239 HEAT:  61.74504
 CYCLE:    10 TIME:   0.000 TIME LEFT:  2.00D  GRAD.:    25.704 HEAT:  61.67736
 CYCLE:    11 TIME:   0.016 TIME LEFT:  2.00D  GRAD.:    17.958 HEAT:  61.62617
 CYCLE:    12 TIME:   0.000 TIME LEFT:  2.00D  GRAD.:     3.963 HEAT:  61.54781
 CYCLE:    13 TIME:   0.000 TIME LEFT:  2.00D  GRAD.:     5.069 HEAT:  61.53738
 CYCLE:    14 TIME:   0.000 TIME LEFT:  2.00D  GRAD.:     5.049 HEAT:  61.52353
 CYCLE:    15 TIME:   0.016 TIME LEFT:  2.00D  GRAD.:     1.902 HEAT:  61.51465
 CYCLE:    16 TIME:   0.000 TIME LEFT:  2.00D  GRAD.:     1.491 HEAT:  61.51043
 CYCLE:    17 TIME:   0.000 TIME LEFT:  2.00D  GRAD.:     3.045 HEAT:  61.50671
 CYCLE:    18 TIME:   0.000 TIME LEFT:  2.00D  GRAD.:     1.259 HEAT:  61.50052
 CYCLE:    19 TIME:   0.000 TIME LEFT:  2.00D  GRAD.:     0.583 HEAT:  61.49861

     GRADIENT =  0.58329 IS LESS THAN CUTOFF =  1.00000



 -------------------------------------------------------------------------------
 symmetry
 Transition state for Pentadiene <=> Pentadiene



     GEOMETRY OPTIMISED USING EIGENVECTOR FOLLOWING (EF).     
     SCF FIELD WAS ACHIEVED                                   


                              PM7 CALCULATION
                                                       MOPAC2016 (Version: 21.153W)
                                                       Sat Jun  5 15:48:11 2021
                                                       No. of days remaining = 362




          FINAL HEAT OF FORMATION =         61.49860 KCAL/MOL =     257.31013 KJ/MOL


          TOTAL ENERGY            =       -719.44905 EV
          ELECTRONIC ENERGY       =      -2843.18495 EV  POINT GROUP:     Cs  
          CORE-CORE REPULSION     =       2123.73589 EV
          COSMO AREA              =        118.19 SQUARE ANGSTROMS
          COSMO VOLUME            =        105.82 CUBIC ANGSTROMS

          GRADIENT NORM           =          0.58329 = 0.16178 PER ATOM
          IONIZATION POTENTIAL    =          8.889466 EV
          HOMO LUMO ENERGIES (EV) =         -8.889 -0.099
          NO. OF FILLED LEVELS    =         14
          MOLECULAR WEIGHT        =         68.1182

          MOLECULAR DIMENSIONS (Angstroms)

            Atom       Atom       Distance
            H     9    H     6     4.86631
            H    11    H     8     4.27067
            H     7    H    10     1.85048


          SCF CALCULATIONS        =         23
 
          WALL-CLOCK TIME         =          0.125 SECONDS
          COMPUTATION TIME        =          0.375 SECONDS




  ATOM    CHEMICAL      BOND LENGTH      BOND ANGLE     TWIST ANGLE 
 NUMBER    SYMBOL       (ANGSTROMS)      (DEGREES)       (DEGREES) 
   (I)                     NA:I           NB:NA:I       NC:NB:NA:I       NA    NB    NC 
     1       C          0.00000000       0.0000000       0.0000000        0     0     0
     2       H          1.45606939  *    0.0000000       0.0000000        1     0     0
     3       C          1.45606939     127.5757429  *    0.0000000        2     1     0
     4       C          1.40511887  *  101.1044815  *   55.8171819  *     3     2     1
     5       H          1.08559616  *   87.2888380  *   64.3578040  *     1     2     3
     6       H          1.08161192  *  112.3752296  *  175.9968582  *     1     2     3
     7       H          2.15524266  *  119.9872604  *  -75.8536216  *     1     2     3
     8       H          2.14561095  *  148.6854092  *  -35.1958698  *     4     3     2
     9       H          1.09303169  *  118.6779695  *  139.7672258  *     4     3     2
    10       H          1.08522587  *   87.5811436  *  -64.7830742  *     3     2     1
    11       H          1.08183120  *  112.4281066  * -176.4932259  *     3     2     1
    12       C          1.09310400  *   34.7590957  *   48.0114107  *     7     1     2
    13       C          1.08779438  *   34.4419516  *    8.8455253  *     8     4     3

                             CARTESIAN COORDINATES

   1    C        0.000000000     0.000000000     0.000000000
   2    H        1.456069394     0.000000000     0.000000000
   3    C        2.343994605     1.154004723     0.000000000
   4    C        1.895064603     1.840885560     1.140620711
   5    H        0.051349835     0.469265670    -0.977584757
   6    H       -0.411737899    -0.997737900    -0.069823609
   7    H       -1.077206291     0.456229899     1.810124799
   8    H        0.264545730     2.412615694     2.412697434
   9    H        2.634426965     2.305886424     1.797762834
  10    H        1.949951107     1.399403341    -0.980930387
  11    H        3.386754365     0.872456348    -0.061166573
  12    C       -0.267250145     0.766225238     1.144729962
  13    C        0.573993061     1.790257136     1.575912641


           Empirical Formula: C5 H8  =    13 atoms



      MOLECULAR POINT GROUP   :   Cs  


                  EIGENVALUES  
 -29.56343 -25.47959 -24.17860 -20.15760 -18.30050 -16.99068 -14.56715 -14.30572
 -14.21640 -13.09517 -12.51637 -12.27284  -9.65234  -8.88947  -0.09873   1.28477
   4.37657   4.86901   4.89518   5.32289   5.56843   5.85258   5.94744   6.22335
   6.29186   6.33812   6.74267   6.75657


              NET ATOMIC CHARGES AND DIPOLE CONTRIBUTIONS

  ATOM NO.   TYPE          CHARGE      No. of ELECS.   s-Pop       p-Pop       
    1          C          -0.484106        4.4841     1.08212     3.40199
    2          H           0.271178        0.7288     0.72882
    3          C          -0.487546        4.4875     1.08210     3.40545
    4          C          -0.034329        4.0343     1.09102     2.94331
    5          H           0.163789        0.8362     0.83621
    6          H           0.146524        0.8535     0.85348
    7          H           0.138915        0.8611     0.86109
    8          H           0.151824        0.8482     0.84818
    9          H           0.138757        0.8612     0.86124
   10          H           0.163460        0.8365     0.83654
   11          H           0.146445        0.8536     0.85355
   12          C          -0.034989        4.0350     1.09103     2.94396
   13          C          -0.279921        4.2799     1.07507     3.20485
 DIPOLE           X         Y         Z       TOTAL
 POINT-CHG.     0.262    -0.562     0.035     0.621
 HYBRID        -0.037     0.084    -0.133     0.162
 SUM            0.225    -0.477    -0.099     0.537


          ATOMIC ORBITAL ELECTRON POPULATIONS

     Atom    s        px        py        pz   
    1  C   1.08212   1.19592   1.12361   1.08246
    2  H   0.72882
    3  C   1.08210   1.15955   1.16295   1.08294
    4  C   1.09102   1.01548   0.92971   0.99813
    5  H   0.83621
    6  H   0.85348
    7  H   0.86109
    8  H   0.84818
    9  H   0.86124
   10  H   0.83654
   11  H   0.85355
   12  C   1.09103   0.98368   0.96088   0.99941
   13  C   1.07507   1.01240   1.08097   1.11148
 *******************************************************************************
 ** Site#: 37037        For non-commercial use only           Version 21.153W **
 *******************************************************************************
 ** Cite this program as: MOPAC2016, Version: 21.153W, James J. P. Stewart,   **
 ** Stewart Computational Chemistry, web: HTTP://OpenMOPAC.net. Days left: 362**
 *******************************************************************************
 **                                                                           **
 **                                MOPAC2016                                  **
 **                                                                           **
 *******************************************************************************

                              PM7 CALCULATION RESULTS

 *******************************************************************************
 *  CALCULATION DONE:                                Sat Jun  5 15:48:11 2021  *
 *  OLDGEO     - PREVIOUS GEOMETRY TO BE USED
 *  FORCE      - FORCE CALCULATION SPECIFIED
 *  T=         - A TIME OF 172800.0 SECONDS REQUESTED
 *  DUMP=N     - RESTART FILE WRITTEN EVERY 7200.0 SECONDS REQUESTED
 *  ISOTOPE    - SAVE THE FORCE MATRIX FOR USE LATER
 *******************************************************************************
oldgeo force isotope
 Transition state for Pentadiene <=> Pentadiene

  ATOM    CHEMICAL      BOND LENGTH      BOND ANGLE     TWIST ANGLE 
 NUMBER    SYMBOL       (ANGSTROMS)      (DEGREES)       (DEGREES) 
   (I)                     NA:I           NB:NA:I       NC:NB:NA:I       NA    NB    NC 
     1       C          0.00000000       0.0000000       0.0000000        0     0     0
     2       H          1.45606939  *    0.0000000       0.0000000        1     0     0
     3       C          1.45606939     127.5757429  *    0.0000000        2     1     0
     4       C          1.40511887  *  101.1044815  *   55.8171819  *     3     2     1
     5       H          1.08559616  *   87.2888380  *   64.3578040  *     1     2     3
     6       H          1.08161192  *  112.3752296  *  175.9968582  *     1     2     3
     7       H          2.15524266  *  119.9872604  *  -75.8536216  *     1     2     3
     8       H          2.14561095  *  148.6854092  *  -35.1958698  *     4     3     2
     9       H          1.09303169  *  118.6779695  *  139.7672258  *     4     3     2
    10       H          1.08522587  *   87.5811436  *  -64.7830742  *     3     2     1
    11       H          1.08183120  *  112.4281066  * -176.4932259  *     3     2     1
    12       C          1.09310400  *   34.7590957  *   48.0114107  *     7     1     2
    13       C          1.08779438  *   34.4419516  *    8.8455253  *     8     4     3
 


          CARTESIAN COORDINATES 

    NO.       ATOM           X           Y           Z

     1         C          0.0000      0.0000      0.0000
     2         H          1.4561      0.0000      0.0000
     3         C          2.3440      1.1540      0.0000
     4         C          1.8951      1.8409      1.1406
     5         H          0.0513      0.4693     -0.9776
     6         H         -0.4117     -0.9977     -0.0698
     7         H         -1.0772      0.4562      1.8101
     8         H          0.2645      2.4126      2.4127
     9         H          2.6344      2.3059      1.7978
    10         H          1.9500      1.3994     -0.9809
    11         H          3.3868      0.8725     -0.0612
    12         C         -0.2673      0.7662      1.1447
    13         C          0.5740      1.7903      1.5759

 General Reference for PM7:
 "Optimization of Parameters for Semiempirical Methods VI: More Modifications to the 
 NDDO Approximations and Re-optimization of Parameters", J. J. P. Stewart, J. Mol. Mod., 1:32, 19 (2013)
 https://link.springer.com/article/10.1007/s00894-012-1667-x

           Empirical Formula: C5 H8  =    13 atoms



      MOLECULAR POINT GROUP   :   Cs  


      RHF CALCULATION, NO. OF DOUBLY OCCUPIED LEVELS = 14



          HEAT OF FORMATION =      61.498598 KCALS/MOLE


          CARTESIAN COORDINATE DERIVATIVES

   NUMBER  ATOM         X            Y            Z

     1       C      1.056620    -0.226736     0.380404
     2       H     -1.738842    -0.526238    -0.791628
     3       C      0.546821     0.492872     0.296371
     4       C     -0.161077     0.254785     0.068135
     5       H      0.013590     0.036849    -0.033098
     6       H      0.039841    -0.001441     0.011354
     7       H     -0.089950     0.145109     0.127006
     8       H     -0.147254    -0.096864     0.007336
     9       H      0.049445     0.003002    -0.019926
    10       H      0.098364    -0.054061    -0.053372
    11       H      0.100801    -0.024109     0.070204
    12       C      0.060176    -0.102315    -0.038048
    13       C      0.171461     0.099146    -0.024742
 


          GRADIENT NORM =   2.47692

          MOLECULAR WEIGHT =   68.12



          ROTATIONAL CONSTANTS IN CM(-1)

          A =    0.27110540   B =    0.17027364   C =    0.10868789



           PRINCIPAL MOMENTS OF INERTIA IN UNITS OF 10**(-40)*GRAM-CM**2

          A =      103.2542   B =      164.3988   C =      257.5519


          ORIENTATION OF MOLECULE IN FORCE CALCULATION

    NO.       ATOM         X         Y         Z

     1          C      -0.9237   -1.0812   -0.7390
     2          H       0.5324   -1.0812   -0.7390
     3          C       1.4203    0.0728   -0.7390
     4          C       0.9714    0.7597    0.4016
     5          H      -0.8723   -0.6119   -1.7166
     6          H      -1.3354   -2.0790   -0.8088
     7          H      -2.0009   -0.6250    1.0711
     8          H      -0.6591    1.3314    1.6737
     9          H       1.7108    1.2247    1.0588
    10          H       1.0263    0.3182   -1.7199
    11          H       2.4631   -0.2088   -0.8002
    12          C      -1.1909   -0.3150    0.4057
    13          C      -0.3497    0.7090    0.8369


    FIRST DERIVATIVES WILL BE USED IN THE CALCULATION OF SECOND DERIVATIVES

          ESTIMATED TIME TO COMPLETE CALCULATION =        0.00 SECONDS

    FOR POINT-GROUP Cs   THERE ARE   2 UNIQUE SYMMETRY FUNCTIONS.

 STEP:   1 TIME =     0.00 SECS, INTEGRAL =      0.00 TIME LEFT: 172800.00
 STEP:   2 TIME =     0.00 SECS, INTEGRAL =      0.00 TIME LEFT: 172800.00
 STEP:   3 TIME =     0.02 SECS, INTEGRAL =      0.02 TIME LEFT: 172799.98
 STEP:   4 TIME =     0.00 SECS, INTEGRAL =      0.02 TIME LEFT: 172799.98
 STEP:   5 TIME =     0.02 SECS, INTEGRAL =      0.03 TIME LEFT: 172799.97
 STEP:   6 TIME =     0.00 SECS, INTEGRAL =      0.03 TIME LEFT: 172799.97
 STEP:   7                       INTEGRAL =      0.03 TIME LEFT: 172799.97
 STEP:   8                       INTEGRAL =      0.03 TIME LEFT: 172799.97
 STEP:   9                       INTEGRAL =      0.03 TIME LEFT: 172799.97
 STEP:  10 TIME =     0.02 SECS, INTEGRAL =      0.05 TIME LEFT: 172799.95
 STEP:  11 TIME =     0.00 SECS, INTEGRAL =      0.05 TIME LEFT: 172799.95
 STEP:  12 TIME =     0.02 SECS, INTEGRAL =      0.06 TIME LEFT: 172799.94
 STEP:  13 TIME =     0.00 SECS, INTEGRAL =      0.06 TIME LEFT: 172799.94
 STEP:  14 TIME =     0.00 SECS, INTEGRAL =      0.06 TIME LEFT: 172799.94
 STEP:  15 TIME =     0.02 SECS, INTEGRAL =      0.08 TIME LEFT: 172799.92
 STEP:  16 TIME =     0.00 SECS, INTEGRAL =      0.08 TIME LEFT: 172799.92
 STEP:  17 TIME =     0.02 SECS, INTEGRAL =      0.09 TIME LEFT: 172799.91
 STEP:  18 TIME =     0.00 SECS, INTEGRAL =      0.09 TIME LEFT: 172799.91
 STEP:  19 TIME =     0.00 SECS, INTEGRAL =      0.09 TIME LEFT: 172799.91
 STEP:  20 TIME =     0.02 SECS, INTEGRAL =      0.11 TIME LEFT: 172799.89
 STEP:  21 TIME =     0.00 SECS, INTEGRAL =      0.11 TIME LEFT: 172799.89
 STEP:  22 TIME =     0.02 SECS, INTEGRAL =      0.12 TIME LEFT: 172799.88
 STEP:  23 TIME =     0.00 SECS, INTEGRAL =      0.12 TIME LEFT: 172799.88
 STEP:  24 TIME =     0.00 SECS, INTEGRAL =      0.12 TIME LEFT: 172799.88
 STEP:  25                       INTEGRAL =      0.12 TIME LEFT: 172799.88
 STEP:  26                       INTEGRAL =      0.12 TIME LEFT: 172799.88
 STEP:  27                       INTEGRAL =      0.12 TIME LEFT: 172799.88
 STEP:  28                       INTEGRAL =      0.12 TIME LEFT: 172799.88
 STEP:  29                       INTEGRAL =      0.12 TIME LEFT: 172799.88
 STEP:  30                       INTEGRAL =      0.12 TIME LEFT: 172799.88
 STEP:  31                       INTEGRAL =      0.12 TIME LEFT: 172799.88
 STEP:  32                       INTEGRAL =      0.12 TIME LEFT: 172799.88
 STEP:  33                       INTEGRAL =      0.12 TIME LEFT: 172799.88
 STEP:  34                       INTEGRAL =      0.12 TIME LEFT: 172799.88
 STEP:  35                       INTEGRAL =      0.12 TIME LEFT: 172799.88
 STEP:  36                       INTEGRAL =      0.12 TIME LEFT: 172799.88
 STEP:  37 TIME =     0.00 SECS, INTEGRAL =      0.12 TIME LEFT: 172799.88
 STEP:  38 TIME =     0.02 SECS, INTEGRAL =      0.14 TIME LEFT: 172799.86
 STEP:  39 TIME =     0.00 SECS, INTEGRAL =      0.14 TIME LEFT: 172799.86

(To convert to Hartree/Bohr^2, multiply by (10^(-21) x N x a0^2)/(4.184 x 627.51) =  0.0642)


           FORCE MATRIX IN MILLIDYNES/ANGSTROM


                  C  1       H  2       C  3       C  4       H  5       H  6
 ------------------------------------------------------------------------------
     C    1  12.158657
     H    2   2.458613   2.175545
     C    3   2.740561   2.455657  12.158657
     C    4   1.708608   2.046318   6.061536  15.029390
     H    5   3.456408   0.583965   0.320770   0.276754   4.185404
     H    6   3.535778   0.174716   0.030254   0.035347   0.456018   4.299356
     H    7   0.819871   0.219562   0.196380   0.197101   0.036497   0.039031
     H    8   0.081769   0.007718   0.083692   0.780507   0.010221   0.007981
     H    9   0.198779   0.222587   0.819477   3.431123   0.038369   0.010628
     H   10   0.324589   0.586818   3.456151   0.878661   0.091504   0.013544
     H   11   0.031266   0.172098   3.535986   0.781625   0.013433   0.005678
     C   12   6.099014   2.050397   1.705929   2.284540   0.876240   0.780475
     C   13   2.152594   1.598123   2.150327   6.134527   0.309816   0.098124


                  H  7       H  8       H  9       H 10       H 11       C 12
 ------------------------------------------------------------------------------
     H    7   4.329838
     H    8   0.036351   4.405772
     H    9   0.022117   0.037217   4.329838
     H   10   0.038541   0.010782   0.036497   4.185404
     H   11   0.011313   0.008137   0.039031   0.456018   4.299356
     C   12   3.429827   0.780312   0.197101   0.276754   0.035347  15.029390
     C   13   0.813218   3.463536   0.813893   0.310746   0.098104   6.094283


                  C 13
 ------------------
     C   13  15.055437


          HEAT OF FORMATION =      61.498598 KCALS/MOLE

          ZERO POINT ENERGY      64.989 KCAL/MOL

         NOTE: SYSTEM IS NOT A GROUND STATE, THEREFORE ZERO POINT
         ENERGY IS NOT MEANINGFULL. ZERO POINT ENERGY PRINTED
         DOES NOT INCLUDE THE  1 IMAGINARY FREQUENCIES


           NORMAL COORDINATE ANALYSIS (Total motion = 1 Angstrom)


   Root No.       1         2         3         4         5         6         7         8

                 1 A"      2 A"      1 A'      2 A'      3 A"      3 A'      4 A'      4 A"  

               -2048.2     272.5     420.5     445.4     496.3     602.3     725.4     755.0
  
           1   -0.0401   -0.0114    0.0407    0.0614   -0.0386   -0.0118   -0.0134   -0.0036
           2    0.0122    0.0396    0.0096    0.0284   -0.0304    0.0015   -0.0097    0.0212
           3    0.0116   -0.0203   -0.0016   -0.0077   -0.0419    0.0061   -0.0089   -0.0121
           4    0.4401   -0.0306    0.0333    0.0211   -0.0570    0.0247    0.0191    0.0378
           5    0.2176   -0.0151   -0.0671   -0.0426   -0.0282   -0.0497   -0.0386    0.0187
           6   -0.0004    0.0000    0.0966    0.0031    0.0001    0.0898    0.0095   -0.0001
           7   -0.0147    0.0246   -0.0324   -0.0599   -0.0475    0.0060    0.0159    0.0146
           8   -0.0394   -0.0331   -0.0265   -0.0315   -0.0122    0.0104    0.0047   -0.0157
           9   -0.0115    0.0203   -0.0016   -0.0077    0.0419    0.0061   -0.0088    0.0121
          10   -0.0163   -0.0215   -0.0123   -0.0115    0.0286    0.0188   -0.0366    0.0018
          11    0.0107    0.0320    0.0218   -0.0303    0.0511   -0.0080   -0.0290   -0.0168
          12    0.0184   -0.0363   -0.0191    0.0151    0.0309    0.0139   -0.0127    0.0069
          13    0.1040   -0.0311    0.1173    0.0057   -0.0825    0.1249    0.0651   -0.1621
          14   -0.0244    0.1276   -0.0041    0.0843   -0.0745    0.0572   -0.0773   -0.0095
          15    0.0135    0.0184   -0.0047    0.0126   -0.0634    0.0371   -0.0327   -0.0277
          16    0.0089   -0.0202   -0.0087    0.1009   -0.0845   -0.1169   -0.1316    0.1692
          17   -0.0012    0.0494    0.0308    0.0150   -0.0187    0.0569    0.0343   -0.0589
          18   -0.0024   -0.0978   -0.0265   -0.0451    0.0130   -0.1081    0.0200    0.0902
          19    0.0357    0.0643   -0.0715    0.0623    0.0909   -0.0198    0.0880    0.0386
          20   -0.0285   -0.0946    0.0494   -0.0621   -0.0299    0.0157   -0.0494   -0.0451
          21    0.0284    0.0690   -0.0832    0.0237    0.0085    0.0092    0.0230    0.0302
          22   -0.0045   -0.0033    0.0357   -0.0457   -0.0220   -0.0301    0.0029    0.0046
          23   -0.0021   -0.0017   -0.0720    0.0922   -0.0109    0.0607   -0.0057    0.0023
          24   -0.0001    0.0000    0.0888   -0.0571    0.0000   -0.0888    0.0705    0.0000
          25   -0.0011   -0.0362    0.0040    0.0116    0.0313   -0.0005   -0.0141   -0.0125
          26    0.0457    0.1084    0.0869   -0.0871    0.0904    0.0253   -0.1000    0.0580
          27   -0.0284   -0.0690   -0.0833    0.0237   -0.0086    0.0092    0.0232   -0.0302
          28    0.0438    0.0825   -0.0680   -0.0705   -0.1091   -0.1212    0.0220   -0.1060
          29    0.0973   -0.1021   -0.0957    0.0466   -0.0203   -0.0645   -0.0987   -0.1230
          30   -0.0136   -0.0185   -0.0046    0.0126    0.0636    0.0374   -0.0325    0.0279
          31    0.0045    0.0271   -0.0193   -0.0733   -0.0661    0.0255    0.0527    0.0557
          32    0.0077   -0.0459    0.0257   -0.0710   -0.0558    0.1274    0.1253    0.1702
          33    0.0025    0.0977   -0.0265   -0.0450   -0.0129   -0.1082    0.0199   -0.0905
          34   -0.0014    0.0124   -0.0099    0.0311    0.0579   -0.0050    0.0452   -0.0122
          35   -0.0194   -0.0365    0.0229   -0.0094   -0.0082   -0.0198    0.0116    0.0116
          36   -0.0184    0.0363   -0.0190    0.0151   -0.0310    0.0139   -0.0128   -0.0069
          37    0.0195   -0.0085    0.0119   -0.0222    0.0246    0.0016   -0.0197   -0.0027
          38    0.0097   -0.0042   -0.0240    0.0449    0.0122   -0.0034    0.0400   -0.0014
          39   -0.0001    0.0000    0.0450   -0.0088   -0.0000   -0.0298    0.0346    0.0000


   Root No.       9        10        11        12        13        14        15        16

                 5 A'      5 A"      6 A'      6 A"      7 A'      8 A'      7 A"      9 A'  

                 841.7     944.4     975.0    1031.2    1050.4    1088.4    1155.9    1177.6
  
           1    0.0004    0.0132    0.0051    0.0005   -0.0189    0.0270   -0.0219   -0.0012
           2   -0.0073    0.0151   -0.0204    0.0316   -0.0350   -0.0087   -0.0023    0.0010
           3   -0.0066    0.0016    0.0104   -0.0116   -0.0033    0.0153   -0.0197   -0.0127
           4   -0.0078   -0.0428    0.0011    0.0215   -0.0014    0.0095   -0.0859    0.0411
           5    0.0155   -0.0212   -0.0025    0.0106    0.0030   -0.0193   -0.0424   -0.0825
           6   -0.1163    0.0001   -0.0887   -0.0000    0.0700   -0.0881    0.0000    0.3663
           7    0.0056    0.0201    0.0132    0.0255    0.0393   -0.0094   -0.0151   -0.0000
           8   -0.0048    0.0013   -0.0165   -0.0188   -0.0063   -0.0268   -0.0159    0.0015
           9   -0.0066   -0.0016    0.0104    0.0116   -0.0034    0.0153    0.0196   -0.0126
          10   -0.0109   -0.0024   -0.0080   -0.0087   -0.0047   -0.0055   -0.0035   -0.0062
          11   -0.0229   -0.0230   -0.0119    0.0276    0.0174    0.0241   -0.0010   -0.0132
          12    0.0060    0.0057    0.0024   -0.0260   -0.0181   -0.0167   -0.0156   -0.0005
          13   -0.0559    0.0731   -0.0567    0.0013    0.0004   -0.0940    0.1484   -0.1835
          14    0.0068   -0.1032    0.0928   -0.1104    0.0897    0.0442   -0.0507    0.0248
          15   -0.0035   -0.0476    0.0513   -0.0634    0.0475    0.0262   -0.0320   -0.0048
          16   -0.0415   -0.0793   -0.0337   -0.0344    0.0907   -0.1268    0.1277   -0.0425
          17    0.0083    0.0384    0.0074    0.0252   -0.0574    0.0531   -0.0594    0.0091
          18    0.0055    0.0673   -0.0679    0.1203   -0.1308   -0.0031   -0.0267    0.0311
          19   -0.1035    0.0999   -0.0439   -0.1038    0.0378    0.0658    0.0038   -0.0118
          20    0.0925   -0.1257    0.0716    0.0398   -0.0386   -0.0505    0.0272    0.0318
          21   -0.1054    0.0795   -0.0360   -0.0951    0.0216    0.0538    0.0325   -0.0181
          22   -0.0827    0.0044    0.0727   -0.0120   -0.0389   -0.0185    0.0983    0.0029
          23    0.1669    0.0022   -0.1467   -0.0059    0.0786    0.0372    0.0485   -0.0058
          24   -0.1263   -0.0000    0.1470   -0.0000   -0.0202   -0.0555    0.0000   -0.0024
          25   -0.0109   -0.0394   -0.0303   -0.0313    0.0078    0.0003    0.0239   -0.0181
          26    0.1383    0.1557    0.0782   -0.1066   -0.0535   -0.0830   -0.0136    0.0285
          27   -0.1054   -0.0796   -0.0360    0.0953    0.0216    0.0539   -0.0325   -0.0180
          28    0.0285   -0.0376   -0.0393   -0.0868   -0.0715    0.0219    0.0498    0.0917
          29    0.0486    0.1208    0.1014    0.0681    0.0541    0.1015    0.1489    0.1608
          30   -0.0035    0.0476    0.0513    0.0635    0.0476    0.0261    0.0318   -0.0050
          31    0.0186   -0.0177    0.0145   -0.0011   -0.0097    0.0348    0.0303    0.0187
          32    0.0379   -0.0864    0.0311   -0.0427   -0.1071    0.1330    0.1377    0.0392
          33    0.0054   -0.0672   -0.0679   -0.1202   -0.1307   -0.0033    0.0264    0.0311
          34    0.0248   -0.0198    0.0143    0.0167   -0.0110   -0.0159   -0.0029    0.0142
          35   -0.0051    0.0121   -0.0008   -0.0236    0.0143    0.0190   -0.0022   -0.0029
          36    0.0060   -0.0057    0.0023    0.0260   -0.0181   -0.0167    0.0157   -0.0006
          37    0.0016   -0.0079   -0.0148   -0.0134   -0.0060    0.0127    0.0101    0.0018
          38   -0.0031   -0.0039    0.0300   -0.0066    0.0123   -0.0258    0.0050   -0.0036
          39    0.0388   -0.0000   -0.0216    0.0000    0.0492    0.0020    0.0000   -0.0055


   Root No.      17        18        19        20        21        22        23        24

                10 A'      8 A"      9 A"     11 A'     10 A"     12 A'     11 A"     13 A'  

                1209.1    1245.6    1298.9    1306.7    1362.1    1399.7    1535.9    1614.2
  
           1    0.0115    0.0140    0.0155    0.0150    0.0056    0.0069    0.0140    0.0207
           2   -0.0107   -0.0132    0.0034   -0.0043   -0.0079   -0.0170   -0.0331   -0.0064
           3   -0.0125   -0.0120   -0.0085   -0.0127   -0.0203   -0.0391   -0.0513    0.0035
           4   -0.0118    0.0723    0.0354   -0.0147    0.0103    0.0289    0.0742   -0.2392
           5    0.0240    0.0358    0.0176    0.0296    0.0051   -0.0585    0.0368    0.4839
           6    0.0055   -0.0001   -0.0001   -0.0029   -0.0000   -0.0220   -0.0002    0.1465
           7    0.0015   -0.0020    0.0121   -0.0057   -0.0029    0.0093   -0.0178   -0.0075
           8   -0.0155    0.0191    0.0103   -0.0145    0.0093   -0.0158    0.0314   -0.0203
           9   -0.0125    0.0120    0.0084   -0.0127    0.0203   -0.0391    0.0512    0.0035
          10    0.0384   -0.0111   -0.0168    0.0102   -0.0113    0.0261   -0.0158    0.0096
          11    0.0202   -0.0090   -0.0027    0.0075    0.0042    0.0123   -0.0387   -0.0152
          12    0.0189   -0.0076   -0.0038    0.0128    0.0081    0.0094   -0.0475   -0.0183
          13   -0.0487   -0.0829   -0.0539   -0.0378    0.0361    0.0463   -0.0019    0.0435
          14   -0.0688   -0.0421   -0.0829   -0.1128    0.1154    0.1002    0.0363    0.0535
          15   -0.0401   -0.0279   -0.0522   -0.0679    0.0427    0.0245   -0.0076    0.0157
          16   -0.0602   -0.0506   -0.0182   -0.0067   -0.0409   -0.0363   -0.0424   -0.0536
          17    0.0146    0.0165    0.0180    0.0096   -0.0028   -0.0143   -0.0136    0.0212
          18   -0.0409   -0.0673   -0.0729   -0.1168    0.1599    0.1491    0.0477    0.0446
          19   -0.0735   -0.0271    0.0328    0.0242    0.0238    0.0051   -0.0448    0.0129
          20   -0.1644   -0.0417    0.1715    0.1312    0.0769    0.0627   -0.0649    0.0199
          21   -0.1004   -0.0336    0.1417    0.1167    0.0658    0.0750   -0.0238    0.0049
          22   -0.0004    0.3121   -0.0540   -0.0025    0.0957   -0.0053   -0.1816   -0.0005
          23    0.0009    0.1543   -0.0269    0.0051    0.0473    0.0107   -0.0900    0.0009
          24    0.0444   -0.0003    0.0002    0.0133   -0.0001    0.0237    0.0003    0.0004
          25    0.1750   -0.0495    0.1560   -0.1188    0.0755   -0.0528   -0.0786   -0.0237
          26   -0.0412    0.0038   -0.0782    0.0605   -0.0278    0.0341    0.0036    0.0019
          27   -0.1007    0.0337   -0.1419    0.1168   -0.0659    0.0751    0.0240    0.0050
          28    0.0841   -0.0837   -0.0986    0.1125    0.1136   -0.1077    0.0276   -0.0689
          29   -0.0030   -0.0402    0.0077   -0.0384   -0.0413    0.0240   -0.0232   -0.0021
          30   -0.0403    0.0281    0.0523   -0.0681   -0.0428    0.0246    0.0075    0.0158
          31    0.0249   -0.0175    0.0033   -0.0038   -0.0273    0.0336   -0.0367    0.0157
          32    0.0569   -0.0502   -0.0252    0.0111   -0.0309    0.0203   -0.0253    0.0556
          33   -0.0410    0.0673    0.0728   -0.1168   -0.1598    0.1491   -0.0479    0.0445
          34   -0.0393   -0.0139   -0.0123   -0.0122   -0.0035   -0.0256   -0.0402    0.0062
          35   -0.0183   -0.0033   -0.0117   -0.0036   -0.0115   -0.0133    0.0109   -0.0168
          36    0.0190    0.0077    0.0039    0.0128   -0.0080    0.0094    0.0476   -0.0183
          37   -0.0195    0.0069    0.0012   -0.0033   -0.0119   -0.0093    0.0837   -0.0027
          38    0.0394    0.0034    0.0005    0.0068   -0.0059    0.0188    0.0413    0.0054
          39    0.0135    0.0000    0.0001    0.0104    0.0000    0.0174    0.0000    0.0062


   Root No.      25        26        27        28        29        30        31        32

                14 A'     12 A"     13 A"     15 A'     16 A'     14 A"     17 A'     15 A"  

                1663.0    1671.8    2688.9    2694.3    2742.3    2744.0    2765.4    2767.0
  
           1    0.0095    0.0034    0.0053    0.0060   -0.0023   -0.0037    0.0043   -0.0059
           2   -0.0457    0.0329    0.0188    0.0185   -0.0030   -0.0066    0.0093   -0.0120
           3   -0.0568    0.0407   -0.0157   -0.0151    0.0065    0.0034    0.0102   -0.0124
           4   -0.0571   -0.2154   -0.0080   -0.0057    0.0023    0.0020    0.0025   -0.0161
           5    0.1155   -0.1067   -0.0040    0.0115   -0.0047    0.0010   -0.0052   -0.0080
           6    0.0294    0.0004    0.0000   -0.0044   -0.0006    0.0000    0.0005    0.0001
           7    0.0305    0.0282    0.0182   -0.0184    0.0038   -0.0075   -0.0100   -0.0130
           8   -0.0354   -0.0175   -0.0072    0.0064    0.0000    0.0011    0.0022    0.0025
           9   -0.0568   -0.0405    0.0157   -0.0151    0.0066   -0.0033    0.0103    0.0124
          10   -0.0919   -0.0980   -0.0024    0.0022    0.0167   -0.0172   -0.0009   -0.0004
          11    0.0379    0.0248   -0.0022    0.0024    0.0091   -0.0106    0.0019    0.0024
          12    0.0892    0.0652   -0.0013    0.0019    0.0128   -0.0153    0.0036    0.0046
          13    0.0505   -0.0215   -0.0102   -0.0093    0.0036    0.0005    0.0105   -0.0104
          14    0.0182    0.0018   -0.0967   -0.0903    0.0273    0.0090    0.0609   -0.0747
          15   -0.0201   -0.0010    0.2314    0.2189   -0.0668   -0.0307   -0.1241    0.1501
          16   -0.0082    0.0122   -0.0545   -0.0573    0.0044    0.0297   -0.0719    0.0911
          17   -0.0210   -0.0008   -0.1402   -0.1451    0.0133    0.0776   -0.1871    0.2359
          18   -0.0205    0.0394   -0.0225   -0.0223    0.0036    0.0090   -0.0145    0.0178
          19   -0.0010   -0.0313    0.0486    0.0493    0.2274    0.2605    0.0191   -0.0325
          20   -0.0740   -0.0003    0.0186    0.0192    0.0844    0.0969    0.0070   -0.0126
          21   -0.0394   -0.0377   -0.0364   -0.0376   -0.1824   -0.2075   -0.0159    0.0277
          22    0.0092    0.0447   -0.0001   -0.0027   -0.0412   -0.0008    0.0603    0.0007
          23   -0.0186    0.0224   -0.0000    0.0056    0.0835   -0.0003   -0.1223    0.0007
          24   -0.0299   -0.0003   -0.0000    0.0076    0.1093   -0.0000   -0.1597    0.0002
          25    0.0594   -0.0193    0.0443   -0.0452   -0.2054    0.2352   -0.0172   -0.0298
          26   -0.0442   -0.0244    0.0274   -0.0275   -0.1298    0.1484   -0.0111   -0.0181
          27   -0.0393    0.0377    0.0363   -0.0376   -0.1820    0.2069   -0.0159   -0.0276
          28   -0.0451   -0.0114   -0.0834    0.0777   -0.0239    0.0076   -0.0550   -0.0658
          29   -0.0292   -0.0187    0.0504   -0.0473    0.0137   -0.0052    0.0286    0.0368
          30   -0.0200    0.0011   -0.2313    0.2188   -0.0668    0.0307   -0.1243   -0.1498
          31    0.0217    0.0068   -0.1445    0.1501   -0.0132    0.0797    0.1928    0.2424
          32   -0.0063    0.0100    0.0418   -0.0425    0.0045   -0.0236   -0.0567   -0.0708
          33   -0.0204   -0.0390    0.0227   -0.0225    0.0038   -0.0090   -0.0146   -0.0180
          34    0.0257   -0.0400   -0.0032   -0.0032   -0.0174   -0.0189   -0.0009    0.0017
          35    0.0962   -0.0929   -0.0006   -0.0002   -0.0077   -0.0072    0.0019   -0.0018
          36    0.0891   -0.0651    0.0013    0.0019    0.0128    0.0154    0.0036   -0.0046
          37    0.0237    0.1262   -0.0005    0.0003    0.0031   -0.0043   -0.0043    0.0026
          38   -0.0480    0.0625   -0.0002   -0.0005   -0.0062   -0.0021    0.0087    0.0013
          39   -0.0513   -0.0002   -0.0000   -0.0005   -0.0067   -0.0000    0.0115   -0.0001


   Root No.      33

                18 A'  

                2769.8
  
           1    0.0035
           2    0.0076
           3    0.0062
           4    0.0004
           5   -0.0007
           6    0.0015
           7   -0.0081
           8    0.0019
           9    0.0062
          10   -0.0040
          11   -0.0036
          12   -0.0050
          13    0.0063
          14    0.0347
          15   -0.0675
          16   -0.0490
          17   -0.1273
          18   -0.0102
          19   -0.0671
          20   -0.0255
          21    0.0529
          22   -0.0960
          23    0.1945
          24    0.2533
          25    0.0611
          26    0.0379
          27    0.0528
          28   -0.0314
          29    0.0159
          30   -0.0673
          31    0.1308
          32   -0.0383
          33   -0.0103
          34    0.0053
          35    0.0010
          36   -0.0050
          37    0.0071
          38   -0.0145
          39   -0.0196


           MASS-WEIGHTED COORDINATE ANALYSIS (NORMAL COORDINATES)


   Root No.       1         2         3         4         5         6         7         8

                 1 A"      2 A"      1 A'      2 A'      3 A"      3 A'      4 A'      4 A"  

               -2048.2     272.5     420.5     445.4     496.3     602.3     725.4     755.0
  
           1   -0.2383   -0.0851    0.3249    0.4291   -0.2499   -0.1048   -0.1060   -0.0305
           2    0.0724    0.2951    0.0766    0.1982   -0.1972    0.0136   -0.0763    0.1784
           3    0.0687   -0.1510   -0.0130   -0.0539   -0.2712    0.0543   -0.0700   -0.1019
           4    0.7567   -0.0660    0.0770    0.0427   -0.1070    0.0632    0.0436    0.0922
           5    0.3742   -0.0326   -0.1550   -0.0863   -0.0529   -0.1273   -0.0883    0.0456
           6   -0.0006    0.0000    0.2233    0.0063    0.0001    0.2301    0.0218   -0.0001
           7   -0.0870    0.1831   -0.2583   -0.4183   -0.3080    0.0529    0.1253    0.1233
           8   -0.2338   -0.2464   -0.2110   -0.2204   -0.0788    0.0917    0.0372   -0.1322
           9   -0.0680    0.1508   -0.0127   -0.0535    0.2717    0.0542   -0.0695    0.1016
          10   -0.0967   -0.1602   -0.0979   -0.0801    0.1856    0.1660   -0.2893    0.0152
          11    0.0636    0.2381    0.1742   -0.2120    0.3308   -0.0707   -0.2290   -0.1412
          12    0.1094   -0.2702   -0.1521    0.1052    0.2001    0.1229   -0.1000    0.0582
          13    0.1788   -0.0671    0.2710    0.0116   -0.1548    0.3200    0.1491   -0.3956
          14   -0.0419    0.2752   -0.0096    0.1706   -0.1397    0.1467   -0.1770   -0.0233
          15    0.0232    0.0397   -0.0109    0.0256   -0.1190    0.0951   -0.0748   -0.0675
          16    0.0153   -0.0436   -0.0200    0.2042   -0.1585   -0.2994   -0.3012    0.4129
          17   -0.0020    0.1066    0.0712    0.0304   -0.0350    0.1458    0.0785   -0.1438
          18   -0.0041   -0.2109   -0.0612   -0.0912    0.0245   -0.2769    0.0457    0.2201
          19    0.0613    0.1386   -0.1653    0.1261    0.1706   -0.0506    0.2014    0.0942
          20   -0.0490   -0.2039    0.1141   -0.1257   -0.0562    0.0403   -0.1130   -0.1101
          21    0.0488    0.1488   -0.1922    0.0480    0.0159    0.0236    0.0526    0.0737
          22   -0.0078   -0.0071    0.0824   -0.0924   -0.0413   -0.0772    0.0065    0.0113
          23   -0.0037   -0.0036   -0.1664    0.1866   -0.0204    0.1555   -0.0129    0.0055
          24   -0.0001    0.0001    0.2051   -0.1157    0.0000   -0.2276    0.1613    0.0001
          25   -0.0019   -0.0782    0.0092    0.0234    0.0588   -0.0013   -0.0323   -0.0304
          26    0.0786    0.2337    0.2007   -0.1762    0.1697    0.0648   -0.2290    0.1416
          27   -0.0489   -0.1488   -0.1925    0.0479   -0.0161    0.0235    0.0531   -0.0737
          28    0.0753    0.1779   -0.1570   -0.1428   -0.2048   -0.3106    0.0504   -0.2586
          29    0.1673   -0.2202   -0.2211    0.0944   -0.0381   -0.1652   -0.2260   -0.3001
          30   -0.0234   -0.0398   -0.0105    0.0256    0.1193    0.0957   -0.0745    0.0681
          31    0.0077    0.0585   -0.0445   -0.1483   -0.1241    0.0654    0.1206    0.1359
          32    0.0133   -0.0991    0.0594   -0.1437   -0.1047    0.3264    0.2867    0.4153
          33    0.0043    0.2107   -0.0613   -0.0911   -0.0242   -0.2772    0.0457   -0.2208
          34   -0.0084    0.0925   -0.0790    0.2175    0.3752   -0.0443    0.3570   -0.1031
          35   -0.1154   -0.2717    0.1827   -0.0654   -0.0534   -0.1749    0.0915    0.0976
          36   -0.1095    0.2703   -0.1518    0.1053   -0.2007    0.1231   -0.1012   -0.0580
          37    0.1160   -0.0629    0.0950   -0.1554    0.1596    0.0144   -0.1559   -0.0229
          38    0.0576   -0.0313   -0.1917    0.3140    0.0790   -0.0297    0.3158   -0.0115
          39   -0.0003    0.0002    0.3586   -0.0612   -0.0002   -0.2638    0.2738    0.0001


   Root No.       9        10        11        12        13        14        15        16

                 5 A'      5 A"      6 A'      6 A"      7 A'      8 A'      7 A"      9 A'  

                 841.7     944.4     975.0    1031.2    1050.4    1088.4    1155.9    1177.6
  
           1    0.0031    0.1170    0.0454    0.0045   -0.1525    0.2413   -0.1980   -0.0088
           2   -0.0608    0.1341   -0.1816    0.2615   -0.2832   -0.0780   -0.0208    0.0069
           3   -0.0547    0.0142    0.0927   -0.0960   -0.0271    0.1366   -0.1778   -0.0913
           4   -0.0188   -0.1097    0.0029    0.0514   -0.0033    0.0245   -0.2251    0.0859
           5    0.0374   -0.0543   -0.0065    0.0254    0.0070   -0.0499   -0.1112   -0.1723
           6   -0.2806    0.0002   -0.2285   -0.0000    0.1640   -0.2280    0.0000    0.7647
           7    0.0465    0.1778    0.1171    0.2108    0.3176   -0.0843   -0.1368   -0.0001
           8   -0.0397    0.0112   -0.1469   -0.1552   -0.0510   -0.2391   -0.1439    0.0105
           9   -0.0546   -0.0142    0.0929    0.0959   -0.0276    0.1369    0.1774   -0.0910
          10   -0.0911   -0.0208   -0.0713   -0.0715   -0.0379   -0.0490   -0.0316   -0.0450
          11   -0.1904   -0.2042   -0.1057    0.2283    0.1405    0.2155   -0.0095   -0.0948
          12    0.0504    0.0509    0.0210   -0.2148   -0.1466   -0.1493   -0.1413   -0.0036
          13   -0.1350    0.1877   -0.1460    0.0032    0.0011   -0.2433    0.3890   -0.3830
          14    0.0165   -0.2650    0.2392   -0.2644    0.2102    0.1144   -0.1328    0.0518
          15   -0.0083   -0.1222    0.1323   -0.1518    0.1113    0.0678   -0.0840   -0.0100
          16   -0.1002   -0.2034   -0.0870   -0.0824    0.2125   -0.3283    0.3347   -0.0888
          17    0.0200    0.0986    0.0191    0.0603   -0.1344    0.1374   -0.1557    0.0190
          18    0.0132    0.1728   -0.1749    0.2881   -0.3063   -0.0080   -0.0701    0.0648
          19   -0.2497    0.2564   -0.1132   -0.2487    0.0885    0.1704    0.0100   -0.0247
          20    0.2233   -0.3225    0.1846    0.0953   -0.0903   -0.1309    0.0712    0.0663
          21   -0.2542    0.2040   -0.0928   -0.2278    0.0506    0.1393    0.0852   -0.0377
          22   -0.1995    0.0114    0.1874   -0.0287   -0.0911   -0.0478    0.2576    0.0061
          23    0.4028    0.0058   -0.3780   -0.0141    0.1842    0.0964    0.1271   -0.0121
          24   -0.3047   -0.0001    0.3788   -0.0000   -0.0474   -0.1436    0.0000   -0.0049
          25   -0.0262   -0.1011   -0.0780   -0.0748    0.0182    0.0008    0.0627   -0.0377
          26    0.3336    0.3995    0.2016   -0.2552   -0.1252   -0.2148   -0.0356    0.0596
          27   -0.2544   -0.2042   -0.0927    0.2281    0.0507    0.1395   -0.0851   -0.0375
          28    0.0689   -0.0964   -0.1012   -0.2079   -0.1675    0.0568    0.1304    0.1914
          29    0.1172    0.3099    0.2612    0.1630    0.1267    0.2628    0.3903    0.3358
          30   -0.0085    0.1222    0.1322    0.1520    0.1115    0.0675    0.0834   -0.0105
          31    0.0450   -0.0453    0.0374   -0.0025   -0.0226    0.0900    0.0794    0.0389
          32    0.0916   -0.2217    0.0802   -0.1024   -0.2509    0.3442    0.3609    0.0818
          33    0.0131   -0.1724   -0.1749   -0.2880   -0.3061   -0.0084    0.0692    0.0648
          34    0.2065   -0.1751    0.1271    0.1383   -0.0890   -0.1418   -0.0262    0.1024
          35   -0.0428    0.1075   -0.0069   -0.1951    0.1156    0.1697   -0.0197   -0.0212
          36    0.0500   -0.0509    0.0206    0.2147   -0.1465   -0.1492    0.1417   -0.0040
          37    0.0133   -0.0698   -0.1320   -0.1111   -0.0485    0.1139    0.0917    0.0129
          38   -0.0262   -0.0343    0.2668   -0.0548    0.0991   -0.2302    0.0448   -0.0259
          39    0.3231   -0.0001   -0.1923    0.0000    0.3976    0.0174    0.0004   -0.0400


   Root No.      17        18        19        20        21        22        23        24

                10 A'      8 A"      9 A"     11 A'     10 A"     12 A'     11 A"     13 A'  

                1209.1    1245.6    1298.9    1306.7    1362.1    1399.7    1535.9    1614.2
  
           1    0.0874    0.1113    0.1346    0.1344    0.0514    0.0572    0.0797    0.1187
           2   -0.0815   -0.1050    0.0299   -0.0384   -0.0734   -0.1413   -0.1891   -0.0366
           3   -0.0955   -0.0956   -0.0739   -0.1140   -0.1878   -0.3242   -0.2931    0.0201
           4   -0.0262    0.1669    0.0891   -0.0380    0.0276    0.0696    0.1227   -0.3972
           5    0.0531    0.0826    0.0442    0.0769    0.0137   -0.1407    0.0608    0.8035
           6    0.0121   -0.0002   -0.0003   -0.0076   -0.0000   -0.0530   -0.0003    0.2433
           7    0.0113   -0.0159    0.1052   -0.0512   -0.0269    0.0771   -0.1019   -0.0429
           8   -0.1182    0.1525    0.0897   -0.1302    0.0856   -0.1314    0.1791   -0.1163
           9   -0.0958    0.0953    0.0730   -0.1139    0.1877   -0.3243    0.2925    0.0203
          10    0.2933   -0.0884   -0.1453    0.0917   -0.1042    0.2167   -0.0900    0.0548
          11    0.1545   -0.0720   -0.0235    0.0675    0.0384    0.1021   -0.2209   -0.0869
          12    0.1442   -0.0607   -0.0330    0.1145    0.0744    0.0778   -0.2710   -0.1048
          13   -0.1078   -0.1912   -0.1356   -0.0981    0.0967    0.1114   -0.0031    0.0722
          14   -0.1521   -0.0972   -0.2083   -0.2925    0.3088    0.2409    0.0600    0.0889
          15   -0.0887   -0.0645   -0.1313   -0.1763    0.1141    0.0589   -0.0126    0.0261
          16   -0.1332   -0.1169   -0.0457   -0.0173   -0.1094   -0.0873   -0.0701   -0.0890
          17    0.0323    0.0382    0.0453    0.0249   -0.0075   -0.0345   -0.0225    0.0353
          18   -0.0904   -0.1554   -0.1833   -0.3029    0.4277    0.3586    0.0789    0.0741
          19   -0.1626   -0.0625    0.0825    0.0627    0.0638    0.0122   -0.0741    0.0214
          20   -0.3635   -0.0962    0.4310    0.3404    0.2057    0.1508   -0.1073    0.0331
          21   -0.2222   -0.0776    0.3562    0.3027    0.1760    0.1804   -0.0394    0.0082
          22   -0.0009    0.7204   -0.1358   -0.0065    0.2561   -0.0127   -0.3004   -0.0008
          23    0.0019    0.3562   -0.0675    0.0132    0.1266    0.0257   -0.1489    0.0015
          24    0.0983   -0.0006    0.0004    0.0346   -0.0002    0.0569    0.0005    0.0007
          25    0.3872   -0.1142    0.3922   -0.3081    0.2019   -0.1269   -0.1301   -0.0394
          26   -0.0912    0.0087   -0.1966    0.1570   -0.0743    0.0820    0.0060    0.0031
          27   -0.2229    0.0778   -0.3566    0.3031   -0.1762    0.1805    0.0397    0.0082
          28    0.1860   -0.1933   -0.2479    0.2917    0.3039   -0.2590    0.0456   -0.1144
          29   -0.0066   -0.0928    0.0193   -0.0997   -0.1106    0.0577   -0.0384   -0.0034
          30   -0.0891    0.0648    0.1316   -0.1766   -0.1145    0.0593    0.0125    0.0263
          31    0.0550   -0.0404    0.0084   -0.0098   -0.0730    0.0809   -0.0607    0.0261
          32    0.1258   -0.1159   -0.0634    0.0287   -0.0827    0.0487   -0.0419    0.0923
          33   -0.0907    0.1554    0.1829   -0.3029   -0.4276    0.3584   -0.0792    0.0740
          34   -0.3002   -0.1107   -0.1066   -0.1091   -0.0328   -0.2125   -0.2296    0.0357
          35   -0.1399   -0.0267   -0.1017   -0.0318   -0.1063   -0.1103    0.0623   -0.0965
          36    0.1451    0.0610    0.0335    0.1147   -0.0742    0.0782    0.2716   -0.1048
          37   -0.1490    0.0548    0.0101   -0.0300   -0.1098   -0.0771    0.4780   -0.0153
          38    0.3011    0.0270    0.0044    0.0608   -0.0544    0.1562    0.2359    0.0310
          39    0.1029    0.0001    0.0005    0.0931    0.0002    0.1448    0.0000    0.0358


   Root No.      25        26        27        28        29        30        31        32

                14 A'     12 A"     13 A"     15 A'     16 A'     14 A"     17 A'     15 A"  

                1663.0    1671.8    2688.9    2694.3    2742.3    2744.0    2765.4    2767.0
  
           1    0.0404    0.0138    0.0414    0.0484   -0.0168   -0.0241    0.0355   -0.0460
           2   -0.1940    0.1341    0.1470    0.1482   -0.0214   -0.0438    0.0773   -0.0928
           3   -0.2412    0.1660   -0.1227   -0.1211    0.0469    0.0221    0.0849   -0.0959
           4   -0.0703   -0.2546   -0.0181   -0.0133    0.0048    0.0038    0.0061   -0.0361
           5    0.1420   -0.1261   -0.0090    0.0268   -0.0097    0.0018   -0.0125   -0.0179
           6    0.0362    0.0004    0.0000   -0.0102   -0.0013    0.0001    0.0011    0.0001
           7    0.1294    0.1150    0.1422   -0.1474    0.0276   -0.0493   -0.0828   -0.1012
           8   -0.1503   -0.0713   -0.0563    0.0513    0.0001    0.0071    0.0185    0.0194
           9   -0.2411   -0.1654    0.1226   -0.1210    0.0475   -0.0217    0.0858    0.0963
          10   -0.3902   -0.4000   -0.0190    0.0174    0.1200   -0.1137   -0.0075   -0.0031
          11    0.1609    0.1011   -0.0168    0.0194    0.0657   -0.0701    0.0154    0.0188
          12    0.3790    0.2658   -0.0104    0.0152    0.0921   -0.1012    0.0303    0.0356
          13    0.0622   -0.0254   -0.0231   -0.0215    0.0075    0.0009    0.0252   -0.0235
          14    0.0224    0.0022   -0.2186   -0.2097    0.0569    0.0172    0.1464   -0.1681
          15   -0.0247   -0.0012    0.5230    0.5083   -0.1391   -0.0587   -0.2982    0.3377
          16   -0.0101    0.0145   -0.1232   -0.1331    0.0092    0.0567   -0.1727    0.2049
          17   -0.0258   -0.0010   -0.3170   -0.3369    0.0276    0.1483   -0.4497    0.5307
          18   -0.0252    0.0465   -0.0509   -0.0517    0.0075    0.0173   -0.0348    0.0401
          19   -0.0013   -0.0370    0.1098    0.1144    0.4733    0.4979    0.0459   -0.0732
          20   -0.0910   -0.0004    0.0420    0.0446    0.1756    0.1851    0.0168   -0.0284
          21   -0.0484   -0.0446   -0.0823   -0.0874   -0.3797   -0.3966   -0.0383    0.0623
          22    0.0113    0.0528   -0.0002   -0.0064   -0.0858   -0.0016    0.1450    0.0017
          23   -0.0228    0.0264   -0.0000    0.0129    0.1738   -0.0006   -0.2939    0.0016
          24   -0.0368   -0.0003   -0.0000    0.0178    0.2275   -0.0000   -0.3839    0.0005
          25    0.0731   -0.0228    0.1002   -0.1050   -0.4276    0.4496   -0.0414   -0.0670
          26   -0.0544   -0.0288    0.0618   -0.0639   -0.2703    0.2837   -0.0266   -0.0407
          27   -0.0484    0.0445    0.0821   -0.0872   -0.3788    0.3954   -0.0381   -0.0620
          28   -0.0554   -0.0135   -0.1886    0.1805   -0.0498    0.0144   -0.1322   -0.1480
          29   -0.0359   -0.0220    0.1139   -0.1098    0.0285   -0.0099    0.0688    0.0827
          30   -0.0245    0.0013   -0.5228    0.5080   -0.1390    0.0586   -0.2987   -0.3369
          31    0.0267    0.0080   -0.3266    0.3484   -0.0275    0.1523    0.4635    0.5453
          32   -0.0078    0.0118    0.0944   -0.0987    0.0093   -0.0451   -0.1363   -0.1592
          33   -0.0251   -0.0461    0.0514   -0.0522    0.0078   -0.0173   -0.0352   -0.0405
          34    0.1093   -0.1630   -0.0249   -0.0259   -0.1251   -0.1247   -0.0079    0.0129
          35    0.4083   -0.3791   -0.0049   -0.0020   -0.0551   -0.0476    0.0156   -0.0137
          36    0.3782   -0.2656    0.0104    0.0153    0.0917    0.1014    0.0297   -0.0358
          37    0.1006    0.5147   -0.0036    0.0021    0.0221   -0.0282   -0.0356    0.0203
          38   -0.2037    0.2551   -0.0017   -0.0041   -0.0448   -0.0137    0.0722    0.0102
          39   -0.2179   -0.0009   -0.0000   -0.0043   -0.0478   -0.0002    0.0956   -0.0004


   Root No.      33

                18 A'  

                2769.8
  
           1    0.0276
           2    0.0607
           3    0.0492
           4    0.0008
           5   -0.0016
           6    0.0034
           7   -0.0647
           8    0.0150
           9    0.0495
          10   -0.0319
          11   -0.0290
          12   -0.0398
          13    0.0146
          14    0.0800
          15   -0.1558
          16   -0.1131
          17   -0.2940
          18   -0.0235
          19   -0.1550
          20   -0.0589
          21    0.1221
          22   -0.2216
          23    0.4490
          24    0.5848
          25    0.1410
          26    0.0875
          27    0.1220
          28   -0.0725
          29    0.0368
          30   -0.1555
          31    0.3019
          32   -0.0884
          33   -0.0238
          34    0.0423
          35    0.0077
          36   -0.0401
          37    0.0568
          38   -0.1154
          39   -0.1559


          DESCRIPTION OF VIBRATIONS


 VIBRATION          1    1A"          ATOM PAIR      ENERGY CONTRIBUTION    RADIAL
 FREQUENCY         -2048.16         H  2 -- C  3         -57.1% (-73.6%)     91.4%
 TRANSITION DIPOLE   0.0664         C  1 -- H  2         -57.1% (-73.6%)     91.2%
 TRAVEL (Ang.)       0.2267         C  4 -- C 13          -2.1% (-14.1%)     97.2%
 REDUCED MASS        0.6405         C 12 -- C 13          -2.1% (-14.1%)     97.2%
 EFFECTIVE MASS      1.8960
 FORCE CONSTANT     -1.5830

 VIBRATION          2    2A"          ATOM PAIR      ENERGY CONTRIBUTION    RADIAL
 FREQUENCY           272.51         C  1 -- C 12         +16.4% (163.0%)      0.0%
 TRANSITION DIPOLE   0.0725         C  3 -- C  4         +16.4% (162.9%)      0.0%
 TRAVEL (Ang.)       0.5121         C  1 -- H  5          +8.3% (116.1%)     86.9%
 REDUCED MASS        0.9434         C  3 -- H 10          +8.3% (116.1%)     87.6%
 EFFECTIVE MASS     34.6691
 FORCE CONSTANT      0.0413

 VIBRATION          3    1A'          ATOM PAIR      ENERGY CONTRIBUTION    RADIAL
 FREQUENCY           420.54         C  4 -- C 13         +13.2% ( 85.0%)      0.0%
 TRANSITION DIPOLE   0.1337         C 12 -- C 13         +13.2% ( 85.0%)      0.0%
 TRAVEL (Ang.)       0.4493         H  2 -- C  3         +10.9% ( 77.2%)     36.1%
 REDUCED MASS        0.7942         C  1 -- H  2         +10.9% ( 77.2%)     35.9%
 EFFECTIVE MASS     14.6846
 FORCE CONSTANT      0.0828

 VIBRATION          4    2A'          ATOM PAIR      ENERGY CONTRIBUTION    RADIAL
 FREQUENCY           445.39         C  3 -- C  4         +10.4% ( 79.9%)      0.4%
 TRANSITION DIPOLE   0.1722         C  1 -- C 12         +10.4% ( 79.9%)      0.5%
 TRAVEL (Ang.)       0.3146         C 12 -- C 13          +9.8% ( 77.6%)      0.0%
 REDUCED MASS        1.5295         C  4 -- C 13          +9.8% ( 77.5%)      0.0%
 EFFECTIVE MASS     18.5527
 FORCE CONSTANT      0.1788

 VIBRATION          5    3A"          ATOM PAIR      ENERGY CONTRIBUTION    RADIAL
 FREQUENCY           496.34         C  3 -- C  4         +11.7% (108.3%)      0.1%
 TRANSITION DIPOLE   0.2818         C  1 -- C 12         +11.7% (108.3%)      0.1%
 TRAVEL (Ang.)       0.2941         C 12 -- C 13          +8.8% ( 93.5%)      0.8%
 REDUCED MASS        1.5702         C  4 -- C 13          +8.8% ( 93.5%)      0.8%
 EFFECTIVE MASS     16.4432
 FORCE CONSTANT      0.2279

 VIBRATION          6    3A'          ATOM PAIR      ENERGY CONTRIBUTION    RADIAL
 FREQUENCY           602.25         C  3 -- H 11         +12.3% ( 63.1%)      0.6%
 TRANSITION DIPOLE   0.1567         C  1 -- H  6         +12.3% ( 63.1%)      0.4%
 TRAVEL (Ang.)       0.6856         C  1 -- H  5         +10.5% ( 58.3%)      0.8%
 REDUCED MASS        0.2382         C  3 -- H 10         +10.5% ( 58.3%)      0.7%
 EFFECTIVE MASS      4.4993
 FORCE CONSTANT      0.0509

 VIBRATION          7    4A'          ATOM PAIR      ENERGY CONTRIBUTION    RADIAL
 FREQUENCY           725.39         C 12 -- C 13         +17.7% ( 83.2%)      0.2%
 TRANSITION DIPOLE   0.4184         C  4 -- C 13         +17.7% ( 83.2%)      0.2%
 TRAVEL (Ang.)       0.2998         H  8 -- C 13         +10.3% ( 63.3%)     70.0%
 REDUCED MASS        1.0341         C  1 -- C 12          +9.8% ( 62.0%)      0.2%
 EFFECTIVE MASS     10.1263
 FORCE CONSTANT      0.3206

 VIBRATION          8    4A"          ATOM PAIR      ENERGY CONTRIBUTION    RADIAL
 FREQUENCY           755.02         C  1 -- H  6         +25.7% ( 65.2%)      2.9%
 TRANSITION DIPOLE   0.1677         C  3 -- H 11         +25.7% ( 65.2%)      3.1%
 TRAVEL (Ang.)       0.6261         C  1 -- H  5         +15.4% ( 50.5%)     10.5%
 REDUCED MASS        0.2278         C  3 -- H 10         +15.4% ( 50.5%)      9.8%
 EFFECTIVE MASS      2.3979
 FORCE CONSTANT      0.0765

 VIBRATION          9    5A'          ATOM PAIR      ENERGY CONTRIBUTION    RADIAL
 FREQUENCY           841.68         H  8 -- C 13         +27.1% ( 69.3%)      5.0%
 TRANSITION DIPOLE   0.9322         C  4 -- H  9         +15.1% ( 51.6%)      1.9%
 TRAVEL (Ang.)       0.4816         H  7 -- C 12         +15.1% ( 51.6%)      1.6%
 REDUCED MASS        0.3454         H  2 -- C  3          +7.7% ( 36.8%)      0.7%
 EFFECTIVE MASS      3.2071
 FORCE CONSTANT      0.1442

 VIBRATION         10    5A"          ATOM PAIR      ENERGY CONTRIBUTION    RADIAL
 FREQUENCY           944.44         C  4 -- H  9         +19.8% ( 50.0%)      0.6%
 TRANSITION DIPOLE   0.2988         H  7 -- C 12         +19.8% ( 50.0%)      0.4%
 TRAVEL (Ang.)       0.5890         C  1 -- H  5         +13.9% ( 41.9%)      1.2%
 REDUCED MASS        0.2058         C  3 -- H 10         +13.9% ( 41.9%)      1.0%
 EFFECTIVE MASS      2.3446         C  1 -- H  6         +11.0% ( 37.3%)     16.2%
 FORCE CONSTANT      0.1081         C  3 -- H 11         +11.0% ( 37.3%)     16.4%

 VIBRATION         11    6A'          ATOM PAIR      ENERGY CONTRIBUTION    RADIAL
 FREQUENCY           974.97         H  8 -- C 13         +28.5% ( 64.1%)      0.0%
 TRANSITION DIPOLE   0.4640         C  3 -- H 10         +10.1% ( 38.1%)      8.6%
 TRAVEL (Ang.)       0.4284         C  1 -- H  5         +10.1% ( 38.1%)      8.8%
 REDUCED MASS        0.3768         H  2 -- C  3          +7.4% ( 32.7%)      1.3%
 EFFECTIVE MASS      3.1185
 FORCE CONSTANT      0.2110

 VIBRATION         12    6A"          ATOM PAIR      ENERGY CONTRIBUTION    RADIAL
 FREQUENCY          1031.19         C  4 -- H  9         +11.7% ( 43.3%)      0.8%
 TRANSITION DIPOLE   0.0623         H  7 -- C 12         +11.7% ( 43.3%)      1.0%
 TRAVEL (Ang.)       0.3732         C  3 -- H 10         +11.7% ( 43.1%)     10.7%
 REDUCED MASS        0.4696         C  1 -- H  5         +11.7% ( 43.1%)     11.2%
 EFFECTIVE MASS      4.5101         C  3 -- H 11         +11.1% ( 42.1%)     20.0%
 FORCE CONSTANT      0.2942         C  1 -- H  6         +11.1% ( 42.1%)     19.2%

 VIBRATION         13    7A'          ATOM PAIR      ENERGY CONTRIBUTION    RADIAL
 FREQUENCY          1050.44         C  3 -- H 11         +12.5% ( 50.6%)     29.0%
 TRANSITION DIPOLE   0.1858         C  1 -- H  6         +12.5% ( 50.6%)     28.6%
 TRAVEL (Ang.)       0.3002         C  4 -- C 13         +10.0% ( 45.2%)     11.1%
 REDUCED MASS        0.7124         C 12 -- C 13         +10.0% ( 45.2%)     11.0%
 EFFECTIVE MASS      6.2325
 FORCE CONSTANT      0.4632

 VIBRATION         14    8A'          ATOM PAIR      ENERGY CONTRIBUTION    RADIAL
 FREQUENCY          1088.39         C  1 -- H  6         +13.1% ( 39.8%)      0.2%
 TRANSITION DIPOLE   0.7861         C  3 -- H 11         +13.1% ( 39.8%)      0.2%
 TRAVEL (Ang.)       0.3952         H  7 -- C 12          +8.1% ( 31.2%)      0.3%
 REDUCED MASS        0.3967         C  4 -- H  9          +8.1% ( 31.2%)      0.2%
 EFFECTIVE MASS      4.2788
 FORCE CONSTANT      0.2769

 VIBRATION         15    7A"          ATOM PAIR      ENERGY CONTRIBUTION    RADIAL
 FREQUENCY          1155.92         C  1 -- H  6         +17.5% ( 39.5%)      2.3%
 TRANSITION DIPOLE   0.4388         C  3 -- H 11         +17.5% ( 39.5%)      2.2%
 TRAVEL (Ang.)       0.4857         C  3 -- H 10         +16.0% ( 37.7%)      3.2%
 REDUCED MASS        0.2473         C  1 -- H  5         +16.0% ( 37.7%)      3.0%
 EFFECTIVE MASS      2.9555         H  8 -- C 13         +11.0% ( 31.3%)      0.0%
 FORCE CONSTANT      0.1947

 VIBRATION         16    9A'          ATOM PAIR      ENERGY CONTRIBUTION    RADIAL
 FREQUENCY          1177.63         C  1 -- H  2         +39.8% ( 71.2%)      1.2%
 TRANSITION DIPOLE   0.5451         H  2 -- C  3         +39.8% ( 71.1%)      1.1%
 TRAVEL (Ang.)       0.3608         C  3 -- H 10          +5.9% ( 27.5%)      3.2%
 REDUCED MASS        0.4399         C  1 -- H  5          +5.9% ( 27.5%)      3.4%
 EFFECTIVE MASS      1.3853
 FORCE CONSTANT      0.3594

 VIBRATION         17   10A'          ATOM PAIR      ENERGY CONTRIBUTION    RADIAL
 FREQUENCY          1209.08         H  7 -- C 12         +17.2% ( 53.9%)     33.7%
 TRANSITION DIPOLE   0.1052         C  4 -- H  9         +17.2% ( 53.9%)     33.6%
 TRAVEL (Ang.)       0.2825         C 12 -- C 13         +15.3% ( 50.9%)     73.8%
 REDUCED MASS        0.6991         C  4 -- C 13         +15.3% ( 50.9%)     73.7%
 EFFECTIVE MASS      6.4009
 FORCE CONSTANT      0.6021

 VIBRATION         18    8A"          ATOM PAIR      ENERGY CONTRIBUTION    RADIAL
 FREQUENCY          1245.60         H  8 -- C 13         +63.7% ( 80.2%)      0.0%
 TRANSITION DIPOLE   0.0472         C  1 -- C 12          +4.3% ( 20.8%)     56.6%
 TRAVEL (Ang.)       0.3420         C  3 -- C  4          +4.3% ( 20.8%)     56.8%
 REDUCED MASS        0.4629         C  1 -- H  6          +4.2% ( 20.7%)      2.2%
 EFFECTIVE MASS      2.0860
 FORCE CONSTANT      0.4232

 VIBRATION         19    9A"          ATOM PAIR      ENERGY CONTRIBUTION    RADIAL
 FREQUENCY          1298.93         C  4 -- H  9         +33.4% ( 57.1%)      2.1%
 TRANSITION DIPOLE   0.1717         H  7 -- C 12         +33.3% ( 57.0%)      2.1%
 TRAVEL (Ang.)       0.4568         C  3 -- H 10          +6.2% ( 24.5%)      2.6%
 REDUCED MASS        0.2487         C  1 -- H  5          +6.2% ( 24.5%)      3.1%
 EFFECTIVE MASS      1.8411
 FORCE CONSTANT      0.2473

 VIBRATION         20   11A'          ATOM PAIR      ENERGY CONTRIBUTION    RADIAL
 FREQUENCY          1306.68         H  7 -- C 12         +21.4% ( 45.1%)      6.9%
 TRANSITION DIPOLE   0.1825         C  4 -- H  9         +21.4% ( 45.1%)      7.0%
 TRAVEL (Ang.)       0.5303         C  1 -- H  5          +9.6% ( 30.2%)      3.4%
 REDUCED MASS        0.1835         C  3 -- H 10          +9.6% ( 30.2%)      3.0%
 EFFECTIVE MASS      2.4378
 FORCE CONSTANT      0.1846

 VIBRATION         21   10A"          ATOM PAIR      ENERGY CONTRIBUTION    RADIAL
 FREQUENCY          1362.13         C  3 -- H 11         +18.0% ( 43.4%)      0.3%
 TRANSITION DIPOLE   0.2893         C  1 -- H  6         +18.0% ( 43.4%)      0.4%
 TRAVEL (Ang.)       0.5262         C  1 -- H  5         +10.7% ( 33.5%)      4.6%
 REDUCED MASS        0.1788         C  3 -- H 10         +10.7% ( 33.5%)      4.9%
 EFFECTIVE MASS      1.9340
 FORCE CONSTANT      0.1954

 VIBRATION         22   12A'          ATOM PAIR      ENERGY CONTRIBUTION    RADIAL
 FREQUENCY          1399.70         C  3 -- H 11         +12.8% ( 45.5%)      1.3%
 TRANSITION DIPOLE   0.7835         C  1 -- H  6         +12.8% ( 45.5%)      1.5%
 TRAVEL (Ang.)       0.2881         C  3 -- C  4          +9.6% ( 39.4%)     66.5%
 REDUCED MASS        0.5802         C  1 -- C 12          +9.6% ( 39.4%)     66.8%
 EFFECTIVE MASS      5.6696
 FORCE CONSTANT      0.6698

 VIBRATION         23   11A"          ATOM PAIR      ENERGY CONTRIBUTION    RADIAL
 FREQUENCY          1535.87         H  8 -- C 13         +15.6% ( 55.7%)      0.0%
 TRANSITION DIPOLE   0.1631         C 12 -- C 13         +15.3% ( 55.1%)     36.6%
 TRAVEL (Ang.)       0.1568         C  4 -- C 13         +15.3% ( 55.1%)     36.7%
 REDUCED MASS        1.7857         C  1 -- C 12         +11.3% ( 47.4%)     90.3%
 EFFECTIVE MASS      9.4745         C  3 -- C  4         +11.3% ( 47.4%)     90.3%
 FORCE CONSTANT      2.4818

 VIBRATION         24   13A'          ATOM PAIR      ENERGY CONTRIBUTION    RADIAL
 FREQUENCY          1614.18         C  1 -- H  2         +46.5% ( 91.2%)     26.0%
 TRANSITION DIPOLE   0.7033         H  2 -- C  3         +46.5% ( 91.2%)     25.8%
 TRAVEL (Ang.)       0.2332         C 12 -- C 13          +0.9% ( 12.7%)     29.3%
 REDUCED MASS        0.7680         C  4 -- C 13          +0.9% ( 12.7%)     29.3%
 EFFECTIVE MASS      1.6041
 FORCE CONSTANT      1.1791

 VIBRATION         25   14A'          ATOM PAIR      ENERGY CONTRIBUTION    RADIAL
 FREQUENCY          1663.01         C  3 -- C  4         +15.9% ( 57.3%)     89.8%
 TRANSITION DIPOLE   1.3530         C  1 -- C 12         +15.9% ( 57.3%)     89.8%
 TRAVEL (Ang.)       0.1196         C  4 -- C 13         +14.7% ( 55.2%)     56.0%
 REDUCED MASS        2.8343         C 12 -- C 13         +14.7% ( 55.2%)     56.0%
 EFFECTIVE MASS     11.2841         C  4 -- H  9         +10.2% ( 45.9%)      0.3%
 FORCE CONSTANT      4.6184         H  7 -- C 12         +10.2% ( 45.9%)      0.3%

 VIBRATION         26   12A"          ATOM PAIR      ENERGY CONTRIBUTION    RADIAL
 FREQUENCY          1671.80         C 12 -- C 13         +24.2% ( 66.2%)     98.3%
 TRANSITION DIPOLE   2.6545         C  4 -- C 13         +24.2% ( 66.2%)     98.4%
 TRAVEL (Ang.)       0.1209         C  1 -- C 12         +11.7% ( 46.1%)     74.5%
 REDUCED MASS        2.7585         C  3 -- C  4         +11.7% ( 46.1%)     74.6%
 EFFECTIVE MASS      9.8694         H  8 -- C 13         +10.2% ( 43.1%)      0.0%
 FORCE CONSTANT      4.5424

 VIBRATION         27   13A"          ATOM PAIR      ENERGY CONTRIBUTION    RADIAL
 FREQUENCY          2688.88         C  3 -- H 10         +33.6% ( 59.9%)     99.2%
 TRANSITION DIPOLE   0.1001         C  1 -- H  5         +33.6% ( 59.9%)     99.4%
 TRAVEL (Ang.)       0.3030         C  3 -- H 11         +13.4% ( 37.8%)     95.8%
 REDUCED MASS        0.2732         C  1 -- H  6         +13.4% ( 37.8%)     95.4%
 EFFECTIVE MASS      1.4548
 FORCE CONSTANT      1.1638

 VIBRATION         28   15A'          ATOM PAIR      ENERGY CONTRIBUTION    RADIAL
 FREQUENCY          2694.31         C  1 -- H  5         +31.7% ( 58.1%)     99.3%
 TRANSITION DIPOLE   0.7610         C  3 -- H 10         +31.7% ( 58.1%)     99.1%
 TRAVEL (Ang.)       0.3112         C  1 -- H  6         +15.0% ( 40.0%)     96.0%
 REDUCED MASS        0.2585         C  3 -- H 11         +15.0% ( 40.0%)     96.4%
 EFFECTIVE MASS      1.4678
 FORCE CONSTANT      1.1054

 VIBRATION         29   16A'          ATOM PAIR      ENERGY CONTRIBUTION    RADIAL
 FREQUENCY          2742.28         C  4 -- H  9         +41.8% ( 65.3%)    100.0%
 TRANSITION DIPOLE   0.5934         H  7 -- C 12         +41.8% ( 65.2%)    100.0%
 TRAVEL (Ang.)       0.2656         H  8 -- C 13          +9.4% ( 30.9%)     99.9%
 REDUCED MASS        0.3485         C  3 -- H 10          +2.4% ( 15.7%)     99.2%
 EFFECTIVE MASS      1.3847
 FORCE CONSTANT      1.5443

 VIBRATION         30   14A"          ATOM PAIR      ENERGY CONTRIBUTION    RADIAL
 FREQUENCY          2744.02         H  7 -- C 12         +45.9% ( 68.3%)    100.0%
 TRANSITION DIPOLE   1.0397         C  4 -- H  9         +45.8% ( 68.3%)    100.0%
 TRAVEL (Ang.)       0.2450         C  3 -- H 11          +2.7% ( 16.7%)     99.4%
 REDUCED MASS        0.4093         C  1 -- H  6          +2.7% ( 16.7%)     99.2%
 EFFECTIVE MASS      1.3675
 FORCE CONSTANT      1.8159

 VIBRATION         31   17A'          ATOM PAIR      ENERGY CONTRIBUTION    RADIAL
 FREQUENCY          2765.37         H  8 -- C 13         +27.4% ( 52.0%)    100.0%
 TRANSITION DIPOLE   1.1949         C  3 -- H 11         +24.2% ( 48.9%)     97.7%
 TRAVEL (Ang.)       0.3418         C  1 -- H  6         +24.1% ( 48.7%)     97.9%
 REDUCED MASS        0.2087         C  3 -- H 10         +11.0% ( 33.0%)     92.9%
 EFFECTIVE MASS      1.2719         C  1 -- H  5         +11.0% ( 32.9%)     92.4%
 FORCE CONSTANT      0.9404

 VIBRATION         32   15A"          ATOM PAIR      ENERGY CONTRIBUTION    RADIAL
 FREQUENCY          2767.04         C  1 -- H  6         +34.1% ( 57.6%)     98.2%
 TRANSITION DIPOLE   0.6575         C  3 -- H 11         +34.0% ( 57.5%)     97.9%
 TRAVEL (Ang.)       0.3042         C  1 -- H  5         +14.3% ( 37.3%)     91.7%
 REDUCED MASS        0.2634         C  3 -- H 10         +14.2% ( 37.2%)     92.2%
 EFFECTIVE MASS      1.2583
 FORCE CONSTANT      1.1884

 VIBRATION         33   18A'          ATOM PAIR      ENERGY CONTRIBUTION    RADIAL
 FREQUENCY          2769.83         H  8 -- C 13         +62.5% ( 79.4%)    100.0%
 TRANSITION DIPOLE   0.2892         C  1 -- H  6         +10.2% ( 32.1%)     98.5%
 TRAVEL (Ang.)       0.2464         C  3 -- H 11         +10.2% ( 32.0%)     98.2%
 REDUCED MASS        0.4010         C  4 -- H  9          +4.4% ( 21.2%)     99.9%
 EFFECTIVE MASS      1.3925
 FORCE CONSTANT      1.8128

           FORCE CONSTANT IN INTERNAL COORDINATES (Millidynes/A)

    ATOM   CHEMICAL  BOND LENGTH      BOND ANGLE     TWIST ANGLE
   NUMBER   SYMBOL  FORCE CONSTANT  FORCE CONSTANT  FORCE CONSTANT

      1       C        0.000000        0.000000        0.000000
      2       H        4.363926        0.000000        0.000000
      3       C       10.091138       28.035228        0.000000
      4       C       11.109230       50.970266        7.527682
      5       H        4.101796        0.525666        0.790419
      6       H        4.202444        0.568771        0.725469
      7       H        8.161080       11.308971        6.620054
      8       H        8.464630       16.061315        2.767397
      9       H        4.215955        1.114187        0.341989
     10       H        4.102916        0.526815        0.787420
     11       H        4.200525        0.567981        0.728003
     12       C        9.029864       13.917346        1.087820
     13       C        9.517209       13.356675        1.004887
 *******************************************************************************
 ** Site#: 37037        For non-commercial use only           Version 21.153W **
 *******************************************************************************
 ** Cite this program as: MOPAC2016, Version: 21.153W, James J. P. Stewart,   **
 ** Stewart Computational Chemistry, web: HTTP://OpenMOPAC.net. Days left: 362**
 *******************************************************************************
 **                                                                           **
 **                                MOPAC2016                                  **
 **                                                                           **
 *******************************************************************************

                              PM7 CALCULATION RESULTS

 *******************************************************************************
 *  CALCULATION DONE:                                Sat Jun  5 15:48:11 2021  *
 *  IRC=N      - INTRINSIC REACTION COORDINATE  1 DEFINED
 *  OLDGEO     - PREVIOUS GEOMETRY TO BE USED
 *  RESTART    - CALCULATION RESTARTED
 *  T=         - A TIME OF 172800.0 SECONDS REQUESTED
 *  DUMP=N     - RESTART FILE WRITTEN EVERY 7200.0 SECONDS REQUESTED
 *  HTML       - WRITE HTML SCRIPT TO GENERATE ANIMATION USING JSMOL
 *             - TO DISPLAY IN PDB FORMAT, ADD "PDBOUT"
 *  X-PRIOR    - GEOMETRY CHANGES TAKE PRIORITY IN DRC
 *******************************************************************************
oldgeo irc=1* x-priority=0.1 restart HTML
 Transition state for Pentadiene <=> Pentadiene

  ATOM    CHEMICAL      BOND LENGTH      BOND ANGLE     TWIST ANGLE 
 NUMBER    SYMBOL       (ANGSTROMS)      (DEGREES)       (DEGREES) 
   (I)                     NA:I           NB:NA:I       NC:NB:NA:I       NA    NB    NC 
     1       C          0.00000000       0.0000000       0.0000000        0     0     0
     2       H          1.45606939  *    0.0000000       0.0000000        1     0     0
     3       C          1.45606939     127.5757429  *    0.0000000        2     1     0
     4       C          1.40511887  *  101.1044815  *   55.8171819  *     3     2     1
     5       H          1.08559616  *   87.2888380  *   64.3578040  *     1     2     3
     6       H          1.08161192  *  112.3752296  *  175.9968582  *     1     2     3
     7       H          2.15524266  *  119.9872604  *  -75.8536216  *     1     2     3
     8       H          2.14561095  *  148.6854092  *  -35.1958698  *     4     3     2
     9       H          1.09303169  *  118.6779695  *  139.7672258  *     4     3     2
    10       H          1.08522587  *   87.5811436  *  -64.7830742  *     3     2     1
    11       H          1.08183120  *  112.4281066  * -176.4932259  *     3     2     1
    12       C          1.09310400  *   34.7590957  *   48.0114107  *     7     1     2
    13       C          1.08779438  *   34.4419516  *    8.8455253  *     8     4     3
 


          CARTESIAN COORDINATES 

    NO.       ATOM           X           Y           Z

     1         C          0.0000      0.0000      0.0000
     2         H          1.4561      0.0000      0.0000
     3         C          2.3440      1.1540      0.0000
     4         C          1.8951      1.8409      1.1406
     5         H          0.0513      0.4693     -0.9776
     6         H         -0.4117     -0.9977     -0.0698
     7         H         -1.0772      0.4562      1.8101
     8         H          0.2645      2.4126      2.4127
     9         H          2.6344      2.3059      1.7978
    10         H          1.9500      1.3994     -0.9809
    11         H          3.3868      0.8725     -0.0612
    12         C         -0.2673      0.7662      1.1447
    13         C          0.5740      1.7903      1.5759

 General Reference for PM7:
 "Optimization of Parameters for Semiempirical Methods VI: More Modifications to the 
 NDDO Approximations and Re-optimization of Parameters", J. J. P. Stewart, J. Mol. Mod., 1:32, 19 (2013)
 https://link.springer.com/article/10.1007/s00894-012-1667-x

           Empirical Formula: C5 H8  =    13 atoms



      MOLECULAR POINT GROUP   :   Cs  


      RHF CALCULATION, NO. OF DOUBLY OCCUPIED LEVELS = 14


          MOLECULAR WEIGHT =   68.12


          ESTIMATED TIME TO COMPLETE CALCULATION =        0.00 SECONDS

          TIME USED UP TO RESTART =                  0.14

    FOR POINT-GROUP Cs   THERE ARE   2 UNIQUE SYMMETRY FUNCTIONS.

           INITIAL VELOCITY IN DRC (Angstroms/Femtosecond)
        -0.04015         0.01220         0.01157
         0.44012         0.21765        -0.00036
        -0.01466        -0.03938        -0.01146
        -0.01630         0.01072         0.01844
         0.10401        -0.02438         0.01348
         0.00889        -0.00118        -0.00241
         0.03568        -0.02851         0.02837
        -0.00452        -0.00214        -0.00007
        -0.00110         0.04573        -0.02844
         0.04380         0.09730        -0.01360
         0.00450         0.00771         0.00252
        -0.00142        -0.01944        -0.01844
         0.01954         0.00971        -0.00006

 GEOMETRY PRIORITY, STEP = 0.1000 ANGSTROMS



     POINT   POTENTIAL  +  ENERGY LOST   =   TOTAL      ERROR    REF%   MOVEMENT
       1      61.49861      0.00000         61.49861   0.00000     1   %  0.0000
      25      60.77427      0.56966         61.34393  -0.05542     2   %  0.1000
      66      58.97823      2.35732         61.33556  -0.06380     3   %  0.2000
      96      56.47826      4.85135         61.32961  -0.06975     4   %  0.2999
     113      53.68118      7.64555         61.32673  -0.07263     5   %  0.3988
     124      50.82089     10.50880         61.32970  -0.06966     6   %  0.4990
     144      48.16514     13.16868         61.33382  -0.06554     7   %  0.5979
     166      45.76599     15.57223         61.33823  -0.06113     8   %  0.6964
     188      43.63167     17.71086         61.34253  -0.05683     9   %  0.7944
     208      41.73689     19.60972         61.34661  -0.05275    10   %  0.8919
     228      40.04855     21.30188         61.35043  -0.04892    11   %  0.9889
     246      38.53692     22.81711         61.35403  -0.04532    12   %  1.0854
     263      37.17754     24.17990         61.35744  -0.04192    13   %  1.1817
     280      35.94975     25.41092         61.36067  -0.03869    14   %  1.2778
     295      34.83544     26.52828         61.36372  -0.03563    15   %  1.3737
     310      33.81811     27.54851         61.36662  -0.03273    16   %  1.4696
     324      32.88282     28.48655         61.36937  -0.02999    17   %  1.5652
     337      32.01617     29.35582         61.37199  -0.02737    18   %  1.6605
     350      31.20644     30.16805         61.37449  -0.02487    19   %  1.7554
     362      30.44398     30.93292         61.37690  -0.02245    20   %  1.8497
     374      29.72106     31.65819         61.37924  -0.02011    21   %  1.9432
     386      29.03233     32.34920         61.38153  -0.01782    22   %  2.0357
     397      28.37496     33.00881         61.38377  -0.01558    23   %  2.1269
     409      27.74715     33.63882         61.38597  -0.01338    24   %  2.2164
     420      27.14749     34.24065         61.38814  -0.01122    25   %  2.3044
     430      26.57454     34.81572         61.39027  -0.00909    26   %  2.3909
     441      26.02715     35.36522         61.39237  -0.00699    27   %  2.4761
     452      25.50483     35.88961         61.39444  -0.00492    28   %  2.5602
     462      25.00735     36.38914         61.39648  -0.00287    29   %  2.6435
     472      24.53449     36.86400         61.39849  -0.00086    30   %  2.7260
     482      24.08610     37.31437         61.40047   0.00112    31   %  2.8080
     492      23.66200     37.74042         61.40242   0.00307    32   %  2.8896
     502      23.26197     38.14236         61.40433   0.00498    33   %  2.9710
     511      22.88577     38.52043         61.40621   0.00685    34   %  3.0522
     521      22.53294     38.87510         61.40804   0.00869    35   %  3.1333
     530      22.20320     39.20664         61.40984   0.01048    36   %  3.2144
     539      21.89605     39.51554         61.41160   0.01224    37   %  3.2956
     548      21.61101     39.80231         61.41332   0.01396    38   %  3.3769
     556      21.34763     40.06736         61.41499   0.01564    39   %  3.4583
     565      21.10528     40.31134         61.41663   0.01727    40   %  3.5400
     573      20.88358     40.53463         61.41821   0.01886    41   %  3.6218
     581      20.68196     40.73779         61.41975   0.02040    42   %  3.7036
     589      20.49984     40.92140         61.42124   0.02189    43   %  3.7854
     596      20.33658     41.08611         61.42268   0.02333    44   %  3.8668
     603      20.19130     41.23276         61.42406   0.02471    45   %  3.9477
     610      20.06297     41.36242         61.42539   0.02604    46   %  4.0276
     617      19.95037     41.47630         61.42667   0.02731    47   %  4.1061
     623      19.85212     41.57578         61.42791   0.02855    48   %  4.1827
     630      19.76652     41.66260         61.42912   0.02977    49   %  4.2567
     636      19.69187     41.73849         61.43036   0.03100    50   %  4.3275
     645      19.62603     41.80638         61.43241   0.03306    51   %  4.3946
     655      19.56738     41.86712         61.43449   0.03514    52   %  4.4573
     665      19.51397     41.92274         61.43671   0.03736    53   %  4.5155
     676      19.46436     41.97472         61.43908   0.03972    54   %  4.5696
     689      19.41726     42.02478         61.44204   0.04268    55   %  4.6201
     701      19.37361     42.07112         61.44473   0.04538    56   %  4.6658
     716      19.33107     42.11643         61.44751   0.04815    57   %  4.7098
     730      19.29118     42.15991         61.45109   0.05173    58   %  4.7507
     744      19.25197     42.20182         61.45379   0.05443    59   %  4.7909
     758      19.21473     42.24192         61.45665   0.05730    60   %  4.8300
     774      19.17916     42.28059         61.45975   0.06039    61   %  4.8691
     790      19.14505     42.31863         61.46368   0.06432    62   %  4.9084
     804      19.11266     42.35371         61.46637   0.06702    63   %  4.9483
     820      19.08217     42.38917         61.47134   0.07198    64   %  4.9891
     838      19.05237     42.42202         61.47440   0.07504    65   %  5.0334
     853      19.02479     42.45353         61.47831   0.07896    66   %  5.0794
     874      18.99840     42.48619         61.48459   0.08523    67   %  5.1300
     890      18.97390     42.51436         61.48826   0.08890    68   %  5.1841
     907      18.95274     42.54299         61.49573   0.09637    69   %  5.2405
     930      18.92976     42.57545         61.50521   0.10586    70   %  5.3064
     954      18.90998     42.60411         61.51409   0.11473    71   %  5.3747
     980      18.89172     42.63568         61.52741   0.12805    72   %  5.4453
    1006      18.87500     42.67113         61.54613   0.14678    73   %  5.5182
    1036      18.86023     42.72059         61.58081   0.18146    74   %  5.5902
    1067      18.84712     42.78117         61.62829   0.22894    75   %  5.6609
    1109      18.83430     42.86187         61.69616   0.29681    76   %  5.7367
    1144      18.82304     42.92159         61.74463   0.34527    77   %  5.8133
    1189      18.81178     43.00738         61.81916   0.41980    78   %  5.8912
    1236      18.80215     43.10103         61.90318   0.50383    79   %  5.9676
    1295      18.79332     43.18440         61.97772   0.57837    80   %  6.0446
    1356      18.78534     43.29635         62.08170   0.68234    81   %  6.1212
    1417      18.78195     43.40024         62.18219   0.78284    82   %  6.1975
    1488      18.77372     43.50346         62.27719   0.87783    83   %  6.2711
    1566      18.76567     43.64887         62.41454   1.01518    84   %  6.3460
    1641      18.76098     43.76639         62.52737   1.12802    85   %  6.4161
    1742      18.75486     43.91048         62.66534   1.26599    86   %  6.4947
    1843      18.75055     44.07728         62.82783   1.42847    87   %  6.5696
    1945      18.74629     44.27070         63.01700   1.61764    88   %  6.6444
    2061      18.74233     44.43743         63.17976   1.78040    89   %  6.7204
    2190      18.73868     44.62124         63.35993   1.96057    90   %  6.7964
    2328      18.73533     44.80925         63.54458   2.14523    91   %  6.8727
    2480      18.73225     45.03235         63.76460   2.36524    92   %  6.9492
    2639      18.72941     45.26981         63.99922   2.59986    93   %  7.0256
    2804      18.72715     45.52264         64.24979   2.85043    94   %  7.1002


 IRC CALCULATION COMPLETE 
           INITIAL VELOCITY IN DRC (Angstroms/Femtosecond)
         0.04015        -0.01220        -0.01157
        -0.44012        -0.21765         0.00036
         0.01466         0.03938         0.01146
         0.01630        -0.01072        -0.01844
        -0.10401         0.02438        -0.01348
        -0.00889         0.00118         0.00241
        -0.03568         0.02851        -0.02837
         0.00452         0.00214         0.00007
         0.00110        -0.04573         0.02844
        -0.04380        -0.09730         0.01360
        -0.00450        -0.00771        -0.00252
         0.00142         0.01944         0.01844
        -0.01954        -0.00971         0.00006

 GEOMETRY PRIORITY, STEP = 0.1000 ANGSTROMS



     POINT   POTENTIAL  +  ENERGY LOST   =   TOTAL      ERROR    REF%   MOVEMENT
       1      61.49861      0.00000         61.49861   0.00000     1   %  0.0000
      20      61.01616      0.39598         61.41214  -0.05047     2   %  0.1000
      62      59.48020      1.92345         61.40365  -0.05896     3   %  0.2000
      94      57.17378      4.22342         61.39719  -0.06542     4   %  0.2998
     114      54.59806      6.79546         61.39353  -0.06908     5   %  0.3949
     123      51.70418      9.69112         61.39530  -0.06731     6   %  0.4981
     142      49.02226     12.37700         61.39926  -0.06335     7   %  0.5981
     164      46.59673     14.80695         61.40368  -0.05893     8   %  0.6968
     186      44.42448     16.98360         61.40808  -0.05453     9   %  0.7950
     207      42.48880     18.92348         61.41228  -0.05033    10   %  0.8926
     227      40.76020     20.65603         61.41623  -0.04638    11   %  0.9897
     246      39.21009     22.20986         61.41994  -0.04267    12   %  1.0864
     264      37.81432     23.60913         61.42346  -0.03915    13   %  1.1827
     281      36.55249     24.87428         61.42678  -0.03583    14   %  1.2788
     297      35.40666     26.02326         61.42991  -0.03269    15   %  1.3748
     312      34.36054     27.07234         61.43288  -0.02973    16   %  1.4706
     326      33.39927     28.03640         61.43567  -0.02694    17   %  1.5662
     339      32.50941     28.92888         61.43830  -0.02431    18   %  1.6616
     352      31.67905     29.76172         61.44077  -0.02184    19   %  1.7565
     364      30.89821     30.54490         61.44311  -0.01950    20   %  1.8509
     375      30.15884     31.28649         61.44533  -0.01728    21   %  1.9445
     386      29.45493     31.99252         61.44745  -0.01516    22   %  2.0371
     397      28.78294     32.66656         61.44950  -0.01311    23   %  2.1285
     407      28.14105     33.31044         61.45149  -0.01112    24   %  2.2184
     417      27.52760     33.92584         61.45345  -0.00916    25   %  2.3067
     427      26.94106     34.51432         61.45538  -0.00723    26   %  2.3935
     436      26.38037     35.07692         61.45729  -0.00531    27   %  2.4789
     446      25.84463     35.61458         61.45920  -0.00341    28   %  2.5633
     456      25.33364     36.12747         61.46111  -0.00150    29   %  2.6467
     465      24.84732     36.61568         61.46300   0.00039    30   %  2.7293
     475      24.38534     37.07954         61.46488   0.00227    31   %  2.8114
     484      23.94777     37.51898         61.46674   0.00413    32   %  2.8930
     494      23.53419     37.93440         61.46859   0.00598    33   %  2.9744
     503      23.14453     38.32588         61.47041   0.00780    34   %  3.0555
     512      22.77840     38.69380         61.47220   0.00959    35   %  3.1365
     521      22.43541     39.03855         61.47396   0.01135    36   %  3.2175
     530      22.11514     39.36056         61.47570   0.01309    37   %  3.2986
     539      21.81711     39.66028         61.47740   0.01479    38   %  3.3797
     547      21.54090     39.93816         61.47907   0.01646    39   %  3.4610
     556      21.28588     40.19482         61.48070   0.01809    40   %  3.5425
     564      21.05166     40.43064         61.48230   0.01969    41   %  3.6242
     572      20.83771     40.64615         61.48386   0.02125    42   %  3.7061
     580      20.64350     40.84187         61.48538   0.02277    43   %  3.7880
     587      20.46852     41.01833         61.48685   0.02424    44   %  3.8697
     595      20.31194     41.17633         61.48827   0.02566    45   %  3.9510
     602      20.17300     41.31663         61.48963   0.02703    46   %  4.0317
     609      20.05057     41.44037         61.49094   0.02833    47   %  4.1112
     615      19.94337     41.54881         61.49218   0.02957    48   %  4.1892
     621      19.84990     41.64346         61.49336   0.03075    49   %  4.2650
     627      19.76847     41.72601         61.49448   0.03187    50   %  4.3380
     633      19.69764     41.79805         61.49569   0.03308    51   %  4.4071
     642      19.63433     41.86348         61.49781   0.03520    52   %  4.4728
     652      19.57727     41.92353         61.50079   0.03818    53   %  4.5341
     660      19.52567     41.97855         61.50422   0.04161    54   %  4.5900
     669      19.47731     42.02828         61.50559   0.04298    55   %  4.6420
     681      19.43138     42.07953         61.51091   0.04830    56   %  4.6911
     692      19.38619     42.12650         61.51269   0.05008    57   %  4.7358
     704      19.34592     42.17019         61.51612   0.05351    58   %  4.7762
     716      19.30321     42.21698         61.52019   0.05758    59   %  4.8184
     728      19.26790     42.25562         61.52352   0.06091    60   %  4.8540
     741      19.22779     42.30078         61.52856   0.06596    61   %  4.8952
     753      19.19201     42.34144         61.53346   0.07085    62   %  4.9338
     767      19.15857     42.38232         61.54089   0.07828    63   %  4.9732
     780      19.12815     42.41784         61.54599   0.08338    64   %  5.0079
     801      19.09269     42.47252         61.56520   0.10259    65   %  5.0546
     817      19.06257     42.51419         61.57675   0.11414    66   %  5.0986
     832      19.03397     42.55486         61.58883   0.12622    67   %  5.1436
     856      19.00927     42.61497         61.62424   0.16163    68   %  5.1913
     874      18.98354     42.65611         61.63966   0.17705    69   %  5.2462
     892      18.96260     42.70126         61.66386   0.20125    70   %  5.3006
     921      18.93860     42.76276         61.70136   0.23875    71   %  5.3622
     948      18.91892     42.82522         61.74414   0.28153    72   %  5.4281
     971      18.89982     42.90006         61.79989   0.33728    73   %  5.4976
    1001      18.88309     42.96607         61.84916   0.38655    74   %  5.5668
    1033      18.86758     43.03932         61.90691   0.44430    75   %  5.6379
    1062      18.85448     43.10402         61.95850   0.49589    76   %  5.7044
    1100      18.84134     43.19134         62.03267   0.57007    77   %  5.7803
    1139      18.83028     43.23470         62.06498   0.60237    78   %  5.8544
    1191      18.81755     43.34225         62.15980   0.69719    79   %  5.9315
    1240      18.80728     43.41183         62.21911   0.75651    80   %  6.0091
    1297      18.79808     43.50956         62.30765   0.84504    81   %  6.0847
    1350      18.79226     43.61650         62.40876   0.94615    82   %  6.1609
    1417      18.78206     43.74629         62.52835   1.06574    83   %  6.2365
    1488      18.77509     43.87207         62.64716   1.18455    84   %  6.3123
    1560      18.77169     43.98971         62.76140   1.29879    85   %  6.3874
    1648      18.76300     44.13893         62.90193   1.43932    86   %  6.4620
    1738      18.75774     44.27913         63.03687   1.57426    87   %  6.5362


 IRC CALCULATION COMPLETE 

 **********************
 *                    *
 * JOB ENDED NORMALLY *
 *                    *
 **********************



 TOTAL JOB TIME:            12.62 SECONDS

 == MOPAC DONE ==
