 *******************************************************************************
 ** Site#: 37037        For non-commercial use only           Version 21.151W **
 *******************************************************************************
 ** Cite this program as: MOPAC2016, Version: 21.151W, James J. P. Stewart,   **
 ** Stewart Computational Chemistry, web: HTTP://OpenMOPAC.net. Days left: 363**
 *******************************************************************************
 **                                                                           **
 **                                MOPAC2016                                  **
 **                                                                           **
 *******************************************************************************

                              PM7 CALCULATION RESULTS

 *******************************************************************************
 *  CALCULATION DONE:                                Wed Jun  2 13:21:45 2021  *
 *  GEO-OK     - OVERRIDE INTERATOMIC DISTANCE AND OTHER SAFETY CHECKS
 *  GEO_DAT    - DATA SET GEOMETRY IS IN FILE "Locate_TS bias=20.0 second.mop"
 *  GEO_REF    - REFERENCE GEOMETRY IS IN FILE "Locate_TS bias=20.0 first.mop"
 *               (NO BIAS TOWARDS THE REFERENCE GEOMETRY WILL BE APPLIED)
 *  SADDLE     - TRANSITION STATE TO BE OPTIMIZED
 *  T=         - A TIME OF 172800.0 SECONDS REQUESTED
 *  DUMP=N     - RESTART FILE WRITTEN EVERY 7200.0 SECONDS REQUESTED
 *  HTML       - WRITE HTML SCRIPT TO READ PDB FILE USING JSMOL
 *******************************************************************************
geo-ok geo_ref="Locate_TS bias=20.0 first.mop" geo_dat="Locate_TS bias=20.0 second.mop" saddle  HTML
 Transition state for the reaction 1,2,3,4-nu-5,6-Dimethylenebenzene <=> 1,2-Dihydrocyclobutabenzene

   ATOM                 CHEMICAL                   X               Y               Z
  NUMBER                 SYMBOL               (ANGSTROMS)     (ANGSTROMS)     (ANGSTROMS)
 
     1       C(HETATM    1  C   HET A   1)   -0.15789466  *  -1.54838453  *  -0.12459486  *
     2       C(HETATM    2  C   HET A   1)    1.18953073  *  -1.57921982  *  -0.09883556  *
     3       C(HETATM    3  C   HET A   1)    1.94848846  *  -0.34598455  *  -0.04897731  *
     4       C(HETATM    4  C   HET A   1)    1.31509444  *   0.83808370  *   0.06933569  *
     5       C(HETATM    5  C   HET A   1)   -0.14525694  *   0.92115528  *   0.16515038  *
     6       C(HETATM    6  C   HET A   1)   -0.89705503  *  -0.28256712  *  -0.11756244  *
     7       C(HETATM    7  C   HET A   1)   -2.20074525  *  -0.17141413  *  -0.40134780  *
     8       C(HETATM    8  C   HET A   1)   -0.81234665  *   2.01915405  *   0.54176257  *
     9       H(HETATM    9  H   HET A   1)   -0.74447915  *  -2.46193751  *  -0.20107977  *
    10       H(HETATM   10  H   HET A   1)    1.75328129  *  -2.51006800  *  -0.13313988  *
    11       H(HETATM   11  H   HET A   1)    3.03329481  *  -0.42674322  *  -0.09159648  *
    12       H(HETATM   12  H   HET A   1)    1.86883290  *   1.77197241  *   0.14750140  *
    13       H(HETATM   13  H   HET A   1)   -2.76208028  *   0.71283462  *  -0.61214639  *
    14       H(HETATM   14  H   HET A   1)   -2.85605882  *  -0.98891346  *  -0.40472822  *
    15       H(HETATM   15  H   HET A   1)   -1.83830517  *   2.10826380  *   0.82679467  *
    16       H(HETATM   16  H   HET A   1)   -0.37983057  *   2.97357264  *   0.55554495  *
 

                        After docking

                     Atoms that move a lot

                     Atom Label             GEO_REF Coordinates       Movement    Integral

            (HETATM   16  H   HET A   1)  -1.118   2.614  -0.284        1.16         1.16
            (HETATM   14  H   HET A   1)  -2.812  -0.204   0.467        1.16         2.31
            (HETATM    8  C   HET A   1)  -1.226   1.690   0.293        0.58         2.90
            (HETATM    7  C   HET A   1)  -2.077   0.336  -0.138        0.58         3.48
            (HETATM   15  H   HET A   1)  -1.541   2.100   1.236        0.51         3.99
            (HETATM   13  H   HET A   1)  -2.647   0.470  -1.040        0.51         4.50
            (HETATM   12  H   HET A   1)   1.918   1.731   0.432        0.32         4.82
            (HETATM    9  H   HET A   1)  -0.706  -2.475  -0.489        0.32         5.14
            (HETATM    4  C   HET A   1)   1.346   0.829   0.263        0.21         5.36
            (HETATM    1  C   HET A   1)  -0.148  -1.563  -0.319        0.21         5.57
            (HETATM   10  H   HET A   1)   1.783  -2.516  -0.321        0.21         5.78
            (HETATM   11  H   HET A   1)   3.065  -0.458   0.094        0.21         5.98
            (HETATM    6  C   HET A   1)  -0.751  -0.355  -0.139        0.17         6.15
            (HETATM    5  C   HET A   1)  -0.013   0.824   0.175        0.17         6.31
            (HETATM    2  C   HET A   1)   1.259  -1.570  -0.212        0.14         6.45
            (HETATM    3  C   HET A   1)   1.980  -0.416   0.060        0.14         6.59

     Residues that move a lot and their (Movement in Angstroms, per atom)


   Difference between GEO_DAT and GEO_REF: 6.595 = total,  0.4122 = Average,  0.5216 = RMS, in Angstroms

 General Reference for PM7:
 "Optimization of Parameters for Semiempirical Methods VI: More Modifications to the 
 NDDO Approximations and Re-optimization of Parameters", J. J. P. Stewart, J. Mol. Mod., 1:32, 19 (2013)
 https://link.springer.com/article/10.1007/s00894-012-1667-x

           Empirical Formula: C8 H8  =    16 atoms



      MOLECULAR POINT GROUP   :   C2  


      RHF CALCULATION, NO. OF DOUBLY OCCUPIED LEVELS = 20



  CARTESIAN GEOMETRY OF FIRST SYSTEM


   1    C         -0.14843      -1.56321      -0.31909
   2    C          1.25898      -1.57015      -0.21245
   3    C          1.97956      -0.41615       0.06026
   4    C          1.34639       0.82869       0.26268
   5    C         -0.01333       0.82406       0.17461
   6    C         -0.75108      -0.35501      -0.13867
   7    C         -2.07687       0.33641      -0.13845
   8    C         -1.22604       1.69017       0.29331
   9    H         -0.70558      -2.47479      -0.48894
  10    H          1.78253      -2.51635      -0.32145
  11    H          3.06511      -0.45765       0.09359
  12    H          1.91799       1.73134       0.43186
  13    H         -2.64686       0.47047      -1.03959
  14    H         -2.81167      -0.20386       0.46698
  15    H         -1.54078       2.09972       1.23569
  16    H         -1.11773       2.61442      -0.28351


  CARTESIAN GEOMETRY OF SECOND SYSTEM


   1    C         -0.15812      -1.54915      -0.10702
   2    C          1.18946      -1.57918      -0.08966
   3    C          1.94815      -0.34519      -0.05767
   4    C          1.31498       0.83980       0.05231
   5    C         -0.14476       0.92330       0.15670
   6    C         -0.89781      -0.28362      -0.10849
   7    C         -2.20336      -0.17597      -0.38497
   8    C         -0.80990       2.02493       0.52607
   9    H         -0.74477      -2.46369      -0.17010
  10    H          1.75340      -2.51012      -0.11784
  11    H          3.03269      -0.42596      -0.10646
  12    H          1.86878       1.77468       0.11707
  13    H         -2.76646       0.70579      -0.60140
  14    H         -2.85830      -0.99372      -0.37553
  15    H         -1.83404       2.11662       0.81679
  16    H         -0.37775       2.97961       0.52703


   "DISTANCE":     2.086297


  REACTION COORDINATE VECTOR


   1    C          0.00969      -0.01406      -0.21207
   2    C          0.06953       0.00904      -0.12279
   3    C          0.03141      -0.07096       0.11793
   4    C          0.03141      -0.01111       0.21037
   5    C          0.13142      -0.09924       0.01791
   6    C          0.14673      -0.07139      -0.03019
   7    C          0.12649       0.51238       0.24653
   8    C         -0.41614      -0.33476      -0.23276
   9    H          0.03919      -0.01110      -0.31884
  10    H          0.02913      -0.00623      -0.20361
  11    H          0.03242      -0.03169       0.20006
  12    H          0.04921      -0.04334       0.31479
  13    H          0.11960      -0.23532      -0.43819
  14    H          0.04663       0.78987       0.84251
  15    H          0.29326      -0.01690       0.41890
  16    H         -0.73998      -0.36518      -0.81054
 *+*+*+*+*+*+*+*+*+*+*+*+*+*+*+*+*+*+*+*+*+*+*+*+*+*+*+*+*+*+*+*+*+*+*+*+*+*+*+*+
            BAR SHORTENED BY       0.000 PERCENT
 GRADIENT CRITERION IN FLEPO =     1.000
           THERE HAVE BEEN 3 ATTEMPTS TO REDUCE THE GRADIENT.
           DURING THESE ATTEMPTS THE ENERGY DROPPED BY LESS THAN 0.3 KCAL/MOLE
           FURTHER CALCULATION IS NOT JUSTIFIED AT THIS TIME.
           TO CONTINUE, START AGAIN WITH THE WORD "PRECISE"


          FOR POINT    1 SECOND STRUCTURE
 DISTANCE A - B      2.086297
 HEAT               52.767450
 GRADIENT NORM      27.941301
 DIRECTION COSINE   -0.000000
 geo-ok HTML
 Transition state for the reaction 1,2,3,4-nu-5,6-Dimethylenebenzene <=> 1,2-Dihydrocyclobutabenzene

  C(HETATM    1  C   HET A   1)   0.00000000 +0    0.0000000 +0    0.0000000 +0
  C(HETATM    2  C   HET A   1)   1.41383499 +1    0.0000000 +0    0.0000000 +0     1     0     0
  C(HETATM    3  C   HET A   1)   1.38907384 +1  121.6284236 +1    0.0000000 +0     2     1     0
  C(HETATM    4  C   HET A   1)   1.41105994 +1  121.7918662 +1    6.4662527 +1     3     2     1
  C(HETATM    5  C   HET A   1)   1.36590507 +1  115.8440780 +1   -1.4641195 +1     4     3     2
  C(HETATM    6  C   HET A   1)   1.36520678 +1  115.8493309 +1   -1.3788171 +1     1     2     3
  C(HETATM    7  C   HET A   1)   1.50174923 +1  144.3645917 +1  177.8218029 +1     6     1     2
  C(HETATM    8  C   HET A   1)   1.50224946 +1  144.4383640 +1  177.6560410 +1     5     4     3
  H(HETATM    9  H   HET A   1)   1.08302499 +1  121.1819929 +1  179.0300657 +1     1     2     3
  H(HETATM   10  H   HET A   1)   1.08723238 +1  118.6175104 +1 -179.3321354 +1     2     1     3
  H(HETATM   11  H   HET A   1)   1.08797488 +1  119.5053359 +1 -174.3201760 +1     3     2     1
  H(HETATM   12  H   HET A   1)   1.08336251 +1  121.2221299 +1  179.1822728 +1     4     3     2
  H(HETATM   13  H   HET A   1)   1.08376219 +1  118.6489872 +1  -79.4552086 +1     7     6     1
  H(HETATM   14  H   HET A   1)   1.09034379 +1  113.0539141 +1   44.6209466 +1     7     6     1
  H(HETATM   15  H   HET A   1)   1.08472216 +1  118.6121563 +1  -79.0927440 +1     8     5     4
  H(HETATM   16  H   HET A   1)   1.09176768 +1  113.0789550 +1   44.7832042 +1     8     5     4
 
 TIME=     0.09
  REACTANTS AND PRODUCTS SWAPPED AROUND
 *+*+*+*+*+*+*+*+*+*+*+*+*+*+*+*+*+*+*+*+*+*+*+*+*+*+*+*+*+*+*+*+*+*+*+*+*+*+*+*+
            BAR SHORTENED BY       1.000 PERCENT
 GRADIENT CRITERION IN FLEPO =    10.000


          FOR POINT    2 FIRST  STRUCTURE
 DISTANCE A - B      2.065434
 HEAT               60.169175
 GRADIENT NORM      22.293520
 DIRECTION COSINE    0.717876
 geo-ok HTML
 Transition state for the reaction 1,2,3,4-nu-5,6-Dimethylenebenzene <=> 1,2-Dihydrocyclobutabenzene

  C(HETATM    1  C   HET A   1)   0.00000000 +0    0.0000000 +0    0.0000000 +0
  C(HETATM    2  C   HET A   1)   1.34918044 +1    0.0000000 +0    0.0000000 +0     1     0     0
  C(HETATM    3  C   HET A   1)   1.45004360 +1  120.7804583 +1    0.0000000 +0     2     1     0
  C(HETATM    4  C   HET A   1)   1.34948439 +1  120.5329055 +1    3.1026522 +1     3     2     1
  C(HETATM    5  C   HET A   1)   1.45687277 +1  121.3011600 +1    1.3019336 +1     4     3     2
  C(HETATM    6  C   HET A   1)   1.45559123 +1  120.9426688 +1    2.0856617 +1     1     2     3
  C(HETATM    7  C   HET A   1)   1.34313341 +1  123.2447256 +1  167.2991501 +1     6     1     2
  C(HETATM    8  C   HET A   1)   1.34847571 +1  123.7812570 +1  167.2925285 +1     5     4     3
  H(HETATM    9  H   HET A   1)   1.08974814 +1  122.0540745 +1  177.9104892 +1     1     2     3
  H(HETATM   10  H   HET A   1)   1.08959239 +1  121.6354752 +1  179.6261532 +1     2     1     3
  H(HETATM   11  H   HET A   1)   1.09060162 +1  117.3877005 +1 -176.9288861 +1     3     2     1
  H(HETATM   12  H   HET A   1)   1.08724438 +1  121.5787944 +1  178.4293544 +1     4     3     2
  H(HETATM   13  H   HET A   1)   1.08536799 +1  123.5362273 +1 -163.1198524 +1     7     6     1
  H(HETATM   14  H   HET A   1)   1.06523660 +1  125.2615981 +1   17.1239405 +1     7     6     1
  H(HETATM   15  H   HET A   1)   1.08362195 +1  123.6757905 +1 -163.8493772 +1     8     5     4
  H(HETATM   16  H   HET A   1)   1.06767292 +1  125.3644969 +1   17.8001586 +1     8     5     4
 
 TIME=     0.06
  REACTANTS AND PRODUCTS SWAPPED AROUND
 *+*+*+*+*+*+*+*+*+*+*+*+*+*+*+*+*+*+*+*+*+*+*+*+*+*+*+*+*+*+*+*+*+*+*+*+*+*+*+*+
            BAR SHORTENED BY       1.000 PERCENT
 GRADIENT CRITERION IN FLEPO =    10.000


          FOR POINT    3 SECOND STRUCTURE
 DISTANCE A - B      2.044780
 HEAT               53.387397
 GRADIENT NORM      33.399509
 DIRECTION COSINE    0.705513
 geo-ok HTML
 Transition state for the reaction 1,2,3,4-nu-5,6-Dimethylenebenzene <=> 1,2-Dihydrocyclobutabenzene

  C(HETATM    1  C   HET A   1)   0.00000000 +0    0.0000000 +0    0.0000000 +0
  C(HETATM    2  C   HET A   1)   1.41316215 +1    0.0000000 +0    0.0000000 +0     1     0     0
  C(HETATM    3  C   HET A   1)   1.38965666 +1  121.6191254 +1    0.0000000 +0     2     1     0
  C(HETATM    4  C   HET A   1)   1.41042383 +1  121.7785954 +1    6.4387288 +1     3     2     1
  C(HETATM    5  C   HET A   1)   1.36675159 +1  115.9036042 +1   -1.4426010 +1     4     3     2
  C(HETATM    6  C   HET A   1)   1.36604907 +1  115.9057028 +1   -1.3508728 +1     1     2     3
  C(HETATM    7  C   HET A   1)   1.49878526 +1  144.1907460 +1  177.7269451 +1     6     1     2
  C(HETATM    8  C   HET A   1)   1.49935451 +1  144.2681360 +1  177.5599446 +1     5     4     3
  H(HETATM    9  H   HET A   1)   1.08307622 +1  121.1904246 +1  179.0180603 +1     1     2     3
  H(HETATM   10  H   HET A   1)   1.08724696 +1  118.6485156 +1 -179.3365783 +1     2     1     3
  H(HETATM   11  H   HET A   1)   1.08798997 +1  119.4841155 +1 -174.3454382 +1     3     2     1
  H(HETATM   12  H   HET A   1)   1.08338478 +1  121.2253884 +1  179.1735554 +1     4     3     2
  H(HETATM   13  H   HET A   1)   1.07909358 +1  119.0977141 +1  -79.9064222 +1     7     6     1
  H(HETATM   14  H   HET A   1)   1.08824605 +1  113.1021752 +1   44.3857466 +1     7     6     1
  H(HETATM   15  H   HET A   1)   1.07986359 +1  119.0693191 +1  -79.5379751 +1     8     5     4
  H(HETATM   16  H   HET A   1)   1.08968179 +1  113.1281583 +1   44.5541382 +1     8     5     4
 
 *+*+*+*+*+*+*+*+*+*+*+*+*+*+*+*+*+*+*+*+*+*+*+*+*+*+*+*+*+*+*+*+*+*+*+*+*+*+*+*+
            BAR SHORTENED BY       1.000 PERCENT
 GRADIENT CRITERION IN FLEPO =    10.000


          FOR POINT    4 SECOND STRUCTURE
 DISTANCE A - B      2.024332
 HEAT               54.022200
 GRADIENT NORM      34.372229
 DIRECTION COSINE    0.943402
 geo-ok HTML
 Transition state for the reaction 1,2,3,4-nu-5,6-Dimethylenebenzene <=> 1,2-Dihydrocyclobutabenzene

  C(HETATM    1  C   HET A   1)   0.00000000 +0    0.0000000 +0    0.0000000 +0
  C(HETATM    2  C   HET A   1)   1.40986363 +1    0.0000000 +0    0.0000000 +0     1     0     0
  C(HETATM    3  C   HET A   1)   1.38846984 +1  121.8180420 +1    0.0000000 +0     2     1     0
  C(HETATM    4  C   HET A   1)   1.41400975 +1  121.5276412 +1    6.6666572 +1     3     2     1
  C(HETATM    5  C   HET A   1)   1.36437934 +1  115.8591394 +1   -1.3942617 +1     4     3     2
  C(HETATM    6  C   HET A   1)   1.36408922 +1  115.9516719 +1   -1.7094186 +1     1     2     3
  C(HETATM    7  C   HET A   1)   1.49806784 +1  144.2065426 +1  177.6966372 +1     6     1     2
  C(HETATM    8  C   HET A   1)   1.49694996 +1  144.2086477 +1  177.6949016 +1     5     4     3
  H(HETATM    9  H   HET A   1)   1.08253839 +1  121.2319846 +1  178.9260728 +1     1     2     3
  H(HETATM   10  H   HET A   1)   1.08663177 +1  118.8262609 +1 -178.7602901 +1     2     1     3
  H(HETATM   11  H   HET A   1)   1.08800666 +1  119.8498116 +1 -174.1200924 +1     3     2     1
  H(HETATM   12  H   HET A   1)   1.08451700 +1  121.0255913 +1  179.2767838 +1     4     3     2
  H(HETATM   13  H   HET A   1)   1.08012408 +1  119.5850075 +1  -79.9377019 +1     7     6     1
  H(HETATM   14  H   HET A   1)   1.09059079 +1  112.9809722 +1   43.8349006 +1     7     6     1
  H(HETATM   15  H   HET A   1)   1.08065709 +1  119.3521870 +1  -79.9829144 +1     8     5     4
  H(HETATM   16  H   HET A   1)   1.09409873 +1  113.0155597 +1   43.3724832 +1     8     5     4
 
 *+*+*+*+*+*+*+*+*+*+*+*+*+*+*+*+*+*+*+*+*+*+*+*+*+*+*+*+*+*+*+*+*+*+*+*+*+*+*+*+
            BAR SHORTENED BY       1.000 PERCENT
 GRADIENT CRITERION IN FLEPO =    10.000


          FOR POINT    5 SECOND STRUCTURE
 DISTANCE A - B      2.004089
 HEAT               54.679530
 GRADIENT NORM      35.141490
 DIRECTION COSINE    0.952417
 geo-ok HTML
 Transition state for the reaction 1,2,3,4-nu-5,6-Dimethylenebenzene <=> 1,2-Dihydrocyclobutabenzene

  C(HETATM    1  C   HET A   1)   0.00000000 +0    0.0000000 +0    0.0000000 +0
  C(HETATM    2  C   HET A   1)   1.41265654 +1    0.0000000 +0    0.0000000 +0     1     0     0
  C(HETATM    3  C   HET A   1)   1.38801393 +1  121.8023634 +1    0.0000000 +0     2     1     0
  C(HETATM    4  C   HET A   1)   1.41079809 +1  121.7760588 +1    6.1363514 +1     3     2     1
  C(HETATM    5  C   HET A   1)   1.36532774 +1  115.6939063 +1   -0.9221384 +1     4     3     2
  C(HETATM    6  C   HET A   1)   1.36581397 +1  115.6743180 +1   -1.1392155 +1     1     2     3
  C(HETATM    7  C   HET A   1)   1.49941631 +1  144.0995728 +1  177.7669863 +1     6     1     2
  C(HETATM    8  C   HET A   1)   1.49901409 +1  143.9435691 +1  177.8500678 +1     5     4     3
  H(HETATM    9  H   HET A   1)   1.08226201 +1  121.3762359 +1  179.2028847 +1     1     2     3
  H(HETATM   10  H   HET A   1)   1.08910225 +1  118.6515561 +1 -179.3722253 +1     2     1     3
  H(HETATM   11  H   HET A   1)   1.08775572 +1  119.6780976 +1 -174.3924749 +1     3     2     1
  H(HETATM   12  H   HET A   1)   1.08013286 +1  121.2127572 +1  179.4349017 +1     4     3     2
  H(HETATM   13  H   HET A   1)   1.07937507 +1  119.7416749 +1  -80.2308663 +1     7     6     1
  H(HETATM   14  H   HET A   1)   1.09497545 +1  112.6490116 +1   42.5065447 +1     7     6     1
  H(HETATM   15  H   HET A   1)   1.07941072 +1  119.4468208 +1  -81.1159912 +1     8     5     4
  H(HETATM   16  H   HET A   1)   1.09471842 +1  113.0353991 +1   42.2807173 +1     8     5     4
 
 TIME=     0.05
  REACTANTS AND PRODUCTS SWAPPED AROUND
 *+*+*+*+*+*+*+*+*+*+*+*+*+*+*+*+*+*+*+*+*+*+*+*+*+*+*+*+*+*+*+*+*+*+*+*+*+*+*+*+
            BAR SHORTENED BY       0.000 PERCENT
 GRADIENT CRITERION IN FLEPO =    10.000


          FOR POINT    6 FIRST  STRUCTURE
 DISTANCE A - B      2.004089
 HEAT               60.061537
 GRADIENT NORM      19.202733
 DIRECTION COSINE    0.898474
 geo-ok HTML
 Transition state for the reaction 1,2,3,4-nu-5,6-Dimethylenebenzene <=> 1,2-Dihydrocyclobutabenzene

  C(HETATM    1  C   HET A   1)   0.00000000 +0    0.0000000 +0    0.0000000 +0
  C(HETATM    2  C   HET A   1)   1.34934133 +1    0.0000000 +0    0.0000000 +0     1     0     0
  C(HETATM    3  C   HET A   1)   1.44947957 +1  120.7587983 +1    0.0000000 +0     2     1     0
  C(HETATM    4  C   HET A   1)   1.35026857 +1  120.8175930 +1    3.3085649 +1     3     2     1
  C(HETATM    5  C   HET A   1)   1.45725910 +1  121.0436517 +1    1.3839766 +1     4     3     2
  C(HETATM    6  C   HET A   1)   1.45543667 +1  120.9332060 +1    1.5131389 +1     1     2     3
  C(HETATM    7  C   HET A   1)   1.34465481 +1  123.3683707 +1  167.2446129 +1     6     1     2
  C(HETATM    8  C   HET A   1)   1.34482454 +1  124.0822767 +1  167.4703761 +1     5     4     3
  H(HETATM    9  H   HET A   1)   1.08431062 +1  122.0160559 +1  177.9758400 +1     1     2     3
  H(HETATM   10  H   HET A   1)   1.08843016 +1  121.8934402 +1 -179.6471652 +1     2     1     3
  H(HETATM   11  H   HET A   1)   1.08922541 +1  117.5663125 +1 -176.9620324 +1     3     2     1
  H(HETATM   12  H   HET A   1)   1.08845275 +1  121.8035937 +1  177.8298727 +1     4     3     2
  H(HETATM   13  H   HET A   1)   1.07868884 +1  123.6575054 +1 -162.9925219 +1     7     6     1
  H(HETATM   14  H   HET A   1)   1.06800988 +1  124.9015607 +1   17.5150178 +1     7     6     1
  H(HETATM   15  H   HET A   1)   1.08199939 +1  123.8982623 +1 -163.2706414 +1     8     5     4
  H(HETATM   16  H   HET A   1)   1.06865020 +1  125.2049707 +1   16.4530439 +1     8     5     4
 
 TIME=     0.02
  REACTANTS AND PRODUCTS SWAPPED AROUND
 *+*+*+*+*+*+*+*+*+*+*+*+*+*+*+*+*+*+*+*+*+*+*+*+*+*+*+*+*+*+*+*+*+*+*+*+*+*+*+*+
            BAR SHORTENED BY       1.000 PERCENT
 GRADIENT CRITERION IN FLEPO =    10.000


          FOR POINT    7 SECOND STRUCTURE
 DISTANCE A - B      1.984048
 HEAT               55.272990
 GRADIENT NORM      39.872191
 DIRECTION COSINE    0.901864
 geo-ok HTML
 Transition state for the reaction 1,2,3,4-nu-5,6-Dimethylenebenzene <=> 1,2-Dihydrocyclobutabenzene

  C(HETATM    1  C   HET A   1)   0.00000000 +0    0.0000000 +0    0.0000000 +0
  C(HETATM    2  C   HET A   1)   1.41200013 +1    0.0000000 +0    0.0000000 +0     1     0     0
  C(HETATM    3  C   HET A   1)   1.38860069 +1  121.7911942 +1    0.0000000 +0     2     1     0
  C(HETATM    4  C   HET A   1)   1.41017475 +1  121.7657647 +1    6.1140018 +1     3     2     1
  C(HETATM    5  C   HET A   1)   1.36618371 +1  115.7523212 +1   -0.9050406 +1     4     3     2
  C(HETATM    6  C   HET A   1)   1.36665281 +1  115.7317256 +1   -1.1191930 +1     1     2     3
  C(HETATM    7  C   HET A   1)   1.49652711 +1  143.9286333 +1  177.6677951 +1     6     1     2
  C(HETATM    8  C   HET A   1)   1.49618615 +1  143.7804175 +1  177.7520753 +1     5     4     3
  H(HETATM    9  H   HET A   1)   1.08226756 +1  121.3823617 +1  179.1894733 +1     1     2     3
  H(HETATM   10  H   HET A   1)   1.08908662 +1  118.6843280 +1 -179.3692245 +1     2     1     3
  H(HETATM   11  H   HET A   1)   1.08776062 +1  119.6570760 +1 -174.4174860 +1     3     2     1
  H(HETATM   12  H   HET A   1)   1.08020481 +1  121.2185469 +1  179.4176927 +1     4     3     2
  H(HETATM   13  H   HET A   1)   1.07484186 +1  120.1806451 +1  -80.6815099 +1     7     6     1
  H(HETATM   14  H   HET A   1)   1.09303913 +1  112.7007780 +1   42.2951614 +1     7     6     1
  H(HETATM   15  H   HET A   1)   1.07487574 +1  119.8842673 +1  -81.5638382 +1     8     5     4
  H(HETATM   16  H   HET A   1)   1.09272594 +1  113.0884401 +1   42.0624692 +1     8     5     4
 
 *+*+*+*+*+*+*+*+*+*+*+*+*+*+*+*+*+*+*+*+*+*+*+*+*+*+*+*+*+*+*+*+*+*+*+*+*+*+*+*+
            BAR SHORTENED BY       1.000 PERCENT
 GRADIENT CRITERION IN FLEPO =    10.000


          FOR POINT    8 SECOND STRUCTURE
 DISTANCE A - B      1.964207
 HEAT               56.025284
 GRADIENT NORM      41.420143
 DIRECTION COSINE    0.963586
 geo-ok HTML
 Transition state for the reaction 1,2,3,4-nu-5,6-Dimethylenebenzene <=> 1,2-Dihydrocyclobutabenzene

  C(HETATM    1  C   HET A   1)   0.00000000 +0    0.0000000 +0    0.0000000 +0
  C(HETATM    2  C   HET A   1)   1.41505519 +1    0.0000000 +0    0.0000000 +0     1     0     0
  C(HETATM    3  C   HET A   1)   1.38680312 +1  121.5065323 +1    0.0000000 +0     2     1     0
  C(HETATM    4  C   HET A   1)   1.41447591 +1  121.8151273 +1    6.4441646 +1     3     2     1
  C(HETATM    5  C   HET A   1)   1.36358784 +1  115.7100556 +1   -1.3468670 +1     4     3     2
  C(HETATM    6  C   HET A   1)   1.36434269 +1  115.9873798 +1   -1.3024785 +1     1     2     3
  C(HETATM    7  C   HET A   1)   1.49577552 +1  143.9752810 +1  177.5691259 +1     6     1     2
  C(HETATM    8  C   HET A   1)   1.49640779 +1  143.6486089 +1  177.6914894 +1     5     4     3
  H(HETATM    9  H   HET A   1)   1.08239474 +1  121.2687230 +1  179.0492257 +1     1     2     3
  H(HETATM   10  H   HET A   1)   1.08256571 +1  118.5949939 +1 -179.1650174 +1     2     1     3
  H(HETATM   11  H   HET A   1)   1.08748697 +1  119.7228122 +1 -174.6028103 +1     3     2     1
  H(HETATM   12  H   HET A   1)   1.08225147 +1  121.0045494 +1  179.4609076 +1     4     3     2
  H(HETATM   13  H   HET A   1)   1.07623562 +1  120.6221926 +1  -80.8920870 +1     7     6     1
  H(HETATM   14  H   HET A   1)   1.09420492 +1  112.6315224 +1   41.6860821 +1     7     6     1
  H(HETATM   15  H   HET A   1)   1.07578279 +1  120.2930132 +1  -81.3845548 +1     8     5     4
  H(HETATM   16  H   HET A   1)   1.09464549 +1  112.8492740 +1   41.5252592 +1     8     5     4
 
 *+*+*+*+*+*+*+*+*+*+*+*+*+*+*+*+*+*+*+*+*+*+*+*+*+*+*+*+*+*+*+*+*+*+*+*+*+*+*+*+
            BAR SHORTENED BY       1.000 PERCENT
 GRADIENT CRITERION IN FLEPO =    10.000
 

                    SINCE COS WAS JUST RESET,THE SEARCH IS BEING ENDED


          FOR POINT    9 SECOND STRUCTURE
 DISTANCE A - B      1.944565
 HEAT               56.996175
 GRADIENT NORM      45.825543
 DIRECTION COSINE    0.991872
 geo-ok HTML
 Transition state for the reaction 1,2,3,4-nu-5,6-Dimethylenebenzene <=> 1,2-Dihydrocyclobutabenzene

  C(HETATM    1  C   HET A   1)   0.00000000 +0    0.0000000 +0    0.0000000 +0
  C(HETATM    2  C   HET A   1)   1.41437598 +1    0.0000000 +0    0.0000000 +0     1     0     0
  C(HETATM    3  C   HET A   1)   1.38740545 +1  121.4983951 +1    0.0000000 +0     2     1     0
  C(HETATM    4  C   HET A   1)   1.41381528 +1  121.8043907 +1    6.4185854 +1     3     2     1
  C(HETATM    5  C   HET A   1)   1.36445925 +1  115.7685216 +1   -1.3255109 +1     4     3     2
  C(HETATM    6  C   HET A   1)   1.36519977 +1  116.0415955 +1   -1.2804886 +1     1     2     3
  C(HETATM    7  C   HET A   1)   1.49295311 +1  143.8044633 +1  177.4715544 +1     6     1     2
  C(HETATM    8  C   HET A   1)   1.49363096 +1  143.4876040 +1  177.5962798 +1     5     4     3
  H(HETATM    9  H   HET A   1)   1.08239999 +1  121.2759058 +1  179.0374020 +1     1     2     3
  H(HETATM   10  H   HET A   1)   1.08261378 +1  118.6285159 +1 -179.1640869 +1     2     1     3
  H(HETATM   11  H   HET A   1)   1.08749288 +1  119.7012605 +1 -174.6257367 +1     3     2     1
  H(HETATM   12  H   HET A   1)   1.08230342 +1  121.0124666 +1  179.4436258 +1     4     3     2
  H(HETATM   13  H   HET A   1)   1.07186805 +1  121.0508800 +1  -81.3524708 +1     7     6     1
  H(HETATM   14  H   HET A   1)   1.09236897 +1  112.6860866 +1   41.4806664 +1     7     6     1
  H(HETATM   15  H   HET A   1)   1.07139959 +1  120.7221727 +1  -81.8446472 +1     8     5     4
  H(HETATM   16  H   HET A   1)   1.09275917 +1  112.9063220 +1   41.3109632 +1     8     5     4
 
 TIME=     0.06
  REACTANTS AND PRODUCTS SWAPPED AROUND
 *+*+*+*+*+*+*+*+*+*+*+*+*+*+*+*+*+*+*+*+*+*+*+*+*+*+*+*+*+*+*+*+*+*+*+*+*+*+*+*+
            BAR SHORTENED BY       0.000 PERCENT
 GRADIENT CRITERION IN FLEPO =    10.000


          FOR POINT   10 FIRST  STRUCTURE
 DISTANCE A - B      1.944565
 HEAT               60.061537
 GRADIENT NORM      19.183027
 DIRECTION COSINE    0.890300
 geo-ok HTML
 Transition state for the reaction 1,2,3,4-nu-5,6-Dimethylenebenzene <=> 1,2-Dihydrocyclobutabenzene

  C(HETATM    1  C   HET A   1)   0.00000000 +0    0.0000000 +0    0.0000000 +0
  C(HETATM    2  C   HET A   1)   1.34934133 +1    0.0000000 +0    0.0000000 +0     1     0     0
  C(HETATM    3  C   HET A   1)   1.44947957 +1  120.7587983 +1    0.0000000 +0     2     1     0
  C(HETATM    4  C   HET A   1)   1.35026857 +1  120.8175930 +1    3.3085649 +1     3     2     1
  C(HETATM    5  C   HET A   1)   1.45725910 +1  121.0436517 +1    1.3839766 +1     4     3     2
  C(HETATM    6  C   HET A   1)   1.45543667 +1  120.9332060 +1    1.5131389 +1     1     2     3
  C(HETATM    7  C   HET A   1)   1.34465481 +1  123.3683707 +1  167.2446129 +1     6     1     2
  C(HETATM    8  C   HET A   1)   1.34482454 +1  124.0822767 +1  167.4703761 +1     5     4     3
  H(HETATM    9  H   HET A   1)   1.08431062 +1  122.0160559 +1  177.9758400 +1     1     2     3
  H(HETATM   10  H   HET A   1)   1.08843016 +1  121.8934402 +1 -179.6471652 +1     2     1     3
  H(HETATM   11  H   HET A   1)   1.08922541 +1  117.5663125 +1 -176.9620324 +1     3     2     1
  H(HETATM   12  H   HET A   1)   1.08845275 +1  121.8035937 +1  177.8298727 +1     4     3     2
  H(HETATM   13  H   HET A   1)   1.07868884 +1  123.6575054 +1 -162.9925219 +1     7     6     1
  H(HETATM   14  H   HET A   1)   1.06800988 +1  124.9015607 +1   17.5150178 +1     7     6     1
  H(HETATM   15  H   HET A   1)   1.08199939 +1  123.8982623 +1 -163.2706414 +1     8     5     4
  H(HETATM   16  H   HET A   1)   1.06865020 +1  125.2049707 +1   16.4530439 +1     8     5     4
 
 TIME=     0.00
  REACTANTS AND PRODUCTS SWAPPED AROUND
 *+*+*+*+*+*+*+*+*+*+*+*+*+*+*+*+*+*+*+*+*+*+*+*+*+*+*+*+*+*+*+*+*+*+*+*+*+*+*+*+
            BAR SHORTENED BY       1.000 PERCENT
 GRADIENT CRITERION IN FLEPO =    10.000


          FOR POINT   11 SECOND STRUCTURE
 DISTANCE A - B      1.925120
 HEAT               57.728356
 GRADIENT NORM      44.566612
 DIRECTION COSINE    0.799052
 geo-ok HTML
 Transition state for the reaction 1,2,3,4-nu-5,6-Dimethylenebenzene <=> 1,2-Dihydrocyclobutabenzene

  C(HETATM    1  C   HET A   1)   0.00000000 +0    0.0000000 +0    0.0000000 +0
  C(HETATM    2  C   HET A   1)   1.41113950 +1    0.0000000 +0    0.0000000 +0     1     0     0
  C(HETATM    3  C   HET A   1)   1.38850443 +1  121.8237154 +1    0.0000000 +0     2     1     0
  C(HETATM    4  C   HET A   1)   1.41390627 +1  121.6285245 +1    6.9332268 +1     3     2     1
  C(HETATM    5  C   HET A   1)   1.36659107 +1  115.7229714 +1   -1.4761265 +1     4     3     2
  C(HETATM    6  C   HET A   1)   1.37180280 +1  115.9137891 +1   -1.6370338 +1     1     2     3
  C(HETATM    7  C   HET A   1)   1.49029722 +1  144.0867044 +1  177.7420584 +1     6     1     2
  C(HETATM    8  C   HET A   1)   1.49964683 +1  143.9617944 +1  177.6096537 +1     5     4     3
  H(HETATM    9  H   HET A   1)   1.08252245 +1  121.6712271 +1  179.3612196 +1     1     2     3
  H(HETATM   10  H   HET A   1)   1.08559208 +1  118.5544509 +1 -179.0615007 +1     2     1     3
  H(HETATM   11  H   HET A   1)   1.08561684 +1  119.8402511 +1 -173.7750644 +1     3     2     1
  H(HETATM   12  H   HET A   1)   1.08290270 +1  121.2770336 +1  179.4444705 +1     4     3     2
  H(HETATM   13  H   HET A   1)   1.07980264 +1  121.1886475 +1  -81.5688509 +1     7     6     1
  H(HETATM   14  H   HET A   1)   1.10016831 +1  111.7885151 +1   39.8845586 +1     7     6     1
  H(HETATM   15  H   HET A   1)   1.08294902 +1  120.7233047 +1  -81.7298210 +1     8     5     4
  H(HETATM   16  H   HET A   1)   1.10130346 +1  111.4362666 +1   39.4048552 +1     8     5     4
 
 *+*+*+*+*+*+*+*+*+*+*+*+*+*+*+*+*+*+*+*+*+*+*+*+*+*+*+*+*+*+*+*+*+*+*+*+*+*+*+*+
            BAR SHORTENED BY       1.000 PERCENT
 GRADIENT CRITERION IN FLEPO =    10.000


          FOR POINT   12 SECOND STRUCTURE
 DISTANCE A - B      1.905868
 HEAT               58.456042
 GRADIENT NORM      45.696817
 DIRECTION COSINE    0.882938
 geo-ok HTML
 Transition state for the reaction 1,2,3,4-nu-5,6-Dimethylenebenzene <=> 1,2-Dihydrocyclobutabenzene

  C(HETATM    1  C   HET A   1)   0.00000000 +0    0.0000000 +0    0.0000000 +0
  C(HETATM    2  C   HET A   1)   1.41035612 +1    0.0000000 +0    0.0000000 +0     1     0     0
  C(HETATM    3  C   HET A   1)   1.38958880 +1  121.7901535 +1    0.0000000 +0     2     1     0
  C(HETATM    4  C   HET A   1)   1.40935563 +1  121.5680952 +1    6.3836664 +1     3     2     1
  C(HETATM    5  C   HET A   1)   1.36401767 +1  115.8806857 +1   -0.9367002 +1     4     3     2
  C(HETATM    6  C   HET A   1)   1.36702981 +1  115.9301701 +1   -1.0778640 +1     1     2     3
  C(HETATM    7  C   HET A   1)   1.49280457 +1  143.9008442 +1  177.6192447 +1     6     1     2
  C(HETATM    8  C   HET A   1)   1.49827409 +1  143.6618562 +1  177.3321265 +1     5     4     3
  H(HETATM    9  H   HET A   1)   1.08067122 +1  121.4698817 +1  179.5366798 +1     1     2     3
  H(HETATM   10  H   HET A   1)   1.09059034 +1  118.6863134 +1 -179.3390207 +1     2     1     3
  H(HETATM   11  H   HET A   1)   1.08935849 +1  119.8050096 +1 -174.0324703 +1     3     2     1
  H(HETATM   12  H   HET A   1)   1.08555456 +1  121.3470701 +1  179.6501894 +1     4     3     2
  H(HETATM   13  H   HET A   1)   1.07544405 +1  121.4324614 +1  -82.4963538 +1     7     6     1
  H(HETATM   14  H   HET A   1)   1.09852667 +1  111.4613299 +1   39.5068562 +1     7     6     1
  H(HETATM   15  H   HET A   1)   1.07258642 +1  121.1685576 +1  -83.3949248 +1     8     5     4
  H(HETATM   16  H   HET A   1)   1.09729219 +1  111.6667587 +1   39.4978674 +1     8     5     4
 
 *+*+*+*+*+*+*+*+*+*+*+*+*+*+*+*+*+*+*+*+*+*+*+*+*+*+*+*+*+*+*+*+*+*+*+*+*+*+*+*+
            BAR SHORTENED BY       1.000 PERCENT
 GRADIENT CRITERION IN FLEPO =    10.000


          FOR POINT   13 SECOND STRUCTURE
 DISTANCE A - B      1.886810
 HEAT               59.283643
 GRADIENT NORM      46.648530
 DIRECTION COSINE    0.939417
 geo-ok HTML
 Transition state for the reaction 1,2,3,4-nu-5,6-Dimethylenebenzene <=> 1,2-Dihydrocyclobutabenzene

  C(HETATM    1  C   HET A   1)   0.00000000 +0    0.0000000 +0    0.0000000 +0
  C(HETATM    2  C   HET A   1)   1.41259000 +1    0.0000000 +0    0.0000000 +0     1     0     0
  C(HETATM    3  C   HET A   1)   1.38969209 +1  121.6643445 +1    0.0000000 +0     2     1     0
  C(HETATM    4  C   HET A   1)   1.41183742 +1  121.6115258 +1    6.7031898 +1     3     2     1
  C(HETATM    5  C   HET A   1)   1.36791498 +1  115.7950305 +1   -0.8510967 +1     4     3     2
  C(HETATM    6  C   HET A   1)   1.36553155 +1  115.9675402 +1   -0.9774155 +1     1     2     3
  C(HETATM    7  C   HET A   1)   1.49203724 +1  143.6886162 +1  178.1203081 +1     6     1     2
  C(HETATM    8  C   HET A   1)   1.49189944 +1  143.4888518 +1  178.3573596 +1     5     4     3
  H(HETATM    9  H   HET A   1)   1.08331084 +1  121.3053863 +1  179.5554070 +1     1     2     3
  H(HETATM   10  H   HET A   1)   1.08627445 +1  118.7123052 +1 -178.9127563 +1     2     1     3
  H(HETATM   11  H   HET A   1)   1.08633216 +1  119.7481430 +1 -174.0242800 +1     3     2     1
  H(HETATM   12  H   HET A   1)   1.08109549 +1  121.4513553 +1  179.6581378 +1     4     3     2
  H(HETATM   13  H   HET A   1)   1.07620535 +1  121.5888028 +1  -83.5258335 +1     7     6     1
  H(HETATM   14  H   HET A   1)   1.09879276 +1  111.5956171 +1   38.1996399 +1     7     6     1
  H(HETATM   15  H   HET A   1)   1.07524116 +1  121.2813858 +1  -84.8212889 +1     8     5     4
  H(HETATM   16  H   HET A   1)   1.09723426 +1  111.9900955 +1   37.7310339 +1     8     5     4
 
 TIME=     0.06
  REACTANTS AND PRODUCTS SWAPPED AROUND
 *+*+*+*+*+*+*+*+*+*+*+*+*+*+*+*+*+*+*+*+*+*+*+*+*+*+*+*+*+*+*+*+*+*+*+*+*+*+*+*+
            BAR SHORTENED BY       0.000 PERCENT
 GRADIENT CRITERION IN FLEPO =    10.000


          FOR POINT   14 FIRST  STRUCTURE
 DISTANCE A - B      1.886810
 HEAT               60.061537
 GRADIENT NORM      19.183027
 DIRECTION COSINE    0.873102
 geo-ok HTML
 Transition state for the reaction 1,2,3,4-nu-5,6-Dimethylenebenzene <=> 1,2-Dihydrocyclobutabenzene

  C(HETATM    1  C   HET A   1)   0.00000000 +0    0.0000000 +0    0.0000000 +0
  C(HETATM    2  C   HET A   1)   1.34934133 +1    0.0000000 +0    0.0000000 +0     1     0     0
  C(HETATM    3  C   HET A   1)   1.44947957 +1  120.7587983 +1    0.0000000 +0     2     1     0
  C(HETATM    4  C   HET A   1)   1.35026857 +1  120.8175930 +1    3.3085649 +1     3     2     1
  C(HETATM    5  C   HET A   1)   1.45725910 +1  121.0436517 +1    1.3839766 +1     4     3     2
  C(HETATM    6  C   HET A   1)   1.45543667 +1  120.9332060 +1    1.5131389 +1     1     2     3
  C(HETATM    7  C   HET A   1)   1.34465481 +1  123.3683707 +1  167.2446129 +1     6     1     2
  C(HETATM    8  C   HET A   1)   1.34482454 +1  124.0822767 +1  167.4703761 +1     5     4     3
  H(HETATM    9  H   HET A   1)   1.08431062 +1  122.0160559 +1  177.9758400 +1     1     2     3
  H(HETATM   10  H   HET A   1)   1.08843016 +1  121.8934402 +1 -179.6471652 +1     2     1     3
  H(HETATM   11  H   HET A   1)   1.08922541 +1  117.5663125 +1 -176.9620324 +1     3     2     1
  H(HETATM   12  H   HET A   1)   1.08845275 +1  121.8035937 +1  177.8298727 +1     4     3     2
  H(HETATM   13  H   HET A   1)   1.07868884 +1  123.6575054 +1 -162.9925219 +1     7     6     1
  H(HETATM   14  H   HET A   1)   1.06800988 +1  124.9015607 +1   17.5150178 +1     7     6     1
  H(HETATM   15  H   HET A   1)   1.08199939 +1  123.8982623 +1 -163.2706414 +1     8     5     4
  H(HETATM   16  H   HET A   1)   1.06865020 +1  125.2049707 +1   16.4530439 +1     8     5     4
 
 TIME=     0.02
  REACTANTS AND PRODUCTS SWAPPED AROUND
 *+*+*+*+*+*+*+*+*+*+*+*+*+*+*+*+*+*+*+*+*+*+*+*+*+*+*+*+*+*+*+*+*+*+*+*+*+*+*+*+
            BAR SHORTENED BY       1.000 PERCENT
 GRADIENT CRITERION IN FLEPO =    10.000


          FOR POINT   15 SECOND STRUCTURE
 DISTANCE A - B      1.867942
 HEAT               60.124447
 GRADIENT NORM      47.915270
 DIRECTION COSINE    0.897554
 geo-ok HTML
 Transition state for the reaction 1,2,3,4-nu-5,6-Dimethylenebenzene <=> 1,2-Dihydrocyclobutabenzene

  C(HETATM    1  C   HET A   1)   0.00000000 +0    0.0000000 +0    0.0000000 +0
  C(HETATM    2  C   HET A   1)   1.40938373 +1    0.0000000 +0    0.0000000 +0     1     0     0
  C(HETATM    3  C   HET A   1)   1.38973243 +1  121.7686731 +1    0.0000000 +0     2     1     0
  C(HETATM    4  C   HET A   1)   1.40945304 +1  121.5487508 +1    7.0200903 +1     3     2     1
  C(HETATM    5  C   HET A   1)   1.36545132 +1  115.8506473 +1   -1.2983571 +1     4     3     2
  C(HETATM    6  C   HET A   1)   1.36736589 +1  115.7578838 +1   -1.1289660 +1     1     2     3
  C(HETATM    7  C   HET A   1)   1.49317751 +1  143.4117339 +1  177.6585655 +1     6     1     2
  C(HETATM    8  C   HET A   1)   1.49357071 +1  143.4399837 +1  178.0703067 +1     5     4     3
  H(HETATM    9  H   HET A   1)   1.08108616 +1  121.5045000 +1  179.4620439 +1     1     2     3
  H(HETATM   10  H   HET A   1)   1.08783972 +1  118.5019022 +1 -178.9675474 +1     2     1     3
  H(HETATM   11  H   HET A   1)   1.08901419 +1  119.7480063 +1 -173.9854903 +1     3     2     1
  H(HETATM   12  H   HET A   1)   1.08443207 +1  121.3329559 +1  179.8372038 +1     4     3     2
  H(HETATM   13  H   HET A   1)   1.07437644 +1  122.2331718 +1  -83.5160309 +1     7     6     1
  H(HETATM   14  H   HET A   1)   1.09392268 +1  111.3874786 +1   37.8287697 +1     7     6     1
  H(HETATM   15  H   HET A   1)   1.07703072 +1  121.7486851 +1  -84.4779685 +1     8     5     4
  H(HETATM   16  H   HET A   1)   1.09919418 +1  111.6597833 +1   37.8152725 +1     8     5     4
 
 TIME=     0.02
  REACTANTS AND PRODUCTS SWAPPED AROUND
 *+*+*+*+*+*+*+*+*+*+*+*+*+*+*+*+*+*+*+*+*+*+*+*+*+*+*+*+*+*+*+*+*+*+*+*+*+*+*+*+
            BAR SHORTENED BY       1.000 PERCENT
 GRADIENT CRITERION IN FLEPO =    10.000


          FOR POINT   16 FIRST  STRUCTURE
 DISTANCE A - B      1.849262
 HEAT               60.415335
 GRADIENT NORM      21.927254
 DIRECTION COSINE    0.902537
 geo-ok HTML
 Transition state for the reaction 1,2,3,4-nu-5,6-Dimethylenebenzene <=> 1,2-Dihydrocyclobutabenzene

  C(HETATM    1  C   HET A   1)   0.00000000 +0    0.0000000 +0    0.0000000 +0
  C(HETATM    2  C   HET A   1)   1.34991975 +1    0.0000000 +0    0.0000000 +0     1     0     0
  C(HETATM    3  C   HET A   1)   1.44886625 +1  120.7684165 +1    0.0000000 +0     2     1     0
  C(HETATM    4  C   HET A   1)   1.35084144 +1  120.8243257 +1    3.3504862 +1     3     2     1
  C(HETATM    5  C   HET A   1)   1.45628744 +1  120.9963722 +1    1.3516239 +1     4     3     2
  C(HETATM    6  C   HET A   1)   1.45450954 +1  120.8856377 +1    1.4809430 +1     1     2     3
  C(HETATM    7  C   HET A   1)   1.34474528 +1  123.5905758 +1  167.3467555 +1     6     1     2
  C(HETATM    8  C   HET A   1)   1.34494940 +1  124.2978970 +1  167.5747003 +1     5     4     3
  H(HETATM    9  H   HET A   1)   1.08427123 +1  122.0111076 +1  177.9901648 +1     1     2     3
  H(HETATM   10  H   HET A   1)   1.08841427 +1  121.8597914 +1 -179.6352863 +1     2     1     3
  H(HETATM   11  H   HET A   1)   1.08921447 +1  117.5882750 +1 -176.9316296 +1     3     2     1
  H(HETATM   12  H   HET A   1)   1.08840868 +1  121.7991185 +1  177.8492342 +1     4     3     2
  H(HETATM   13  H   HET A   1)   1.07454492 +1  124.0769201 +1 -162.4284658 +1     7     6     1
  H(HETATM   14  H   HET A   1)   1.06696548 +1  124.7162214 +1   17.7415531 +1     7     6     1
  H(HETATM   15  H   HET A   1)   1.07784040 +1  124.3082338 +1 -162.7026225 +1     8     5     4
  H(HETATM   16  H   HET A   1)   1.06756537 +1  125.0202099 +1   16.6919940 +1     8     5     4
 
 TIME=     0.00
  REACTANTS AND PRODUCTS SWAPPED AROUND
 *+*+*+*+*+*+*+*+*+*+*+*+*+*+*+*+*+*+*+*+*+*+*+*+*+*+*+*+*+*+*+*+*+*+*+*+*+*+*+*+
            BAR SHORTENED BY       1.000 PERCENT
 GRADIENT CRITERION IN FLEPO =    10.000


          FOR POINT   17 SECOND STRUCTURE
 DISTANCE A - B      1.830770
 HEAT               61.027158
 GRADIENT NORM      51.385333
 DIRECTION COSINE    0.903711
 geo-ok HTML
 Transition state for the reaction 1,2,3,4-nu-5,6-Dimethylenebenzene <=> 1,2-Dihydrocyclobutabenzene

  C(HETATM    1  C   HET A   1)   0.00000000 +0    0.0000000 +0    0.0000000 +0
  C(HETATM    2  C   HET A   1)   1.40876844 +1    0.0000000 +0    0.0000000 +0     1     0     0
  C(HETATM    3  C   HET A   1)   1.39030758 +1  121.7581911 +1    0.0000000 +0     2     1     0
  C(HETATM    4  C   HET A   1)   1.40884910 +1  121.5409342 +1    6.9881447 +1     3     2     1
  C(HETATM    5  C   HET A   1)   1.36630367 +1  115.9065944 +1   -1.2772381 +1     4     3     2
  C(HETATM    6  C   HET A   1)   1.36818892 +1  115.8131776 +1   -1.1084572 +1     1     2     3
  C(HETATM    7  C   HET A   1)   1.49046107 +1  143.2474218 +1  177.5554340 +1     6     1     2
  C(HETATM    8  C   HET A   1)   1.49088094 +1  143.2821535 +1  177.9663011 +1     5     4     3
  H(HETATM    9  H   HET A   1)   1.08111098 +1  121.5096979 +1  179.4467090 +1     1     2     3
  H(HETATM   10  H   HET A   1)   1.08783567 +1  118.5356314 +1 -178.9693917 +1     2     1     3
  H(HETATM   11  H   HET A   1)   1.08900754 +1  119.7266123 +1 -174.0143957 +1     3     2     1
  H(HETATM   12  H   HET A   1)   1.08446804 +1  121.3378116 +1  179.8165611 +1     4     3     2
  H(HETATM   13  H   HET A   1)   1.07034298 +1  122.6344396 +1  -83.9735397 +1     7     6     1
  H(HETATM   14  H   HET A   1)   1.09240553 +1  111.4581657 +1   37.6594423 +1     7     6     1
  H(HETATM   15  H   HET A   1)   1.07299290 +1  122.1492808 +1  -84.9296915 +1     8     5     4
  H(HETATM   16  H   HET A   1)   1.09755285 +1  111.7311903 +1   37.6380067 +1     8     5     4
 
 TIME=     0.02
  REACTANTS AND PRODUCTS SWAPPED AROUND
 *+*+*+*+*+*+*+*+*+*+*+*+*+*+*+*+*+*+*+*+*+*+*+*+*+*+*+*+*+*+*+*+*+*+*+*+*+*+*+*+
            BAR SHORTENED BY       1.000 PERCENT
 GRADIENT CRITERION IN FLEPO =    10.000


          FOR POINT   18 FIRST  STRUCTURE
 DISTANCE A - B      1.812462
 HEAT               60.551535
 GRADIENT NORM      23.684208
 DIRECTION COSINE    0.771255
 geo-ok HTML
 Transition state for the reaction 1,2,3,4-nu-5,6-Dimethylenebenzene <=> 1,2-Dihydrocyclobutabenzene

  C(HETATM    1  C   HET A   1)   0.00000000 +0    0.0000000 +0    0.0000000 +0
  C(HETATM    2  C   HET A   1)   1.34938623 +1    0.0000000 +0    0.0000000 +0     1     0     0
  C(HETATM    3  C   HET A   1)   1.45004542 +1  120.7526113 +1    0.0000000 +0     2     1     0
  C(HETATM    4  C   HET A   1)   1.35269509 +1  121.0716160 +1    2.9464067 +1     3     2     1
  C(HETATM    5  C   HET A   1)   1.45680332 +1  120.5719982 +1    1.5135958 +1     4     3     2
  C(HETATM    6  C   HET A   1)   1.45525514 +1  120.7869253 +1    1.2589656 +1     1     2     3
  C(HETATM    7  C   HET A   1)   1.34682253 +1  123.5164189 +1  166.6986011 +1     6     1     2
  C(HETATM    8  C   HET A   1)   1.34201908 +1  123.9113545 +1  167.3751247 +1     5     4     3
  H(HETATM    9  H   HET A   1)   1.08794857 +1  122.0943746 +1  178.0962554 +1     1     2     3
  H(HETATM   10  H   HET A   1)   1.08887520 +1  121.8418546 +1 -179.7660821 +1     2     1     3
  H(HETATM   11  H   HET A   1)   1.08790937 +1  117.2069069 +1 -177.1648578 +1     3     2     1
  H(HETATM   12  H   HET A   1)   1.08635133 +1  121.8815149 +1  178.1142780 +1     4     3     2
  H(HETATM   13  H   HET A   1)   1.07564778 +1  124.1097404 +1 -161.2751185 +1     7     6     1
  H(HETATM   14  H   HET A   1)   1.06696211 +1  124.6922199 +1   19.3973041 +1     7     6     1
  H(HETATM   15  H   HET A   1)   1.08543003 +1  122.9792933 +1 -162.1662013 +1     8     5     4
  H(HETATM   16  H   HET A   1)   1.06627615 +1  125.5472506 +1   17.8330308 +1     8     5     4
 
 *+*+*+*+*+*+*+*+*+*+*+*+*+*+*+*+*+*+*+*+*+*+*+*+*+*+*+*+*+*+*+*+*+*+*+*+*+*+*+*+
            BAR SHORTENED BY       1.000 PERCENT
 GRADIENT CRITERION IN FLEPO =    10.000


          FOR POINT   19 FIRST  STRUCTURE
 DISTANCE A - B      1.794337
 HEAT               60.864015
 GRADIENT NORM      24.061119
 DIRECTION COSINE    0.520735
 geo-ok HTML
 Transition state for the reaction 1,2,3,4-nu-5,6-Dimethylenebenzene <=> 1,2-Dihydrocyclobutabenzene

  C(HETATM    1  C   HET A   1)   0.00000000 +0    0.0000000 +0    0.0000000 +0
  C(HETATM    2  C   HET A   1)   1.34675630 +1    0.0000000 +0    0.0000000 +0     1     0     0
  C(HETATM    3  C   HET A   1)   1.44959209 +1  120.9142095 +1    0.0000000 +0     2     1     0
  C(HETATM    4  C   HET A   1)   1.34812201 +1  121.1390761 +1    2.7295511 +1     3     2     1
  C(HETATM    5  C   HET A   1)   1.45570251 +1  120.4784001 +1    1.6513294 +1     4     3     2
  C(HETATM    6  C   HET A   1)   1.45188895 +1  120.7888411 +1    1.5407700 +1     1     2     3
  C(HETATM    7  C   HET A   1)   1.34329808 +1  124.1672771 +1  166.8119162 +1     6     1     2
  C(HETATM    8  C   HET A   1)   1.34785825 +1  124.1733999 +1  167.1729676 +1     5     4     3
  H(HETATM    9  H   HET A   1)   1.08776980 +1  122.1900117 +1  178.0747197 +1     1     2     3
  H(HETATM   10  H   HET A   1)   1.08981162 +1  121.8194275 +1 -179.5476370 +1     2     1     3
  H(HETATM   11  H   HET A   1)   1.09096831 +1  117.2558486 +1 -177.6405716 +1     3     2     1
  H(HETATM   12  H   HET A   1)   1.08953607 +1  122.0365881 +1  177.9494494 +1     4     3     2
  H(HETATM   13  H   HET A   1)   1.07691626 +1  124.4821490 +1 -160.6661648 +1     7     6     1
  H(HETATM   14  H   HET A   1)   1.06765588 +1  124.5341745 +1   19.3163806 +1     7     6     1
  H(HETATM   15  H   HET A   1)   1.07842730 +1  123.2475252 +1 -161.4735344 +1     8     5     4
  H(HETATM   16  H   HET A   1)   1.06679860 +1  125.0451445 +1   18.3979152 +1     8     5     4
 
 *+*+*+*+*+*+*+*+*+*+*+*+*+*+*+*+*+*+*+*+*+*+*+*+*+*+*+*+*+*+*+*+*+*+*+*+*+*+*+*+
            BAR SHORTENED BY       1.000 PERCENT
 GRADIENT CRITERION IN FLEPO =    10.000


          FOR POINT   20 FIRST  STRUCTURE
 DISTANCE A - B      1.776394
 HEAT               61.172692
 GRADIENT NORM      21.540744
 DIRECTION COSINE    0.848857
 geo-ok HTML
 Transition state for the reaction 1,2,3,4-nu-5,6-Dimethylenebenzene <=> 1,2-Dihydrocyclobutabenzene

  C(HETATM    1  C   HET A   1)   0.00000000 +0    0.0000000 +0    0.0000000 +0
  C(HETATM    2  C   HET A   1)   1.34926380 +1    0.0000000 +0    0.0000000 +0     1     0     0
  C(HETATM    3  C   HET A   1)   1.44994896 +1  120.9495615 +1    0.0000000 +0     2     1     0
  C(HETATM    4  C   HET A   1)   1.34948096 +1  121.1184250 +1    1.8682797 +1     3     2     1
  C(HETATM    5  C   HET A   1)   1.45481964 +1  120.4939584 +1    1.8511591 +1     4     3     2
  C(HETATM    6  C   HET A   1)   1.45448954 +1  120.5426903 +1    2.4045021 +1     1     2     3
  C(HETATM    7  C   HET A   1)   1.34533030 +1  123.9482345 +1  166.4732524 +1     6     1     2
  C(HETATM    8  C   HET A   1)   1.34712602 +1  124.2059612 +1  166.6764209 +1     5     4     3
  H(HETATM    9  H   HET A   1)   1.09525632 +1  121.8379641 +1  177.9473080 +1     1     2     3
  H(HETATM   10  H   HET A   1)   1.08919153 +1  121.6931091 +1 -179.2219456 +1     2     1     3
  H(HETATM   11  H   HET A   1)   1.08909344 +1  117.1951197 +1 -178.0090724 +1     3     2     1
  H(HETATM   12  H   HET A   1)   1.08802110 +1  121.9611779 +1  178.2714468 +1     4     3     2
  H(HETATM   13  H   HET A   1)   1.08206374 +1  123.9221097 +1 -160.5380058 +1     7     6     1
  H(HETATM   14  H   HET A   1)   1.06760102 +1  124.8158435 +1   19.6243222 +1     7     6     1
  H(HETATM   15  H   HET A   1)   1.07974915 +1  123.3585638 +1 -160.6791265 +1     8     5     4
  H(HETATM   16  H   HET A   1)   1.06401522 +1  125.2629550 +1   19.7203783 +1     8     5     4
 
 TIME=     0.05
  REACTANTS AND PRODUCTS SWAPPED AROUND
 *+*+*+*+*+*+*+*+*+*+*+*+*+*+*+*+*+*+*+*+*+*+*+*+*+*+*+*+*+*+*+*+*+*+*+*+*+*+*+*+
            BAR SHORTENED BY       0.000 PERCENT
 GRADIENT CRITERION IN FLEPO =    10.000


          FOR POINT   21 SECOND STRUCTURE
 DISTANCE A - B      1.776394
 HEAT               60.882294
 GRADIENT NORM      51.386367
 DIRECTION COSINE    0.890749
 geo-ok HTML
 Transition state for the reaction 1,2,3,4-nu-5,6-Dimethylenebenzene <=> 1,2-Dihydrocyclobutabenzene

  C(HETATM    1  C   HET A   1)   0.00000000 +0    0.0000000 +0    0.0000000 +0
  C(HETATM    2  C   HET A   1)   1.40876844 +1    0.0000000 +0    0.0000000 +0     1     0     0
  C(HETATM    3  C   HET A   1)   1.39030758 +1  121.7581911 +1    0.0000000 +0     2     1     0
  C(HETATM    4  C   HET A   1)   1.40884910 +1  121.5409342 +1    6.9881447 +1     3     2     1
  C(HETATM    5  C   HET A   1)   1.36630367 +1  115.9065944 +1   -1.2772381 +1     4     3     2
  C(HETATM    6  C   HET A   1)   1.36818892 +1  115.8131776 +1   -1.1084572 +1     1     2     3
  C(HETATM    7  C   HET A   1)   1.49046107 +1  143.2474218 +1  177.5554340 +1     6     1     2
  C(HETATM    8  C   HET A   1)   1.49088094 +1  143.2821535 +1  177.9663011 +1     5     4     3
  H(HETATM    9  H   HET A   1)   1.08111098 +1  121.5096979 +1  179.4467090 +1     1     2     3
  H(HETATM   10  H   HET A   1)   1.08783567 +1  118.5356314 +1 -178.9693917 +1     2     1     3
  H(HETATM   11  H   HET A   1)   1.08900754 +1  119.7266123 +1 -174.0143957 +1     3     2     1
  H(HETATM   12  H   HET A   1)   1.08446804 +1  121.3378116 +1  179.8165611 +1     4     3     2
  H(HETATM   13  H   HET A   1)   1.07034298 +1  122.6344396 +1  -83.9735397 +1     7     6     1
  H(HETATM   14  H   HET A   1)   1.09240553 +1  111.4581657 +1   37.6594423 +1     7     6     1
  H(HETATM   15  H   HET A   1)   1.07299290 +1  122.1492808 +1  -84.9296915 +1     8     5     4
  H(HETATM   16  H   HET A   1)   1.09755285 +1  111.7311903 +1   37.6380067 +1     8     5     4
 
 *+*+*+*+*+*+*+*+*+*+*+*+*+*+*+*+*+*+*+*+*+*+*+*+*+*+*+*+*+*+*+*+*+*+*+*+*+*+*+*+
            BAR SHORTENED BY       1.000 PERCENT
 GRADIENT CRITERION IN FLEPO =    10.000


          FOR POINT   22 SECOND STRUCTURE
 DISTANCE A - B      1.758630
 HEAT               61.680021
 GRADIENT NORM      50.582355
 DIRECTION COSINE    0.976669
 geo-ok HTML
 Transition state for the reaction 1,2,3,4-nu-5,6-Dimethylenebenzene <=> 1,2-Dihydrocyclobutabenzene

  C(HETATM    1  C   HET A   1)   0.00000000 +0    0.0000000 +0    0.0000000 +0
  C(HETATM    2  C   HET A   1)   1.40992047 +1    0.0000000 +0    0.0000000 +0     1     0     0
  C(HETATM    3  C   HET A   1)   1.38987873 +1  121.7194826 +1    0.0000000 +0     2     1     0
  C(HETATM    4  C   HET A   1)   1.40994711 +1  121.6205619 +1    6.8367394 +1     3     2     1
  C(HETATM    5  C   HET A   1)   1.36784199 +1  115.8149985 +1   -0.9888509 +1     4     3     2
  C(HETATM    6  C   HET A   1)   1.36678115 +1  115.8157500 +1   -1.0520536 +1     1     2     3
  C(HETATM    7  C   HET A   1)   1.48809342 +1  143.1827319 +1  177.5599735 +1     6     1     2
  C(HETATM    8  C   HET A   1)   1.48879078 +1  143.2920935 +1  177.6813857 +1     5     4     3
  H(HETATM    9  H   HET A   1)   1.08238778 +1  121.4545785 +1  179.7266262 +1     1     2     3
  H(HETATM   10  H   HET A   1)   1.08898679 +1  118.7794742 +1 -178.5807701 +1     2     1     3
  H(HETATM   11  H   HET A   1)   1.08728229 +1  119.7972115 +1 -174.1341245 +1     3     2     1
  H(HETATM   12  H   HET A   1)   1.08389265 +1  121.5274291 +1  179.7409585 +1     4     3     2
  H(HETATM   13  H   HET A   1)   1.07373969 +1  122.8852804 +1  -84.7063719 +1     7     6     1
  H(HETATM   14  H   HET A   1)   1.10159601 +1  111.2776274 +1   37.1114857 +1     7     6     1
  H(HETATM   15  H   HET A   1)   1.07697609 +1  122.5929234 +1  -86.2834075 +1     8     5     4
  H(HETATM   16  H   HET A   1)   1.10128951 +1  111.3495853 +1   36.8659989 +1     8     5     4
 
 TIME=     0.03
  REACTANTS AND PRODUCTS SWAPPED AROUND
 *+*+*+*+*+*+*+*+*+*+*+*+*+*+*+*+*+*+*+*+*+*+*+*+*+*+*+*+*+*+*+*+*+*+*+*+*+*+*+*+
            BAR SHORTENED BY       1.000 PERCENT
 GRADIENT CRITERION IN FLEPO =    10.000


          FOR POINT   23 FIRST  STRUCTURE
 DISTANCE A - B      1.741044
 HEAT               61.538054
 GRADIENT NORM      23.821033
 DIRECTION COSINE    0.912132
 geo-ok HTML
 Transition state for the reaction 1,2,3,4-nu-5,6-Dimethylenebenzene <=> 1,2-Dihydrocyclobutabenzene

  C(HETATM    1  C   HET A   1)   0.00000000 +0    0.0000000 +0    0.0000000 +0
  C(HETATM    2  C   HET A   1)   1.34984461 +1    0.0000000 +0    0.0000000 +0     1     0     0
  C(HETATM    3  C   HET A   1)   1.44933849 +1  120.9568402 +1    0.0000000 +0     2     1     0
  C(HETATM    4  C   HET A   1)   1.35006523 +1  121.1230762 +1    1.9224648 +1     3     2     1
  C(HETATM    5  C   HET A   1)   1.45390795 +1  120.4510985 +1    1.8175231 +1     4     3     2
  C(HETATM    6  C   HET A   1)   1.45357014 +1  120.4996949 +1    2.3643104 +1     1     2     3
  C(HETATM    7  C   HET A   1)   1.34546565 +1  124.1614133 +1  166.5802299 +1     6     1     2
  C(HETATM    8  C   HET A   1)   1.34725906 +1  124.4176552 +1  166.7804163 +1     5     4     3
  H(HETATM    9  H   HET A   1)   1.09512512 +1  121.8347730 +1  177.9648849 +1     1     2     3
  H(HETATM   10  H   HET A   1)   1.08918021 +1  121.6638031 +1 -179.2110315 +1     2     1     3
  H(HETATM   11  H   HET A   1)   1.08906437 +1  117.2212808 +1 -177.9696928 +1     3     2     1
  H(HETATM   12  H   HET A   1)   1.08797684 +1  121.9571091 +1  178.2856694 +1     4     3     2
  H(HETATM   13  H   HET A   1)   1.07822916 +1  124.3159250 +1 -159.9877972 +1     7     6     1
  H(HETATM   14  H   HET A   1)   1.06682593 +1  124.6326046 +1   19.8226950 +1     7     6     1
  H(HETATM   15  H   HET A   1)   1.07598063 +1  123.7479616 +1 -160.1337964 +1     8     5     4
  H(HETATM   16  H   HET A   1)   1.06326997 +1  125.0762876 +1   19.9175781 +1     8     5     4
 
 *+*+*+*+*+*+*+*+*+*+*+*+*+*+*+*+*+*+*+*+*+*+*+*+*+*+*+*+*+*+*+*+*+*+*+*+*+*+*+*+
            BAR SHORTENED BY       1.000 PERCENT
 GRADIENT CRITERION IN FLEPO =    10.000


          FOR POINT   24 FIRST  STRUCTURE
 DISTANCE A - B      1.723633
 HEAT               61.894702
 GRADIENT NORM      26.660849
 DIRECTION COSINE    0.745775
 geo-ok HTML
 Transition state for the reaction 1,2,3,4-nu-5,6-Dimethylenebenzene <=> 1,2-Dihydrocyclobutabenzene

  C(HETATM    1  C   HET A   1)   0.00000000 +0    0.0000000 +0    0.0000000 +0
  C(HETATM    2  C   HET A   1)   1.35025584 +1    0.0000000 +0    0.0000000 +0     1     0     0
  C(HETATM    3  C   HET A   1)   1.45307276 +1  121.0369966 +1    0.0000000 +0     2     1     0
  C(HETATM    4  C   HET A   1)   1.34818934 +1  121.0239274 +1    1.8254883 +1     3     2     1
  C(HETATM    5  C   HET A   1)   1.45624297 +1  120.5812528 +1    1.9915158 +1     4     3     2
  C(HETATM    6  C   HET A   1)   1.45551822 +1  120.5615679 +1    2.2872207 +1     1     2     3
  C(HETATM    7  C   HET A   1)   1.34230078 +1  124.4127308 +1  166.2952330 +1     6     1     2
  C(HETATM    8  C   HET A   1)   1.34262145 +1  124.7262161 +1  166.9694944 +1     5     4     3
  H(HETATM    9  H   HET A   1)   1.08891025 +1  121.8291533 +1  178.2468381 +1     1     2     3
  H(HETATM   10  H   HET A   1)   1.08913059 +1  121.6332116 +1 -179.4741690 +1     2     1     3
  H(HETATM   11  H   HET A   1)   1.08626018 +1  117.1182010 +1 -178.3234109 +1     3     2     1
  H(HETATM   12  H   HET A   1)   1.08640735 +1  122.0303955 +1  178.3191953 +1     4     3     2
  H(HETATM   13  H   HET A   1)   1.08016524 +1  124.2714018 +1 -159.2594010 +1     7     6     1
  H(HETATM   14  H   HET A   1)   1.06466992 +1  124.5485858 +1   20.8832872 +1     7     6     1
  H(HETATM   15  H   HET A   1)   1.07758193 +1  123.9663387 +1 -159.5781518 +1     8     5     4
  H(HETATM   16  H   HET A   1)   1.06606284 +1  124.9943609 +1   20.0083811 +1     8     5     4
 
 TIME=     0.03
  REACTANTS AND PRODUCTS SWAPPED AROUND
 *+*+*+*+*+*+*+*+*+*+*+*+*+*+*+*+*+*+*+*+*+*+*+*+*+*+*+*+*+*+*+*+*+*+*+*+*+*+*+*+
            BAR SHORTENED BY       1.000 PERCENT
 GRADIENT CRITERION IN FLEPO =    10.000


          FOR POINT   25 SECOND STRUCTURE
 DISTANCE A - B      1.706397
 HEAT               62.567110
 GRADIENT NORM      53.535072
 DIRECTION COSINE    0.777591
 geo-ok HTML
 Transition state for the reaction 1,2,3,4-nu-5,6-Dimethylenebenzene <=> 1,2-Dihydrocyclobutabenzene

  C(HETATM    1  C   HET A   1)   0.00000000 +0    0.0000000 +0    0.0000000 +0
  C(HETATM    2  C   HET A   1)   1.40929905 +1    0.0000000 +0    0.0000000 +0     1     0     0
  C(HETATM    3  C   HET A   1)   1.39050127 +1  121.7122445 +1    0.0000000 +0     2     1     0
  C(HETATM    4  C   HET A   1)   1.40931072 +1  121.6142498 +1    6.7911104 +1     3     2     1
  C(HETATM    5  C   HET A   1)   1.36867995 +1  115.8666052 +1   -0.9641739 +1     4     3     2
  C(HETATM    6  C   HET A   1)   1.36762412 +1  115.8673016 +1   -1.0243375 +1     1     2     3
  C(HETATM    7  C   HET A   1)   1.48550760 +1  143.0272998 +1  177.4434466 +1     6     1     2
  C(HETATM    8  C   HET A   1)   1.48621509 +1  143.1383135 +1  177.5714185 +1     5     4     3
  H(HETATM    9  H   HET A   1)   1.08245025 +1  121.4587232 +1  179.7114669 +1     1     2     3
  H(HETATM   10  H   HET A   1)   1.08897937 +1  118.8078544 +1 -178.5853085 +1     2     1     3
  H(HETATM   11  H   HET A   1)   1.08725998 +1  119.7708019 +1 -174.1755651 +1     3     2     1
  H(HETATM   12  H   HET A   1)   1.08391455 +1  121.5327176 +1  179.7262633 +1     4     3     2
  H(HETATM   13  H   HET A   1)   1.07012296 +1  123.2598927 +1  -85.1585080 +1     7     6     1
  H(HETATM   14  H   HET A   1)   1.10021329 +1  111.3523438 +1   36.9779685 +1     7     6     1
  H(HETATM   15  H   HET A   1)   1.07337282 +1  122.9563556 +1  -86.7336776 +1     8     5     4
  H(HETATM   16  H   HET A   1)   1.09990412 +1  111.4283223 +1   36.7253904 +1     8     5     4
 
 TIME=     0.02
  REACTANTS AND PRODUCTS SWAPPED AROUND
 *+*+*+*+*+*+*+*+*+*+*+*+*+*+*+*+*+*+*+*+*+*+*+*+*+*+*+*+*+*+*+*+*+*+*+*+*+*+*+*+
            BAR SHORTENED BY       1.000 PERCENT
 GRADIENT CRITERION IN FLEPO =    10.000


          FOR POINT   26 FIRST  STRUCTURE
 DISTANCE A - B      1.689333
 HEAT               62.216844
 GRADIENT NORM      25.326822
 DIRECTION COSINE    0.879316
 geo-ok HTML
 Transition state for the reaction 1,2,3,4-nu-5,6-Dimethylenebenzene <=> 1,2-Dihydrocyclobutabenzene

  C(HETATM    1  C   HET A   1)   0.00000000 +0    0.0000000 +0    0.0000000 +0
  C(HETATM    2  C   HET A   1)   1.34752527 +1    0.0000000 +0    0.0000000 +0     1     0     0
  C(HETATM    3  C   HET A   1)   1.44933414 +1  121.2297946 +1    0.0000000 +0     2     1     0
  C(HETATM    4  C   HET A   1)   1.35165648 +1  121.0467905 +1    1.4647724 +1     3     2     1
  C(HETATM    5  C   HET A   1)   1.45178590 +1  120.3290898 +1    2.1094703 +1     4     3     2
  C(HETATM    6  C   HET A   1)   1.45721515 +1  120.3066678 +1    2.7020225 +1     1     2     3
  C(HETATM    7  C   HET A   1)   1.34670096 +1  124.3645801 +1  165.9906089 +1     6     1     2
  C(HETATM    8  C   HET A   1)   1.34661434 +1  124.6686465 +1  166.8797012 +1     5     4     3
  H(HETATM    9  H   HET A   1)   1.08616203 +1  122.0355698 +1  178.1405756 +1     1     2     3
  H(HETATM   10  H   HET A   1)   1.09016835 +1  121.6587960 +1 -179.8160353 +1     2     1     3
  H(HETATM   11  H   HET A   1)   1.08994970 +1  117.2390748 +1 -178.9060193 +1     3     2     1
  H(HETATM   12  H   HET A   1)   1.08865954 +1  121.9540483 +1  178.0817300 +1     4     3     2
  H(HETATM   13  H   HET A   1)   1.07288010 +1  123.5165659 +1 -158.7388214 +1     7     6     1
  H(HETATM   14  H   HET A   1)   1.06516361 +1  124.5000812 +1   21.3596800 +1     7     6     1
  H(HETATM   15  H   HET A   1)   1.07892356 +1  123.7120510 +1 -159.2208339 +1     8     5     4
  H(HETATM   16  H   HET A   1)   1.06503790 +1  125.0399238 +1   20.6820882 +1     8     5     4
 
 *+*+*+*+*+*+*+*+*+*+*+*+*+*+*+*+*+*+*+*+*+*+*+*+*+*+*+*+*+*+*+*+*+*+*+*+*+*+*+*+
            BAR SHORTENED BY       1.000 PERCENT
 GRADIENT CRITERION IN FLEPO =    10.000


          FOR POINT   27 FIRST  STRUCTURE
 DISTANCE A - B      1.672440
 HEAT               62.542178
 GRADIENT NORM      23.533772
 DIRECTION COSINE    0.855298
 geo-ok HTML
 Transition state for the reaction 1,2,3,4-nu-5,6-Dimethylenebenzene <=> 1,2-Dihydrocyclobutabenzene

  C(HETATM    1  C   HET A   1)   0.00000000 +0    0.0000000 +0    0.0000000 +0
  C(HETATM    2  C   HET A   1)   1.35025005 +1    0.0000000 +0    0.0000000 +0     1     0     0
  C(HETATM    3  C   HET A   1)   1.44969189 +1  121.1216460 +1    0.0000000 +0     2     1     0
  C(HETATM    4  C   HET A   1)   1.35008689 +1  121.0863654 +1    1.6415995 +1     3     2     1
  C(HETATM    5  C   HET A   1)   1.45308032 +1  120.3782827 +1    2.0365330 +1     4     3     2
  C(HETATM    6  C   HET A   1)   1.45307787 +1  120.3197769 +1    2.3350114 +1     1     2     3
  C(HETATM    7  C   HET A   1)   1.34557334 +1  124.4824332 +1  166.1283915 +1     6     1     2
  C(HETATM    8  C   HET A   1)   1.34914934 +1  124.7857431 +1  166.5189509 +1     5     4     3
  H(HETATM    9  H   HET A   1)   1.08810134 +1  121.9554156 +1  178.0336875 +1     1     2     3
  H(HETATM   10  H   HET A   1)   1.08929214 +1  121.6429068 +1 -178.9721885 +1     2     1     3
  H(HETATM   11  H   HET A   1)   1.08891785 +1  117.1860155 +1 -178.8141676 +1     3     2     1
  H(HETATM   12  H   HET A   1)   1.08764627 +1  122.0289469 +1  177.9776634 +1     4     3     2
  H(HETATM   13  H   HET A   1)   1.07829520 +1  123.9164074 +1 -158.0370167 +1     7     6     1
  H(HETATM   14  H   HET A   1)   1.06898631 +1  124.8638368 +1   22.0032411 +1     7     6     1
  H(HETATM   15  H   HET A   1)   1.07912368 +1  123.4071702 +1 -158.6419023 +1     8     5     4
  H(HETATM   16  H   HET A   1)   1.06630676 +1  124.9452950 +1   21.7532916 +1     8     5     4
 
 *+*+*+*+*+*+*+*+*+*+*+*+*+*+*+*+*+*+*+*+*+*+*+*+*+*+*+*+*+*+*+*+*+*+*+*+*+*+*+*+
            BAR SHORTENED BY       1.000 PERCENT
 GRADIENT CRITERION IN FLEPO =    10.000


          FOR POINT   28 FIRST  STRUCTURE
 DISTANCE A - B      1.655715
 HEAT               62.933784
 GRADIENT NORM      26.397783
 DIRECTION COSINE    0.985112
 geo-ok HTML
 Transition state for the reaction 1,2,3,4-nu-5,6-Dimethylenebenzene <=> 1,2-Dihydrocyclobutabenzene

  C(HETATM    1  C   HET A   1)   0.00000000 +0    0.0000000 +0    0.0000000 +0
  C(HETATM    2  C   HET A   1)   1.35081397 +1    0.0000000 +0    0.0000000 +0     1     0     0
  C(HETATM    3  C   HET A   1)   1.44909049 +1  121.1271131 +1    0.0000000 +0     2     1     0
  C(HETATM    4  C   HET A   1)   1.35065815 +1  121.0912407 +1    1.6975220 +1     3     2     1
  C(HETATM    5  C   HET A   1)   1.45219618 +1  120.3370442 +1    2.0014288 +1     4     3     2
  C(HETATM    6  C   HET A   1)   1.45218496 +1  120.2793094 +1    2.2958777 +1     1     2     3
  C(HETATM    7  C   HET A   1)   1.34576916 +1  124.6881401 +1  166.2364173 +1     6     1     2
  C(HETATM    8  C   HET A   1)   1.34932380 +1  124.9889846 +1  166.6240618 +1     5     4     3
  H(HETATM    9  H   HET A   1)   1.08804219 +1  121.9509446 +1  178.0502365 +1     1     2     3
  H(HETATM   10  H   HET A   1)   1.08927851 +1  121.6142551 +1 -178.9638819 +1     2     1     3
  H(HETATM   11  H   HET A   1)   1.08888948 +1  117.2122766 +1 -178.7673315 +1     3     2     1
  H(HETATM   12  H   HET A   1)   1.08760653 +1  122.0243938 +1  177.9947758 +1     4     3     2
  H(HETATM   13  H   HET A   1)   1.07472558 +1  124.2904902 +1 -157.4983185 +1     7     6     1
  H(HETATM   14  H   HET A   1)   1.06835118 +1  124.6825177 +1   22.1725384 +1     7     6     1
  H(HETATM   15  H   HET A   1)   1.07558061 +1  123.7762290 +1 -158.1065552 +1     8     5     4
  H(HETATM   16  H   HET A   1)   1.06569317 +1  124.7644898 +1   21.9234393 +1     8     5     4
 
 TIME=     0.03
  REACTANTS AND PRODUCTS SWAPPED AROUND
 *+*+*+*+*+*+*+*+*+*+*+*+*+*+*+*+*+*+*+*+*+*+*+*+*+*+*+*+*+*+*+*+*+*+*+*+*+*+*+*+
            BAR SHORTENED BY       0.000 PERCENT
 GRADIENT CRITERION IN FLEPO =    10.000


          FOR POINT   29 SECOND STRUCTURE
 DISTANCE A - B      1.655715
 HEAT               62.567110
 GRADIENT NORM      53.528175
 DIRECTION COSINE    0.925556
 geo-ok HTML
 Transition state for the reaction 1,2,3,4-nu-5,6-Dimethylenebenzene <=> 1,2-Dihydrocyclobutabenzene

  C(HETATM    1  C   HET A   1)   0.00000000 +0    0.0000000 +0    0.0000000 +0
  C(HETATM    2  C   HET A   1)   1.40929905 +1    0.0000000 +0    0.0000000 +0     1     0     0
  C(HETATM    3  C   HET A   1)   1.39050127 +1  121.7122445 +1    0.0000000 +0     2     1     0
  C(HETATM    4  C   HET A   1)   1.40931072 +1  121.6142498 +1    6.7911104 +1     3     2     1
  C(HETATM    5  C   HET A   1)   1.36867995 +1  115.8666052 +1   -0.9641739 +1     4     3     2
  C(HETATM    6  C   HET A   1)   1.36762412 +1  115.8673016 +1   -1.0243375 +1     1     2     3
  C(HETATM    7  C   HET A   1)   1.48550760 +1  143.0272998 +1  177.4434466 +1     6     1     2
  C(HETATM    8  C   HET A   1)   1.48621509 +1  143.1383135 +1  177.5714185 +1     5     4     3
  H(HETATM    9  H   HET A   1)   1.08245025 +1  121.4587232 +1  179.7114669 +1     1     2     3
  H(HETATM   10  H   HET A   1)   1.08897937 +1  118.8078544 +1 -178.5853085 +1     2     1     3
  H(HETATM   11  H   HET A   1)   1.08725998 +1  119.7708019 +1 -174.1755651 +1     3     2     1
  H(HETATM   12  H   HET A   1)   1.08391455 +1  121.5327176 +1  179.7262633 +1     4     3     2
  H(HETATM   13  H   HET A   1)   1.07012296 +1  123.2598927 +1  -85.1585080 +1     7     6     1
  H(HETATM   14  H   HET A   1)   1.10021329 +1  111.3523438 +1   36.9779685 +1     7     6     1
  H(HETATM   15  H   HET A   1)   1.07337282 +1  122.9563556 +1  -86.7336776 +1     8     5     4
  H(HETATM   16  H   HET A   1)   1.09990412 +1  111.4283223 +1   36.7253904 +1     8     5     4
 
 *+*+*+*+*+*+*+*+*+*+*+*+*+*+*+*+*+*+*+*+*+*+*+*+*+*+*+*+*+*+*+*+*+*+*+*+*+*+*+*+
            BAR SHORTENED BY       1.000 PERCENT
 GRADIENT CRITERION IN FLEPO =    10.000


          FOR POINT   30 SECOND STRUCTURE
 DISTANCE A - B      1.639158
 HEAT               63.524576
 GRADIENT NORM      53.813203
 DIRECTION COSINE    0.973170
 geo-ok HTML
 Transition state for the reaction 1,2,3,4-nu-5,6-Dimethylenebenzene <=> 1,2-Dihydrocyclobutabenzene

  C(HETATM    1  C   HET A   1)   0.00000000 +0    0.0000000 +0    0.0000000 +0
  C(HETATM    2  C   HET A   1)   1.40941882 +1    0.0000000 +0    0.0000000 +0     1     0     0
  C(HETATM    3  C   HET A   1)   1.39026135 +1  121.8514326 +1    0.0000000 +0     2     1     0
  C(HETATM    4  C   HET A   1)   1.41181075 +1  121.7631796 +1    6.5740922 +1     3     2     1
  C(HETATM    5  C   HET A   1)   1.36772708 +1  115.5962889 +1   -0.8057257 +1     4     3     2
  C(HETATM    6  C   HET A   1)   1.37136488 +1  115.5430343 +1   -0.7368423 +1     1     2     3
  C(HETATM    7  C   HET A   1)   1.48756471 +1  142.8668313 +1  177.3920519 +1     6     1     2
  C(HETATM    8  C   HET A   1)   1.48850852 +1  142.8562106 +1  177.4334460 +1     5     4     3
  H(HETATM    9  H   HET A   1)   1.08089082 +1  121.8338547 +1  179.9981929 +1     1     2     3
  H(HETATM   10  H   HET A   1)   1.08726637 +1  118.5666148 +1 -178.7493247 +1     2     1     3
  H(HETATM   11  H   HET A   1)   1.08559127 +1  119.6871902 +1 -174.6201666 +1     3     2     1
  H(HETATM   12  H   HET A   1)   1.08060603 +1  121.4641775 +1  179.8811769 +1     4     3     2
  H(HETATM   13  H   HET A   1)   1.07651800 +1  123.0975134 +1  -86.1138035 +1     7     6     1
  H(HETATM   14  H   HET A   1)   1.10419537 +1  111.1107985 +1   36.2719182 +1     7     6     1
  H(HETATM   15  H   HET A   1)   1.07529260 +1  123.1314697 +1  -87.4172757 +1     8     5     4
  H(HETATM   16  H   HET A   1)   1.09785851 +1  111.2686372 +1   35.7447696 +1     8     5     4
 
 TIME=     0.03
  REACTANTS AND PRODUCTS SWAPPED AROUND
 *+*+*+*+*+*+*+*+*+*+*+*+*+*+*+*+*+*+*+*+*+*+*+*+*+*+*+*+*+*+*+*+*+*+*+*+*+*+*+*+
            BAR SHORTENED BY       1.000 PERCENT
 GRADIENT CRITERION IN FLEPO =    10.000


          FOR POINT   31 FIRST  STRUCTURE
 DISTANCE A - B      1.622766
 HEAT               63.284002
 GRADIENT NORM      23.853931
 DIRECTION COSINE    0.875985
 geo-ok HTML
 Transition state for the reaction 1,2,3,4-nu-5,6-Dimethylenebenzene <=> 1,2-Dihydrocyclobutabenzene

  C(HETATM    1  C   HET A   1)   0.00000000 +0    0.0000000 +0    0.0000000 +0
  C(HETATM    2  C   HET A   1)   1.34997879 +1    0.0000000 +0    0.0000000 +0     1     0     0
  C(HETATM    3  C   HET A   1)   1.45105707 +1  121.2151065 +1    0.0000000 +0     2     1     0
  C(HETATM    4  C   HET A   1)   1.35012469 +1  121.1239321 +1    1.0133342 +1     3     2     1
  C(HETATM    5  C   HET A   1)   1.45347144 +1  120.3444080 +1    2.4791930 +1     4     3     2
  C(HETATM    6  C   HET A   1)   1.45487474 +1  120.0840634 +1    2.9543785 +1     1     2     3
  C(HETATM    7  C   HET A   1)   1.34674406 +1  124.5079330 +1  165.9651858 +1     6     1     2
  C(HETATM    8  C   HET A   1)   1.34587515 +1  125.1057027 +1  166.5790931 +1     5     4     3
  H(HETATM    9  H   HET A   1)   1.08693667 +1  122.2185942 +1  177.9579651 +1     1     2     3
  H(HETATM   10  H   HET A   1)   1.08906819 +1  121.5050111 +1 -179.6750147 +1     2     1     3
  H(HETATM   11  H   HET A   1)   1.08876485 +1  117.0386506 +1 -179.0217258 +1     3     2     1
  H(HETATM   12  H   HET A   1)   1.08676102 +1  122.0551620 +1  178.3619062 +1     4     3     2
  H(HETATM   13  H   HET A   1)   1.08627719 +1  123.8316257 +1 -157.4281150 +1     7     6     1
  H(HETATM   14  H   HET A   1)   1.06179863 +1  125.0635336 +1   22.8501900 +1     7     6     1
  H(HETATM   15  H   HET A   1)   1.08193185 +1  123.3813169 +1 -157.6529667 +1     8     5     4
  H(HETATM   16  H   HET A   1)   1.06406680 +1  125.1530399 +1   22.4149720 +1     8     5     4
 
 *+*+*+*+*+*+*+*+*+*+*+*+*+*+*+*+*+*+*+*+*+*+*+*+*+*+*+*+*+*+*+*+*+*+*+*+*+*+*+*+
            BAR SHORTENED BY       1.000 PERCENT
 GRADIENT CRITERION IN FLEPO =    10.000


          FOR POINT   32 FIRST  STRUCTURE
 DISTANCE A - B      1.606539
 HEAT               63.661685
 GRADIENT NORM      25.368096
 DIRECTION COSINE    0.980665
 geo-ok HTML
 Transition state for the reaction 1,2,3,4-nu-5,6-Dimethylenebenzene <=> 1,2-Dihydrocyclobutabenzene

  C(HETATM    1  C   HET A   1)   0.00000000 +0    0.0000000 +0    0.0000000 +0
  C(HETATM    2  C   HET A   1)   1.35054505 +1    0.0000000 +0    0.0000000 +0     1     0     0
  C(HETATM    3  C   HET A   1)   1.45044143 +1  121.2212118 +1    0.0000000 +0     2     1     0
  C(HETATM    4  C   HET A   1)   1.35071981 +1  121.1300428 +1    1.0733842 +1     3     2     1
  C(HETATM    5  C   HET A   1)   1.45257098 +1  120.3009340 +1    2.4410830 +1     4     3     2
  C(HETATM    6  C   HET A   1)   1.45400098 +1  120.0426827 +1    2.9118172 +1     1     2     3
  C(HETATM    7  C   HET A   1)   1.34696373 +1  124.7118373 +1  166.0745950 +1     6     1     2
  C(HETATM    8  C   HET A   1)   1.34615011 +1  125.3038889 +1  166.6834996 +1     5     4     3
  H(HETATM    9  H   HET A   1)   1.08687437 +1  122.2156690 +1  177.9781890 +1     1     2     3
  H(HETATM   10  H   HET A   1)   1.08904008 +1  121.4754361 +1 -179.6611932 +1     2     1     3
  H(HETATM   11  H   HET A   1)   1.08872091 +1  117.0653391 +1 -178.9770500 +1     3     2     1
  H(HETATM   12  H   HET A   1)   1.08669651 +1  122.0497570 +1  178.3769621 +1     4     3     2
  H(HETATM   13  H   HET A   1)   1.08278405 +1  124.1943031 +1 -156.8932286 +1     7     6     1
  H(HETATM   14  H   HET A   1)   1.06138093 +1  124.8790573 +1   23.0042991 +1     7     6     1
  H(HETATM   15  H   HET A   1)   1.07852272 +1  123.7376691 +1 -157.1235016 +1     8     5     4
  H(HETATM   16  H   HET A   1)   1.06359282 +1  124.9702696 +1   22.5651430 +1     8     5     4
 
 TIME=     0.03
  REACTANTS AND PRODUCTS SWAPPED AROUND
 *+*+*+*+*+*+*+*+*+*+*+*+*+*+*+*+*+*+*+*+*+*+*+*+*+*+*+*+*+*+*+*+*+*+*+*+*+*+*+*+
            BAR SHORTENED BY       1.000 PERCENT
 GRADIENT CRITERION IN FLEPO =    10.000


          FOR POINT   33 SECOND STRUCTURE
 DISTANCE A - B      1.590473
 HEAT               64.170755
 GRADIENT NORM      54.060521
 DIRECTION COSINE    0.947665
 geo-ok HTML
 Transition state for the reaction 1,2,3,4-nu-5,6-Dimethylenebenzene <=> 1,2-Dihydrocyclobutabenzene

  C(HETATM    1  C   HET A   1)   0.00000000 +0    0.0000000 +0    0.0000000 +0
  C(HETATM    2  C   HET A   1)   1.41007052 +1    0.0000000 +0    0.0000000 +0     1     0     0
  C(HETATM    3  C   HET A   1)   1.39083834 +1  121.7298308 +1    0.0000000 +0     2     1     0
  C(HETATM    4  C   HET A   1)   1.40913184 +1  121.8003234 +1    6.5527029 +1     3     2     1
  C(HETATM    5  C   HET A   1)   1.36821127 +1  115.6590368 +1   -0.7255524 +1     4     3     2
  C(HETATM    6  C   HET A   1)   1.36842230 +1  115.6143047 +1   -0.6120355 +1     1     2     3
  C(HETATM    7  C   HET A   1)   1.48790528 +1  142.7367916 +1  177.2849946 +1     6     1     2
  C(HETATM    8  C   HET A   1)   1.48515645 +1  142.9575877 +1  177.2404027 +1     5     4     3
  H(HETATM    9  H   HET A   1)   1.08282161 +1  121.6640961 +1  179.8554321 +1     1     2     3
  H(HETATM   10  H   HET A   1)   1.08713372 +1  118.6399088 +1 -178.4344230 +1     2     1     3
  H(HETATM   11  H   HET A   1)   1.08724642 +1  119.5265659 +1 -174.6091248 +1     3     2     1
  H(HETATM   12  H   HET A   1)   1.08247085 +1  121.5014067 +1  179.9098880 +1     4     3     2
  H(HETATM   13  H   HET A   1)   1.07185459 +1  123.4547829 +1  -87.0388505 +1     7     6     1
  H(HETATM   14  H   HET A   1)   1.10292621 +1  110.7632410 +1   35.7132873 +1     7     6     1
  H(HETATM   15  H   HET A   1)   1.07220877 +1  123.2410033 +1  -87.9096264 +1     8     5     4
  H(HETATM   16  H   HET A   1)   1.10588235 +1  110.9704280 +1   35.5525521 +1     8     5     4
 
 TIME=     0.02
  REACTANTS AND PRODUCTS SWAPPED AROUND
 *+*+*+*+*+*+*+*+*+*+*+*+*+*+*+*+*+*+*+*+*+*+*+*+*+*+*+*+*+*+*+*+*+*+*+*+*+*+*+*+
            BAR SHORTENED BY       1.000 PERCENT
 GRADIENT CRITERION IN FLEPO =    10.000


          FOR POINT   34 FIRST  STRUCTURE
 DISTANCE A - B      1.574569
 HEAT               64.222788
 GRADIENT NORM      27.614422
 DIRECTION COSINE    0.946545
 geo-ok HTML
 Transition state for the reaction 1,2,3,4-nu-5,6-Dimethylenebenzene <=> 1,2-Dihydrocyclobutabenzene

  C(HETATM    1  C   HET A   1)   0.00000000 +0    0.0000000 +0    0.0000000 +0
  C(HETATM    2  C   HET A   1)   1.35111383 +1    0.0000000 +0    0.0000000 +0     1     0     0
  C(HETATM    3  C   HET A   1)   1.44983871 +1  121.2260899 +1    0.0000000 +0     2     1     0
  C(HETATM    4  C   HET A   1)   1.35128363 +1  121.1364956 +1    1.1323316 +1     3     2     1
  C(HETATM    5  C   HET A   1)   1.45168700 +1  120.2582622 +1    2.4045433 +1     4     3     2
  C(HETATM    6  C   HET A   1)   1.45310822 +1  120.0022834 +1    2.8711709 +1     1     2     3
  C(HETATM    7  C   HET A   1)   1.34722526 +1  124.9124815 +1  166.1811309 +1     6     1     2
  C(HETATM    8  C   HET A   1)   1.34641591 +1  125.5004140 +1  166.7841851 +1     5     4     3
  H(HETATM    9  H   HET A   1)   1.08683167 +1  122.2109852 +1  177.9969050 +1     1     2     3
  H(HETATM   10  H   HET A   1)   1.08901178 +1  121.4470512 +1 -179.6444811 +1     2     1     3
  H(HETATM   11  H   HET A   1)   1.08869516 +1  117.0902131 +1 -178.9326302 +1     3     2     1
  H(HETATM   12  H   HET A   1)   1.08665175 +1  122.0447950 +1  178.3921895 +1     4     3     2
  H(HETATM   13  H   HET A   1)   1.07943108 +1  124.5449971 +1 -156.3629902 +1     7     6     1
  H(HETATM   14  H   HET A   1)   1.06100992 +1  124.6943037 +1   23.1502328 +1     7     6     1
  H(HETATM   15  H   HET A   1)   1.07522229 +1  124.0837154 +1 -156.5946105 +1     8     5     4
  H(HETATM   16  H   HET A   1)   1.06322964 +1  124.7878493 +1   22.7139252 +1     8     5     4
 
 TIME=     0.02
  REACTANTS AND PRODUCTS SWAPPED AROUND
 *+*+*+*+*+*+*+*+*+*+*+*+*+*+*+*+*+*+*+*+*+*+*+*+*+*+*+*+*+*+*+*+*+*+*+*+*+*+*+*+
            BAR SHORTENED BY       1.000 PERCENT
 GRADIENT CRITERION IN FLEPO =    10.000


          FOR POINT   35 SECOND STRUCTURE
 DISTANCE A - B      1.558823
 HEAT               65.180498
 GRADIENT NORM      56.488601
 DIRECTION COSINE    0.942750
 geo-ok HTML
 Transition state for the reaction 1,2,3,4-nu-5,6-Dimethylenebenzene <=> 1,2-Dihydrocyclobutabenzene

  C(HETATM    1  C   HET A   1)   0.00000000 +0    0.0000000 +0    0.0000000 +0
  C(HETATM    2  C   HET A   1)   1.40945610 +1    0.0000000 +0    0.0000000 +0     1     0     0
[...]
  H(HETATM   12  H   HET A   1)   1.08503598 +1  122.2817835 +1  178.7013151 +1     4     3     2
  H(HETATM   13  H   HET A   1)   1.07759169 +1  122.5713731 +1 -123.6409139 +1     7     6     1
  H(HETATM   14  H   HET A   1)   1.07621715 +1  121.7447247 +1   39.8764096 +1     7     6     1
  H(HETATM   15  H   HET A   1)   1.07753141 +1  122.4916322 +1 -123.3125817 +1     8     5     4
  H(HETATM   16  H   HET A   1)   1.07617979 +1  121.7886611 +1   40.1713104 +1     8     5     4
 
 TIME=     0.02
  REACTANTS AND PRODUCTS SWAPPED AROUND
 *+*+*+*+*+*+*+*+*+*+*+*+*+*+*+*+*+*+*+*+*+*+*+*+*+*+*+*+*+*+*+*+*+*+*+*+*+*+*+*+
            BAR SHORTENED BY       1.000 PERCENT
 GRADIENT CRITERION IN FLEPO =     1.002


          FOR POINT  576 FIRST  STRUCTURE
 DISTANCE A - B      0.010450
 HEAT               90.329625
 GRADIENT NORM       1.333026
 DIRECTION COSINE    0.513615
 geo-ok HTML
 Transition state for the reaction 1,2,3,4-nu-5,6-Dimethylenebenzene <=> 1,2-Dihydrocyclobutabenzene

  C(HETATM    1  C   HET A   1)   0.00000000 +0    0.0000000 +0    0.0000000 +0
  C(HETATM    2  C   HET A   1)   1.37252062 +1    0.0000000 +0    0.0000000 +0     1     0     0
  C(HETATM    3  C   HET A   1)   1.42709744 +1  121.5524605 +1    0.0000000 +0     2     1     0
  C(HETATM    4  C   HET A   1)   1.37262864 +1  121.5357064 +1    4.0564955 +1     3     2     1
  C(HETATM    5  C   HET A   1)   1.41341250 +1  117.4060393 +1    1.3926422 +1     4     3     2
  C(HETATM    6  C   HET A   1)   1.41349351 +1  117.4185697 +1    1.4207289 +1     1     2     3
  C(HETATM    7  C   HET A   1)   1.40603693 +1  134.4864214 +1  166.4233706 +1     6     1     2
  C(HETATM    8  C   HET A   1)   1.40614757 +1  134.5039627 +1  166.2972535 +1     5     4     3
  H(HETATM    9  H   HET A   1)   1.08500055 +1  122.3008204 +1  178.7410149 +1     1     2     3
  H(HETATM   10  H   HET A   1)   1.08866472 +1  120.4643474 +1 -179.0725684 +1     2     1     3
  H(HETATM   11  H   HET A   1)   1.08855112 +1  117.9912588 +1 -176.9530104 +1     3     2     1
  H(HETATM   12  H   HET A   1)   1.08509098 +1  122.2947768 +1  178.6987617 +1     4     3     2
  H(HETATM   13  H   HET A   1)   1.07797332 +1  122.5329323 +1 -124.1465064 +1     7     6     1
  H(HETATM   14  H   HET A   1)   1.07569602 +1  121.9245460 +1   40.0650860 +1     7     6     1
  H(HETATM   15  H   HET A   1)   1.07816953 +1  122.4447421 +1 -123.8431440 +1     8     5     4
  H(HETATM   16  H   HET A   1)   1.07547068 +1  121.9661047 +1   40.3489604 +1     8     5     4
 
 TIME=     0.02
  REACTANTS AND PRODUCTS SWAPPED AROUND
 *+*+*+*+*+*+*+*+*+*+*+*+*+*+*+*+*+*+*+*+*+*+*+*+*+*+*+*+*+*+*+*+*+*+*+*+*+*+*+*+
            BAR SHORTENED BY       1.000 PERCENT
 GRADIENT CRITERION IN FLEPO =     1.002


          FOR POINT  577 SECOND STRUCTURE
 DISTANCE A - B      0.010346
 HEAT               90.329647
 GRADIENT NORM       1.390196
 DIRECTION COSINE    0.506403
 geo-ok HTML
 Transition state for the reaction 1,2,3,4-nu-5,6-Dimethylenebenzene <=> 1,2-Dihydrocyclobutabenzene

  C(HETATM    1  C   HET A   1)   0.00000000 +0    0.0000000 +0    0.0000000 +0
  C(HETATM    2  C   HET A   1)   1.37331118 +1    0.0000000 +0    0.0000000 +0     1     0     0
  C(HETATM    3  C   HET A   1)   1.42614403 +1  121.5529983 +1    0.0000000 +0     2     1     0
  C(HETATM    4  C   HET A   1)   1.37344892 +1  121.5352503 +1    4.1384729 +1     3     2     1
  C(HETATM    5  C   HET A   1)   1.41221408 +1  117.3563483 +1    1.3400116 +1     4     3     2
  C(HETATM    6  C   HET A   1)   1.41232545 +1  117.3694787 +1    1.3574876 +1     1     2     3
  C(HETATM    7  C   HET A   1)   1.40783233 +1  134.6213161 +1  166.5942377 +1     6     1     2
  C(HETATM    8  C   HET A   1)   1.40803717 +1  134.6387881 +1  166.4282122 +1     5     4     3
  H(HETATM    9  H   HET A   1)   1.08494610 +1  122.2884490 +1  178.8092500 +1     1     2     3
  H(HETATM   10  H   HET A   1)   1.08855616 +1  120.4250941 +1 -179.0342860 +1     2     1     3
  H(HETATM   11  H   HET A   1)   1.08848589 +1  118.0265527 +1 -176.9142327 +1     3     2     1
  H(HETATM   12  H   HET A   1)   1.08503653 +1  122.2819135 +1  178.7012896 +1     4     3     2
  H(HETATM   13  H   HET A   1)   1.07759528 +1  122.5710151 +1 -123.6459717 +1     7     6     1
  H(HETATM   14  H   HET A   1)   1.07621192 +1  121.7465232 +1   39.8782893 +1     7     6     1
  H(HETATM   15  H   HET A   1)   1.07753755 +1  122.4911897 +1 -123.3178912 +1     8     5     4
  H(HETATM   16  H   HET A   1)   1.07617269 +1  121.7904358 +1   40.1730799 +1     8     5     4
 
 TIME=     0.02
  REACTANTS AND PRODUCTS SWAPPED AROUND
 *+*+*+*+*+*+*+*+*+*+*+*+*+*+*+*+*+*+*+*+*+*+*+*+*+*+*+*+*+*+*+*+*+*+*+*+*+*+*+*+
            BAR SHORTENED BY       1.000 PERCENT
 GRADIENT CRITERION IN FLEPO =     1.002


          FOR POINT  578 FIRST  STRUCTURE
 DISTANCE A - B      0.010242
 HEAT               90.329743
 GRADIENT NORM       1.313066
 DIRECTION COSINE    0.498614
 geo-ok HTML
 Transition state for the reaction 1,2,3,4-nu-5,6-Dimethylenebenzene <=> 1,2-Dihydrocyclobutabenzene

  C(HETATM    1  C   HET A   1)   0.00000000 +0    0.0000000 +0    0.0000000 +0
  C(HETATM    2  C   HET A   1)   1.37252852 +1    0.0000000 +0    0.0000000 +0     1     0     0
  C(HETATM    3  C   HET A   1)   1.42708790 +1  121.5524659 +1    0.0000000 +0     2     1     0
  C(HETATM    4  C   HET A   1)   1.37263684 +1  121.5357018 +1    4.0573159 +1     3     2     1
  C(HETATM    5  C   HET A   1)   1.41340051 +1  117.4055430 +1    1.3921153 +1     4     3     2
  C(HETATM    6  C   HET A   1)   1.41348182 +1  117.4180795 +1    1.4200958 +1     1     2     3
  C(HETATM    7  C   HET A   1)   1.40605480 +1  134.4877736 +1  166.4250791 +1     6     1     2
  C(HETATM    8  C   HET A   1)   1.40616639 +1  134.5053141 +1  166.2985631 +1     5     4     3
  H(HETATM    9  H   HET A   1)   1.08500000 +1  122.3006973 +1  178.7416974 +1     1     2     3
  H(HETATM   10  H   HET A   1)   1.08866363 +1  120.4639550 +1 -179.0721848 +1     2     1     3
  H(HETATM   11  H   HET A   1)   1.08855047 +1  117.9916117 +1 -176.9526224 +1     3     2     1
  H(HETATM   12  H   HET A   1)   1.08509044 +1  122.2946482 +1  178.6987870 +1     4     3     2
  H(HETATM   13  H   HET A   1)   1.07796932 +1  122.5333390 +1 -124.1415032 +1     7     6     1
  H(HETATM   14  H   HET A   1)   1.07570117 +1  121.9227661 +1   40.0632111 +1     7     6     1
  H(HETATM   15  H   HET A   1)   1.07816297 +1  122.4452324 +1 -123.8378955 +1     8     5     4
  H(HETATM   16  H   HET A   1)   1.07547769 +1  121.9643483 +1   40.3471947 +1     8     5     4
 
 TIME=     0.02
  REACTANTS AND PRODUCTS SWAPPED AROUND
 *+*+*+*+*+*+*+*+*+*+*+*+*+*+*+*+*+*+*+*+*+*+*+*+*+*+*+*+*+*+*+*+*+*+*+*+*+*+*+*+
            BAR SHORTENED BY       1.000 PERCENT
 GRADIENT CRITERION IN FLEPO =     1.002


          FOR POINT  579 SECOND STRUCTURE
 DISTANCE A - B      0.010140
 HEAT               90.329764
 GRADIENT NORM       1.369508
 DIRECTION COSINE    0.491257
 geo-ok HTML
 Transition state for the reaction 1,2,3,4-nu-5,6-Dimethylenebenzene <=> 1,2-Dihydrocyclobutabenzene

  C(HETATM    1  C   HET A   1)   0.00000000 +0    0.0000000 +0    0.0000000 +0
  C(HETATM    2  C   HET A   1)   1.37330335 +1    0.0000000 +0    0.0000000 +0     1     0     0
  C(HETATM    3  C   HET A   1)   1.42615347 +1  121.5529930 +1    0.0000000 +0     2     1     0
  C(HETATM    4  C   HET A   1)   1.37344080 +1  121.5352549 +1    4.1376619 +1     3     2     1
  C(HETATM    5  C   HET A   1)   1.41222594 +1  117.3568409 +1    1.3405321 +1     4     3     2
  C(HETATM    6  C   HET A   1)   1.41233701 +1  117.3699655 +1    1.3581129 +1     1     2     3
  C(HETATM    7  C   HET A   1)   1.40781447 +1  134.6199839 +1  166.5925460 +1     6     1     2
  C(HETATM    8  C   HET A   1)   1.40801838 +1  134.6374565 +1  166.4269158 +1     5     4     3
  H(HETATM    9  H   HET A   1)   1.08494663 +1  122.2885721 +1  178.8085746 +1     1     2     3
  H(HETATM   10  H   HET A   1)   1.08855723 +1  120.4254828 +1 -179.0346642 +1     2     1     3
  H(HETATM   11  H   HET A   1)   1.08848653 +1  118.0262033 +1 -176.9146163 +1     3     2     1
  H(HETATM   12  H   HET A   1)   1.08503707 +1  122.2820408 +1  178.7012646 +1     4     3     2
  H(HETATM   13  H   HET A   1)   1.07759880 +1  122.5706637 +1 -123.6509288 +1     7     6     1
  H(HETATM   14  H   HET A   1)   1.07620680 +1  121.7482860 +1   39.8801318 +1     7     6     1
  H(HETATM   15  H   HET A   1)   1.07754357 +1  122.4907555 +1 -123.3230950 +1     8     5     4
  H(HETATM   16  H   HET A   1)   1.07616573 +1  121.7921752 +1   40.1748143 +1     8     5     4
 
 TIME=     0.02
  REACTANTS AND PRODUCTS SWAPPED AROUND
 *+*+*+*+*+*+*+*+*+*+*+*+*+*+*+*+*+*+*+*+*+*+*+*+*+*+*+*+*+*+*+*+*+*+*+*+*+*+*+*+
            BAR SHORTENED BY       1.000 PERCENT
 GRADIENT CRITERION IN FLEPO =     1.002


          FOR POINT  580 FIRST  STRUCTURE
 DISTANCE A - B      0.010038
 HEAT               90.329856
 GRADIENT NORM       1.293603
 DIRECTION COSINE    0.483309
 geo-ok HTML
 Transition state for the reaction 1,2,3,4-nu-5,6-Dimethylenebenzene <=> 1,2-Dihydrocyclobutabenzene

  C(HETATM    1  C   HET A   1)   0.00000000 +0    0.0000000 +0    0.0000000 +0
  C(HETATM    2  C   HET A   1)   1.37253627 +1    0.0000000 +0    0.0000000 +0     1     0     0
  C(HETATM    3  C   HET A   1)   1.42707856 +1  121.5524712 +1    0.0000000 +0     2     1     0
  C(HETATM    4  C   HET A   1)   1.37264488 +1  121.5356973 +1    4.0581199 +1     3     2     1
  C(HETATM    5  C   HET A   1)   1.41338876 +1  117.4050566 +1    1.3915989 +1     4     3     2
  C(HETATM    6  C   HET A   1)   1.41347037 +1  117.4175990 +1    1.4194752 +1     1     2     3
  C(HETATM    7  C   HET A   1)   1.40607231 +1  134.4890989 +1  166.4267537 +1     6     1     2
  C(HETATM    8  C   HET A   1)   1.40618482 +1  134.5066386 +1  166.2998468 +1     5     4     3
  H(HETATM    9  H   HET A   1)   1.08499946 +1  122.3005767 +1  178.7423662 +1     1     2     3
  H(HETATM   10  H   HET A   1)   1.08866256 +1  120.4635704 +1 -179.0718089 +1     2     1     3
  H(HETATM   11  H   HET A   1)   1.08854983 +1  117.9919576 +1 -176.9522420 +1     3     2     1
  H(HETATM   12  H   HET A   1)   1.08508990 +1  122.2945221 +1  178.6988118 +1     4     3     2
  H(HETATM   13  H   HET A   1)   1.07796540 +1  122.5337371 +1 -124.1365994 +1     7     6     1
  H(HETATM   14  H   HET A   1)   1.07570621 +1  121.9210217 +1   40.0613737 +1     7     6     1
  H(HETATM   15  H   HET A   1)   1.07815655 +1  122.4457125 +1 -123.8327514 +1     8     5     4
  H(HETATM   16  H   HET A   1)   1.07548456 +1  121.9626269 +1   40.3454643 +1     8     5     4
 
 TIME=     0.02
  REACTANTS AND PRODUCTS SWAPPED AROUND
 *+*+*+*+*+*+*+*+*+*+*+*+*+*+*+*+*+*+*+*+*+*+*+*+*+*+*+*+*+*+*+*+*+*+*+*+*+*+*+*+
            BAR SHORTENED BY       1.000 PERCENT
 AT END OF STEPWISE ASCENT OF REACTION BARRIER

 -------------------------------------------------------------------------------
 geo-ok HTML
 Transition state for the reaction 1,2,3,4-nu-5,6-Dimethylenebenzene <=> 1,2-Dihydrocyclobutabenzene



     TRANSITION STATE LOCATED USING THE "SADDLE" TECHNIQUE    
     SCF FIELD WAS ACHIEVED                                   


                              PM7 CALCULATION
                                                       MOPAC2016 (Version: 21.151W)
                                                       Wed Jun  2 13:21:54 2021
                                                       No. of days remaining = 363




          FINAL H.O.F PLUS STRESS =         90.32986 KCAL/MOL =     377.94012 KJ/MOL
          FINAL STRESS            =          0.00000 KCAL/MOL =       0.00000 KJ/MOL
          FINAL HEAT OF FORMATION =         90.32986 KCAL/MOL =     377.94012 KJ/MOL
          TOTAL DISTORTION        =          0.00032 Angstroms
          AVERAGE DISTORTION      =          0.00002 Angstroms per atom (all atoms)
          RMS DISTORTION          =          0.00003 Angstroms per atom (all atoms)


          TOTAL ENERGY            =      -1087.46114 EV
          ELECTRONIC ENERGY       =      -5087.17874 EV  POINT GROUP:     C2  
          CORE-CORE REPULSION     =       3999.71760 EV
          COSMO AREA              =        148.90 SQUARE ANGSTROMS
          COSMO VOLUME            =        143.26 CUBIC ANGSTROMS

          GRADIENT NORM           =          0.68835 = 0.17209 PER ATOM
          IONIZATION POTENTIAL    =          8.491739 EV
          HOMO LUMO ENERGIES (EV) =         -8.492 -0.823
          NO. OF FILLED LEVELS    =         20
          MOLECULAR WEIGHT        =        104.1512

          MOLECULAR DIMENSIONS (Angstroms)

            Atom       Atom       Distance
            H    16    H    10     6.02577
            H    14    H    11     5.38771
            H    13    H    15     2.37600


          SCF CALCULATIONS        =       2249
 
          WALL-CLOCK TIME         =          9.281 SECONDS
          COMPUTATION TIME        =         36.766 SECONDS




   ATOM                 CHEMICAL                   X               Y               Z
  NUMBER                 SYMBOL               (ANGSTROMS)     (ANGSTROMS)     (ANGSTROMS)
 
     1       C(HETATM    1  C   HET A   1)   -0.15929637  *  -1.59445591  *  -0.07480119  *
     2       C(HETATM    2  C   HET A   1)    1.21323087  *  -1.58768559  *  -0.07467984  *
     3       C(HETATM    3  C   HET A   1)    1.95397864  *  -0.36793008  *  -0.07067572  *
     4       C(HETATM    4  C   HET A   1)    1.32916189  *   0.85119278  *   0.01603822  *
     5       C(HETATM    5  C   HET A   1)   -0.07944706  *   0.85347386  *   0.13201456  *
     6       C(HETATM    6  C   HET A   1)   -0.81632219  *  -0.34327605  *  -0.10186458  *
     7       C(HETATM    7  C   HET A   1)   -2.13762022  *   0.07076372  *  -0.34646769  *
     8       C(HETATM    8  C   HET A   1)   -1.03854023  *   1.82211880  *   0.47737579  *
     9       H(HETATM    9  H   HET A   1)   -0.73454397  *  -2.51411753  *  -0.09793957  *
    10       H(HETATM   10  H   HET A   1)    1.76978833  *  -2.52315155  *  -0.09287645  *
    11       H(HETATM   11  H   HET A   1)    3.03958866  *  -0.42929383  *  -0.12190782  *
    12       H(HETATM   12  H   HET A   1)    1.88114728  *   1.78506254  *   0.04090479  *
    13       H(HETATM   13  H   HET A   1)   -2.38749816  *   0.79300941  *  -1.10668028  *
    14       H(HETATM   14  H   HET A   1)   -2.98402602  *  -0.47855035  *   0.02636725  *
    15       H(HETATM   15  H   HET A   1)   -1.74183743  *   1.67865210  *   1.28186210  *
    16       H(HETATM   16  H   HET A   1)   -0.96768166  *   2.83997994  *   0.13734723  *

                             CARTESIAN COORDINATES

   1    C       -0.159296366    -1.594455915    -0.074801188
   2    C        1.213230866    -1.587685590    -0.074679838
   3    C        1.953978638    -0.367930078    -0.070675722
   4    C        1.329161891     0.851192777     0.016038223
   5    C       -0.079447061     0.853473859     0.132014560
   6    C       -0.816322188    -0.343276048    -0.101864580
   7    C       -2.137620220     0.070763721    -0.346467687
   8    C       -1.038540226     1.822118796     0.477375790
   9    H       -0.734543967    -2.514117529    -0.097939573
  10    H        1.769788326    -2.523151545    -0.092876453
  11    H        3.039588655    -0.429293831    -0.121907825
  12    H        1.881147281     1.785062540     0.040904786
  13    H       -2.387498158     0.793009410    -1.106680282
  14    H       -2.984026022    -0.478550349     0.026367246
  15    H       -1.741837426     1.678652104     1.281862099
  16    H       -0.967681663     2.839979938     0.137347227


           Empirical Formula: C8 H8  =    16 atoms



      MOLECULAR POINT GROUP   :   C2  


                  EIGENVALUES  
 -30.83732 -28.06599 -26.10735 -23.30819 -22.90626 -20.37596 -19.32923 -17.20871
 -15.95247 -15.36490 -15.33981 -14.34624 -14.05121 -13.45472 -12.69017 -12.21868
 -11.86222 -10.18461  -9.40869  -8.49174  -0.82302   0.47129   0.74168   2.53621
   4.04401   4.45526   4.88383   4.97867   5.05223   5.45295   5.54936   5.85052
   5.93618   5.97697   6.02426   6.19939   6.22395   6.24851   6.30133   6.41119


              NET ATOMIC CHARGES AND DIPOLE CONTRIBUTIONS

  ATOM NO.                 TYPE                        CHARGE      No. of ELECS.   s-Pop       p-Pop       
    1          C(HETATM    1  C   HET A   1)          -0.146896        4.1469     1.08073     3.06616
    2          C(HETATM    2  C   HET A   1)          -0.150736        4.1507     1.08346     3.06728
    3          C(HETATM    3  C   HET A   1)          -0.150907        4.1509     1.08346     3.06745
    4          C(HETATM    4  C   HET A   1)          -0.146609        4.1466     1.08076     3.06585
    5          C(HETATM    5  C   HET A   1)          -0.032091        4.0321     1.06160     2.97049
    6          C(HETATM    6  C   HET A   1)          -0.031549        4.0315     1.06162     2.96993
    7          C(HETATM    7  C   HET A   1)          -0.271646        4.2716     1.11026     3.16138
    8          C(HETATM    8  C   HET A   1)          -0.271196        4.2712     1.11036     3.16083
    9          H(HETATM    9  H   HET A   1)           0.153216        0.8468     0.84678
   10          H(HETATM   10  H   HET A   1)           0.148809        0.8512     0.85119
   11          H(HETATM   11  H   HET A   1)           0.148811        0.8512     0.85119
   12          H(HETATM   12  H   HET A   1)           0.153232        0.8468     0.84677
   13          H(HETATM   13  H   HET A   1)           0.156552        0.8434     0.84345
   14          H(HETATM   14  H   HET A   1)           0.142256        0.8577     0.85774
   15          H(HETATM   15  H   HET A   1)           0.156524        0.8435     0.84348
   16          H(HETATM   16  H   HET A   1)           0.142231        0.8578     0.85777

          NET CHARGE ON RESIDUES

      Residue         Charge  Anion or
                              Cation?
      HET A   1       +0.000
 


 DIPOLE           X         Y         Z       TOTAL
 POINT-CHG.    -0.364     0.221     0.020     0.426
 HYBRID        -0.193     0.117     0.009     0.226
 SUM           -0.557     0.338     0.029     0.652


          ATOMIC ORBITAL ELECTRON POPULATIONS

                   Atom                  s        px        py        pz   
   C(HETATM    1  C   HET A   1)   1.08073   1.01150   1.04621   1.00845
   C(HETATM    2  C   HET A   1)   1.08346   1.00687   1.05219   1.00822
   C(HETATM    3  C   HET A   1)   1.08346   1.07638   0.98296   1.00811
   C(HETATM    4  C   HET A   1)   1.08076   1.00282   1.05436   1.00867
   C(HETATM    5  C   HET A   1)   1.06160   0.97042   0.99768   1.00238
   C(HETATM    6  C   HET A   1)   1.06162   0.98484   0.98192   1.00317
   C(HETATM    7  C   HET A   1)   1.11026   1.04397   1.04608   1.07133
   C(HETATM    8  C   HET A   1)   1.11036   1.01492   1.07300   1.07291
   H(HETATM    9  H   HET A   1)   0.84678
   H(HETATM   10  H   HET A   1)   0.85119
   H(HETATM   11  H   HET A   1)   0.85119
   H(HETATM   12  H   HET A   1)   0.84677
   H(HETATM   13  H   HET A   1)   0.84345
   H(HETATM   14  H   HET A   1)   0.85774
   H(HETATM   15  H   HET A   1)   0.84348
   H(HETATM   16  H   HET A   1)   0.85777

 **********************
 *                    *
 * JOB ENDED NORMALLY *
 *                    *
 **********************



 TOTAL JOB TIME:             9.31 SECONDS

 == MOPAC DONE ==
