 *******************************************************************************
 ** Site#: 37037        For non-commercial use only           Version 21.158W **
 *******************************************************************************
 ** Cite this program as: MOPAC2016, Version: 21.158W, James J. P. Stewart,   **
 ** Stewart Computational Chemistry, web: HTTP://OpenMOPAC.net. Days left: 361**
 *******************************************************************************
 **                                                                           **
 **                                MOPAC2016                                  **
 **                                                                           **
 *******************************************************************************

                              PM7 CALCULATION RESULTS

 *******************************************************************************
 *  CALCULATION DONE:                                Fri Jun 11 08:38:08 2021  *
 *  GEO_DAT    - DATA SET GEOMETRY IS IN FILE "C2H4 plus C4H6.arc"
 *  GEO_REF    - REFERENCE GEOMETRY IS IN FILE "Cyclohexene.arc"
 *               (NO BIAS TOWARDS THE REFERENCE GEOMETRY WILL BE APPLIED)
 *  SADDLE     - TRANSITION STATE TO BE OPTIMIZED
 *  T=         - A TIME OF 172800.0 SECONDS REQUESTED
 *  DUMP=N     - RESTART FILE WRITTEN EVERY 7200.0 SECONDS REQUESTED
 *******************************************************************************
geo_dat="C2H4 plus C4H6.arc" geo_ref="Cyclohexene.arc" SADDLE
 Diels-Alder reaction of ethylene and cyclohexene

   ATOM                 CHEMICAL                   X               Y               Z
  NUMBER                 SYMBOL               (ANGSTROMS)     (ANGSTROMS)     (ANGSTROMS)
 
     1       C(HETATM    1  C1  HET A   1)   -0.57800067  *  -1.44018401  *  -1.38731826  *
     2       C(HETATM    2  C2  HET A   1)    0.63092796  *  -1.25719132  *  -0.84719246  *
     3       C(HETATM    3  C3  HET A   1)    1.35446565  *   0.00993219  *  -0.81189218  *
     4       C(HETATM    4  C4  HET A   1)    0.90216510  *   1.16880170  *  -1.30050235  *
     5       C(HETATM    5  C5  HET A   1)   -0.75145118  *   1.28639016  *   2.11888901  *
     6       C(HETATM    6  C6  HET A   1)   -1.41519208  *   0.13481175  *   2.08029712  *
     7       H(HETATM    7 1H1  HET A   1)   -1.15605222  *  -0.66044214  *  -1.85762306  *
     8       H(HETATM    8 2H1  HET A   1)   -1.08080721  *  -2.39495461  *  -1.39645511  *
     9       H(HETATM    9 1H4  HET A   1)    1.46630742  *   2.08763415  *  -1.25650440  *
    10       H(HETATM   10 2H4  HET A   1)   -0.05769513  *   1.29082320  *  -1.77670823  *
    11       H(HETATM   11  H2  HET A   1)    1.15954130  *  -2.09448828  *  -0.38197194  *
    12       H(HETATM   12  H3  HET A   1)    2.33870163  *  -0.04179742  *  -0.33710304  *
    13       H(HETATM   13 1H6  HET A   1)   -1.03901946  *  -0.78814547  *   2.49523060  *
    14       H(HETATM   14 2H6  HET A   1)   -2.38697241  *   0.02023590  *   1.62473565  *
    15       H(HETATM   15 1H5  HET A   1)    0.22421607  *   1.40047098  *   2.56741871  *
    16       H(HETATM   16 2H5  HET A   1)   -1.12894935  *   2.20705200  *   1.69967686  *
 

                        After docking

                     Atoms that move a lot

                     Atom Label             GEO_REF Coordinates       Movement    Integral

            (HETATM    8 2H1  HET A   1)  -1.244  -2.135  -0.134        1.30         1.30
            (HETATM    5  C5  HET A   1)  -0.327   1.092   0.921        1.29         2.58
            (HETATM    6  C6  HET A   1)  -1.116  -0.233   0.921        1.26         3.85
            (HETATM    9 1H4  HET A   1)   1.281   2.112  -0.137        1.16         5.00
            (HETATM    1  C1  HET A   1)  -0.855  -1.115  -0.315        1.15         6.15
            (HETATM    4  C4  HET A   1)   0.570   1.285  -0.317        1.05         7.20
            (HETATM   16 2H5  HET A   1)  -1.026   1.944   0.998        0.78         7.98
            (HETATM   15 1H5  HET A   1)   0.305   1.136   1.828        0.78         8.76
            (HETATM    7 1H1  HET A   1)  -1.429  -0.721  -1.180        0.70         9.46
            (HETATM   14 2H6  HET A   1)  -2.198  -0.023   0.995        0.70        10.16
            (HETATM   13 1H6  HET A   1)  -0.856  -0.809   1.830        0.69        10.85
            (HETATM   10 2H4  HET A   1)  -0.053   1.601  -1.180        0.66        11.51
            (HETATM   12  H3  HET A   1)   2.333   0.089  -0.903        0.52        12.02
            (HETATM   11  H2  HET A   1)   1.040  -2.094  -0.895        0.47        12.49
            (HETATM    2  C2  HET A   1)   0.599  -1.134  -0.658        0.25        12.74
            (HETATM    3  C3  HET A   1)   1.281   0.016  -0.661        0.20        12.94

     Residues that move a lot and their (Movement in Angstroms, per atom)


   Difference between GEO_DAT and GEO_REF: 12.938 = total,  0.8086 = Average,  0.8796 = RMS, in Angstroms

 General Reference for PM7:
 "Optimization of Parameters for Semiempirical Methods VI: More Modifications to the 
 NDDO Approximations and Re-optimization of Parameters", J. J. P. Stewart, J. Mol. Mod., 1:32, 19 (2013)
 https://link.springer.com/article/10.1007/s00894-012-1667-x

           Empirical Formula: C6 H10  =    16 atoms



      MOLECULAR POINT GROUP   :   C1  


      RHF CALCULATION, NO. OF DOUBLY OCCUPIED LEVELS = 17



  CARTESIAN GEOMETRY OF FIRST SYSTEM


   1    C         -0.85520      -1.11544      -0.31460
   2    C          0.59916      -1.13439      -0.65845
   3    C          1.28132       0.01576      -0.66117
   4    C          0.57036       1.28451      -0.31651
   5    C         -0.32722       1.09152       0.92091
   6    C         -1.11594      -0.23253       0.92098
   7    H         -1.42907      -0.72077      -1.18028
   8    H         -1.24449      -2.13493      -0.13407
   9    H          1.28149       2.11199      -0.13697
  10    H         -0.05252       1.60127      -1.17990
  11    H          1.03972      -2.09392      -0.89548
  12    H          2.33343       0.08930      -0.90300
  13    H         -0.85631      -0.80922       1.82953
  14    H         -2.19840      -0.02337       0.99543
  15    H          0.30482       1.13574       1.82845
  16    H         -1.02558       1.94407       0.99845


  CARTESIAN GEOMETRY OF SECOND SYSTEM


   1    C         -0.62599      -1.42150      -1.39604
   2    C          0.59576      -1.24473      -0.88339
   3    C          1.32169       0.02118      -0.85419
   4    C          0.85943       1.18488      -1.32155
   5    C         -0.71177       1.27399       2.13734
   6    C         -1.37784       0.12358       2.10444
   7    H         -1.21405      -0.63693      -1.84545
   8    H         -1.13019      -2.37556      -1.40160
   9    H          1.42573       2.10262      -1.28292
  10    H         -0.11137       1.31225      -1.77355
  11    H          1.13419      -2.08675      -0.43839
  12    H          2.31692      -0.03592      -0.40356
  13    H         -0.99312      -0.80347       2.50206
  14    H         -2.36039       0.01420       1.67126
  15    H          0.27450       1.38294       2.56339
  16    H         -1.09791       2.19879       1.73545


   "DISTANCE":     3.518364


  REACTION COORDINATE VECTOR


   1    C         -0.22921       0.30606       1.08143
   2    C          0.00340       0.11034       0.22494
   3    C         -0.04036      -0.00542       0.19302
   4    C         -0.28907       0.09963       1.00504
   5    C          0.38455      -0.18248      -1.21643
   6    C          0.26190      -0.35611      -1.18345
   7    H         -0.21503      -0.08384       0.66516
   8    H         -0.11430       0.24063       1.26753
   9    H         -0.14424       0.00936       1.14595
  10    H          0.05885       0.28902       0.59365
  11    H         -0.09447      -0.00717      -0.45709
  12    H          0.01651       0.12521      -0.49944
  13    H          0.13682      -0.00575      -0.67253
  14    H          0.16199      -0.03757      -0.67584
  15    H          0.03032      -0.24720      -0.73494
  16    H          0.07234      -0.25472      -0.73701
 *+*+*+*+*+*+*+*+*+*+*+*+*+*+*+*+*+*+*+*+*+*+*+*+*+*+*+*+*+*+*+*+*+*+*+*+*+*+*+*+
            BAR SHORTENED BY       0.000 PERCENT
 GRADIENT CRITERION IN FLEPO =     1.000


          FOR POINT    1 SECOND STRUCTURE
 DISTANCE A - B      3.518364
 HEAT               -0.585081
 GRADIENT NORM       0.698427
 DIRECTION COSINE   -0.000002

 Diels-Alder reaction of ethylene and cyclohexene

  C(HETATM    1  C1  HET A   1)   0.00000000 +0    0.0000000 +0    0.0000000 +0
  C(HETATM    2  C2  HET A   1)   1.49456888 +1    0.0000000 +0    0.0000000 +0     1     0     0
  C(HETATM    3  C3  HET A   1)   1.33723833 +1  119.0758615 +1    0.0000000 +0     2     1     0
  C(HETATM    4  C4  HET A   1)   1.49465359 +1  119.1419631 +1    0.1805028 +1     3     2     1
  C(HETATM    5  C5  HET A   1)   1.54081198 +1  110.8524769 +1   44.7281100 +1     4     3     2
  C(HETATM    6  C6  HET A   1)   1.54084147 +1  110.8803783 +1  -44.9320686 +1     1     2     3
  H(HETATM    7 1H1  HET A   1)   1.11108374 +1  109.1386732 +1   75.7711068 +1     1     2     3
  H(HETATM    8 2H1  HET A   1)   1.10611935 +1  111.6131759 +1 -167.6089145 +1     1     2     3
  H(HETATM    9 1H4  HET A   1)   1.10574046 +1  111.5161542 +1  167.3390376 +1     4     3     2
  H(HETATM   10 2H4  HET A   1)   1.11074387 +1  109.2434033 +1  -75.9847700 +1     4     3     2
  H(HETATM   11  H2  HET A   1)   1.08211711 +1  117.2462888 +1 -179.8629874 +1     2     1     3
  H(HETATM   12  H3  HET A   1)   1.08204504 +1  123.7055049 +1 -179.6913742 +1     3     2     1
  H(HETATM   13 1H6  HET A   1)   1.10699224 +1  108.6591027 +1  -79.5839918 +1     6     1     2
  H(HETATM   14 2H6  HET A   1)   1.10499281 +1  109.1627429 +1  165.4248655 +1     6     1     2
  H(HETATM   15 1H5  HET A   1)   1.10682012 +1  108.7137403 +1   79.3980990 +1     5     4     3
  H(HETATM   16 2H5  HET A   1)   1.10478844 +1  109.1436362 +1 -165.6259498 +1     5     4     3
 
 TIME=     0.01
  REACTANTS AND PRODUCTS SWAPPED AROUND
 *+*+*+*+*+*+*+*+*+*+*+*+*+*+*+*+*+*+*+*+*+*+*+*+*+*+*+*+*+*+*+*+*+*+*+*+*+*+*+*+
            BAR SHORTENED BY       1.000 PERCENT
 GRADIENT CRITERION IN FLEPO =     1.000


          FOR POINT    2 FIRST  STRUCTURE
 DISTANCE A - B      3.483180
 HEAT               40.312080
 GRADIENT NORM       2.101910
 DIRECTION COSINE    0.221394

 Diels-Alder reaction of ethylene and cyclohexene

  C(HETATM    1  C1  HET A   1)   0.00000000 +0    0.0000000 +0    0.0000000 +0
  C(HETATM    2  C2  HET A   1)   1.33685634 +1    0.0000000 +0    0.0000000 +0     1     0     0
  C(HETATM    3  C3  HET A   1)   1.45934482 +1  125.2518767 +1    0.0000000 +0     2     1     0
  C(HETATM    4  C4  HET A   1)   1.33699131 +1  125.1228155 +1    0.8654752 +1     3     2     1
  C(HETATM    5  C5  HET A   1)   3.78087904 +1   81.3395017 +1   84.1940888 +1     4     3     2
  C(HETATM    6  C6  HET A   1)   1.32935832 +1   99.5602372 +1  -55.9405562 +1     5     4     3
  H(HETATM    7 1H1  HET A   1)   1.07906418 +1  124.1175605 +1   -0.0172818 +1     1     2     3
  H(HETATM    8 2H1  HET A   1)   1.07916460 +1  123.0469637 +1 -179.8729482 +1     1     2     3
  H(HETATM    9 1H4  HET A   1)   1.07945081 +1  123.1300542 +1  179.6224014 +1     4     3     2
  H(HETATM   10 2H4  HET A   1)   1.07705571 +1  124.1035949 +1   -0.2609188 +1     4     3     2
  H(HETATM   11  H2  HET A   1)   1.09420682 +1  120.1956446 +1  179.8796583 +1     2     1     3
  H(HETATM   12  H3  HET A   1)   1.09425751 +1  114.5957029 +1 -179.3770875 +1     3     2     1
  H(HETATM   13 1H6  HET A   1)   1.07957393 +1  123.6612406 +1   95.2596041 +1     6     5     4
  H(HETATM   14 2H6  HET A   1)   1.08002755 +1  123.6413853 +1  -84.4040716 +1     6     5     4
  H(HETATM   15 1H5  HET A   1)   1.07961350 +1   89.0956590 +1   68.0215243 +1     5     4     3
  H(HETATM   16 2H5  HET A   1)   1.07991489 +1   80.1201971 +1 -178.7439414 +1     5     4     3
 
 TIME=     0.03
  REACTANTS AND PRODUCTS SWAPPED AROUND
 *+*+*+*+*+*+*+*+*+*+*+*+*+*+*+*+*+*+*+*+*+*+*+*+*+*+*+*+*+*+*+*+*+*+*+*+*+*+*+*+
            BAR SHORTENED BY       1.000 PERCENT
 GRADIENT CRITERION IN FLEPO =     1.000
 

                    SINCE COS WAS JUST RESET,THE SEARCH IS BEING ENDED


          FOR POINT    3 SECOND STRUCTURE
 DISTANCE A - B      3.448349
 HEAT               -0.376855
 GRADIENT NORM       7.755602
 DIRECTION COSINE    0.156050

 Diels-Alder reaction of ethylene and cyclohexene

  C(HETATM    1  C1  HET A   1)   0.00000000 +0    0.0000000 +0    0.0000000 +0
  C(HETATM    2  C2  HET A   1)   1.49239679 +1    0.0000000 +0    0.0000000 +0     1     0     0
  C(HETATM    3  C3  HET A   1)   1.33773504 +1  119.0614693 +1    0.0000000 +0     2     1     0
  C(HETATM    4  C4  HET A   1)   1.49539638 +1  118.8389589 +1    0.8045889 +1     3     2     1
  C(HETATM    5  C5  HET A   1)   1.54666421 +1  110.7737875 +1   45.0625904 +1     4     3     2
  C(HETATM    6  C6  HET A   1)   1.54390920 +1  110.6172360 +1  -46.2619125 +1     1     2     3
  H(HETATM    7 1H1  HET A   1)   1.11127009 +1  109.3881629 +1   75.1364329 +1     1     2     3
  H(HETATM    8 2H1  HET A   1)   1.10819365 +1  110.8763414 +1 -168.7318256 +1     1     2     3
  H(HETATM    9 1H4  HET A   1)   1.10519785 +1  111.1717626 +1  167.8648664 +1     4     3     2
  H(HETATM   10 2H4  HET A   1)   1.11174697 +1  108.9214581 +1  -75.6338665 +1     4     3     2
  H(HETATM   11  H2  HET A   1)   1.08292552 +1  117.3345633 +1 -179.9262123 +1     2     1     3
  H(HETATM   12  H3  HET A   1)   1.08203786 +1  123.7621905 +1 -179.7364741 +1     3     2     1
  H(HETATM   13 1H6  HET A   1)   1.10905061 +1  109.0313371 +1  -78.9217792 +1     6     1     2
  H(HETATM   14 2H6  HET A   1)   1.10631375 +1  109.1766907 +1  166.4887690 +1     6     1     2
  H(HETATM   15 1H5  HET A   1)   1.10776572 +1  109.0376405 +1   79.0288048 +1     5     4     3
  H(HETATM   16 2H5  HET A   1)   1.10586640 +1  109.4294158 +1 -166.0324189 +1     5     4     3
 
 *+*+*+*+*+*+*+*+*+*+*+*+*+*+*+*+*+*+*+*+*+*+*+*+*+*+*+*+*+*+*+*+*+*+*+*+*+*+*+*+
            BAR SHORTENED BY       1.000 PERCENT
 GRADIENT CRITERION IN FLEPO =     4.756


          FOR POINT    4 SECOND STRUCTURE
 DISTANCE A - B      3.413865
 HEAT               -0.198428
 GRADIENT NORM      11.958152
 DIRECTION COSINE    0.555682

 Diels-Alder reaction of ethylene and cyclohexene

  C(HETATM    1  C1  HET A   1)   0.00000000 +0    0.0000000 +0    0.0000000 +0
  C(HETATM    2  C2  HET A   1)   1.49470912 +1    0.0000000 +0    0.0000000 +0     1     0     0
  C(HETATM    3  C3  HET A   1)   1.33884584 +1  118.8052901 +1    0.0000000 +0     2     1     0
  C(HETATM    4  C4  HET A   1)   1.49539388 +1  118.7251834 +1   -0.6001302 +1     3     2     1
  C(HETATM    5  C5  HET A   1)   1.54536514 +1  110.4637935 +1   46.8357723 +1     4     3     2
  C(HETATM    6  C6  HET A   1)   1.54806086 +1  110.7426399 +1  -45.7769480 +1     1     2     3
  H(HETATM    7 1H1  HET A   1)   1.11415412 +1  108.8773967 +1   75.4461823 +1     1     2     3
  H(HETATM    8 2H1  HET A   1)   1.10343272 +1  110.5073516 +1 -168.8909216 +1     1     2     3
  H(HETATM    9 1H4  HET A   1)   1.10744659 +1  111.2367372 +1  169.9306809 +1     4     3     2
  H(HETATM   10 2H4  HET A   1)   1.11135756 +1  108.3774563 +1  -73.8329775 +1     4     3     2
  H(HETATM   11  H2  HET A   1)   1.08050286 +1  117.3289292 +1  178.3590132 +1     2     1     3
  H(HETATM   12  H3  HET A   1)   1.08078323 +1  123.5744957 +1  179.2966719 +1     3     2     1
  H(HETATM   13 1H6  HET A   1)   1.11053930 +1  109.1716318 +1  -78.7720136 +1     6     1     2
  H(HETATM   14 2H6  HET A   1)   1.10664717 +1  109.3940906 +1  166.9557262 +1     6     1     2
  H(HETATM   15 1H5  HET A   1)   1.10683931 +1  109.7414517 +1   78.4513478 +1     5     4     3
  H(HETATM   16 2H5  HET A   1)   1.10571227 +1  109.5031531 +1 -167.2022385 +1     5     4     3
 
 *+*+*+*+*+*+*+*+*+*+*+*+*+*+*+*+*+*+*+*+*+*+*+*+*+*+*+*+*+*+*+*+*+*+*+*+*+*+*+*+
            BAR SHORTENED BY       1.000 PERCENT
 GRADIENT CRITERION IN FLEPO =     8.958


          FOR POINT    5 SECOND STRUCTURE
 DISTANCE A - B      3.379726
 HEAT                0.180581
 GRADIENT NORM      21.864906
 DIRECTION COSINE    0.550917

 Diels-Alder reaction of ethylene and cyclohexene

  C(HETATM    1  C1  HET A   1)   0.00000000 +0    0.0000000 +0    0.0000000 +0
  C(HETATM    2  C2  HET A   1)   1.49329173 +1    0.0000000 +0    0.0000000 +0     1     0     0
  C(HETATM    3  C3  HET A   1)   1.33519663 +1  118.8927553 +1    0.0000000 +0     2     1     0
  C(HETATM    4  C4  HET A   1)   1.49524064 +1  118.8268823 +1   -0.1174789 +1     3     2     1
  C(HETATM    5  C5  HET A   1)   1.56029238 +1  110.2620598 +1   47.1097587 +1     4     3     2
  C(HETATM    6  C6  HET A   1)   1.54876255 +1  113.0448680 +1  -44.3529182 +1     5     4     3
  H(HETATM    7 1H1  HET A   1)   1.12192317 +1  108.9833122 +1   73.4671349 +1     1     2     3
  H(HETATM    8 2H1  HET A   1)   1.10353507 +1  110.5121649 +1 -169.8989741 +1     1     2     3
  H(HETATM    9 1H4  HET A   1)   1.10451941 +1  111.1593013 +1  170.0201685 +1     4     3     2
  H(HETATM   10 2H4  HET A   1)   1.11231135 +1  108.4441461 +1  -73.6528617 +1     4     3     2
  H(HETATM   11  H2  HET A   1)   1.08322855 +1  117.2581540 +1  179.1082847 +1     2     1     3
  H(HETATM   12  H3  HET A   1)   1.08181789 +1  123.5538418 +1  179.2122937 +1     3     2     1
  H(HETATM   13 1H6  HET A   1)   1.10913458 +1  109.3809605 +1  122.7735742 +1     6     5     4
  H(HETATM   14 2H6  HET A   1)   1.10670599 +1  110.0777536 +1 -122.5679107 +1     6     5     4
  H(HETATM   15 1H5  HET A   1)   1.10839824 +1  109.8729196 +1   78.1139206 +1     5     4     3
  H(HETATM   16 2H5  HET A   1)   1.10630914 +1  109.4910733 +1 -167.3213578 +1     5     4     3
 
 TIME=     0.12
  REACTANTS AND PRODUCTS SWAPPED AROUND
 *+*+*+*+*+*+*+*+*+*+*+*+*+*+*+*+*+*+*+*+*+*+*+*+*+*+*+*+*+*+*+*+*+*+*+*+*+*+*+*+
            BAR SHORTENED BY       0.000 PERCENT
 GRADIENT CRITERION IN FLEPO =    10.000


          FOR POINT    6 FIRST  STRUCTURE
 DISTANCE A - B      3.379726
 HEAT               40.697919
 GRADIENT NORM       2.107676
 DIRECTION COSINE   -0.206079

 Diels-Alder reaction of ethylene and cyclohexene

  C(HETATM    1  C1  HET A   1)   0.00000000 +0    0.0000000 +0    0.0000000 +0
  C(HETATM    2  C2  HET A   1)   1.33685634 +1    0.0000000 +0    0.0000000 +0     1     0     0
  C(HETATM    3  C3  HET A   1)   1.45934482 +1  125.2518767 +1    0.0000000 +0     2     1     0
  C(HETATM    4  C4  HET A   1)   1.33699131 +1  125.1228155 +1    0.8654752 +1     3     2     1
  C(HETATM    5  C5  HET A   1)   3.78087904 +1   81.3395017 +1   84.1940888 +1     4     3     2
  C(HETATM    6  C6  HET A   1)   1.32935832 +1   99.5602372 +1  -55.9405562 +1     5     4     3
  H(HETATM    7 1H1  HET A   1)   1.07906418 +1  124.1175605 +1   -0.0172818 +1     1     2     3
  H(HETATM    8 2H1  HET A   1)   1.07916460 +1  123.0469637 +1 -179.8729482 +1     1     2     3
  H(HETATM    9 1H4  HET A   1)   1.07945081 +1  123.1300542 +1  179.6224014 +1     4     3     2
  H(HETATM   10 2H4  HET A   1)   1.07705571 +1  124.1035949 +1   -0.2609188 +1     4     3     2
  H(HETATM   11  H2  HET A   1)   1.09420682 +1  120.1956446 +1  179.8796583 +1     2     1     3
  H(HETATM   12  H3  HET A   1)   1.09425751 +1  114.5957029 +1 -179.3770875 +1     3     2     1
  H(HETATM   13 1H6  HET A   1)   1.07957393 +1  123.6612406 +1   95.2596041 +1     6     5     4
  H(HETATM   14 2H6  HET A   1)   1.08002755 +1  123.6413853 +1  -84.4040716 +1     6     5     4
  H(HETATM   15 1H5  HET A   1)   1.07961350 +1   89.0956590 +1   68.0215243 +1     5     4     3
  H(HETATM   16 2H5  HET A   1)   1.07991489 +1   80.1201971 +1 -178.7439414 +1     5     4     3
 
 TIME=     0.01
  REACTANTS AND PRODUCTS SWAPPED AROUND
 *+*+*+*+*+*+*+*+*+*+*+*+*+*+*+*+*+*+*+*+*+*+*+*+*+*+*+*+*+*+*+*+*+*+*+*+*+*+*+*+
            BAR SHORTENED BY       1.000 PERCENT
 GRADIENT CRITERION IN FLEPO =    10.000


          FOR POINT    7 SECOND STRUCTURE
 DISTANCE A - B      3.345929
 HEAT                0.449570
 GRADIENT NORM      17.772627
 DIRECTION COSINE    0.111449

 Diels-Alder reaction of ethylene and cyclohexene

  C(HETATM    1  C1  HET A   1)   0.00000000 +0    0.0000000 +0    0.0000000 +0
  C(HETATM    2  C2  HET A   1)   1.49612326 +1    0.0000000 +0    0.0000000 +0     1     0     0
  C(HETATM    3  C3  HET A   1)   1.33612773 +1  118.0619311 +1    0.0000000 +0     2     1     0
  C(HETATM    4  C4  HET A   1)   1.49801234 +1  118.5111873 +1   -0.7301706 +1     3     2     1
  C(HETATM    5  C5  HET A   1)   1.55176476 +1  110.1079893 +1   48.4328747 +1     4     3     2
  C(HETATM    6  C6  HET A   1)   1.55036332 +1  110.6507964 +1  -47.4406660 +1     1     2     3
  H(HETATM    7 1H1  HET A   1)   1.10899441 +1  108.9064861 +1   74.4267558 +1     1     2     3
  H(HETATM    8 2H1  HET A   1)   1.10467365 +1  109.6814327 +1 -171.6667267 +1     1     2     3
  H(HETATM    9 1H4  HET A   1)   1.10279297 +1  110.4149824 +1  172.4138107 +1     4     3     2
  H(HETATM   10 2H4  HET A   1)   1.11823545 +1  108.3867523 +1  -72.9839000 +1     4     3     2
  H(HETATM   11  H2  HET A   1)   1.08085289 +1  117.8941801 +1  178.6269477 +1     2     1     3
  H(HETATM   12  H3  HET A   1)   1.08019279 +1  123.4953539 +1  177.9686845 +1     3     2     1
  H(HETATM   13 1H6  HET A   1)   1.10976950 +1  109.9661884 +1  -77.6831716 +1     6     1     2
  H(HETATM   14 2H6  HET A   1)   1.10431563 +1  109.8568118 +1  168.4986587 +1     6     1     2
  H(HETATM   15 1H5  HET A   1)   1.11017139 +1  110.5348391 +1   77.4406067 +1     5     4     3
  H(HETATM   16 2H5  HET A   1)   1.10932788 +1  110.0013845 +1 -168.3144005 +1     5     4     3
 
 *+*+*+*+*+*+*+*+*+*+*+*+*+*+*+*+*+*+*+*+*+*+*+*+*+*+*+*+*+*+*+*+*+*+*+*+*+*+*+*+
            BAR SHORTENED BY       1.000 PERCENT
 GRADIENT CRITERION IN FLEPO =    10.000


          FOR POINT    8 SECOND STRUCTURE
 DISTANCE A - B      3.312470
 HEAT                0.975549
 GRADIENT NORM      27.172610
 DIRECTION COSINE    0.736404

 Diels-Alder reaction of ethylene and cyclohexene

  C(HETATM    1  C1  HET A   1)   0.00000000 +0    0.0000000 +0    0.0000000 +0
  C(HETATM    2  C2  HET A   1)   1.49219921 +1    0.0000000 +0    0.0000000 +0     1     0     0
  C(HETATM    3  C3  HET A   1)   1.33610331 +1  118.2979877 +1    0.0000000 +0     2     1     0
  C(HETATM    4  C4  HET A   1)   1.49616051 +1  118.2878222 +1   -1.2269270 +1     3     2     1
  C(HETATM    5  C5  HET A   1)   1.56185516 +1  110.0091026 +1   49.3868292 +1     4     3     2
  C(HETATM    6  C6  HET A   1)   1.55195499 +1  112.6944789 +1  -45.6570148 +1     5     4     3
  H(HETATM    7 1H1  HET A   1)   1.11171917 +1  109.0780427 +1   74.0886288 +1     1     2     3
  H(HETATM    8 2H1  HET A   1)   1.10451262 +1  110.0919708 +1 -171.9166151 +1     1     2     3
  H(HETATM    9 1H4  HET A   1)   1.10352715 +1  110.4746488 +1  173.2783744 +1     4     3     2
  H(HETATM   10 2H4  HET A   1)   1.11123526 +1  108.0042646 +1  -71.1604874 +1     4     3     2
  H(HETATM   11  H2  HET A   1)   1.08180647 +1  117.6947454 +1  178.1883931 +1     2     1     3
  H(HETATM   12  H3  HET A   1)   1.08707292 +1  123.7510557 +1  178.0387142 +1     3     2     1
  H(HETATM   13 1H6  HET A   1)   1.11159766 +1  109.8466984 +1  122.6696953 +1     6     5     4
  H(HETATM   14 2H6  HET A   1)   1.10740852 +1  110.2056845 +1 -122.9682807 +1     6     5     4
  H(HETATM   15 1H5  HET A   1)   1.11469285 +1  110.4852362 +1   76.7884149 +1     5     4     3
  H(HETATM   16 2H5  HET A   1)   1.10590224 +1  110.4491390 +1 -169.0085300 +1     5     4     3
 
 *+*+*+*+*+*+*+*+*+*+*+*+*+*+*+*+*+*+*+*+*+*+*+*+*+*+*+*+*+*+*+*+*+*+*+*+*+*+*+*+
            BAR SHORTENED BY       1.000 PERCENT
 GRADIENT CRITERION IN FLEPO =    10.000


          FOR POINT    9 SECOND STRUCTURE
 DISTANCE A - B      3.279345
 HEAT                1.048043
 GRADIENT NORM      26.094256
 DIRECTION COSINE    0.807486

 Diels-Alder reaction of ethylene and cyclohexene

  C(HETATM    1  C1  HET A   1)   0.00000000 +0    0.0000000 +0    0.0000000 +0
  C(HETATM    2  C2  HET A   1)   1.49200085 +1    0.0000000 +0    0.0000000 +0     1     0     0
  C(HETATM    3  C3  HET A   1)   1.33625211 +1  118.0262926 +1    0.0000000 +0     2     1     0
  C(HETATM    4  C4  HET A   1)   1.49441361 +1  117.6588468 +1   -0.8406051 +1     3     2     1
  C(HETATM    5  C5  HET A   1)   1.55675040 +1  109.4383291 +1   51.3035582 +1     4     3     2
  C(HETATM    6  C6  HET A   1)   1.55244976 +1  111.8935716 +1  -47.9512299 +1     5     4     3
  H(HETATM    7 1H1  HET A   1)   1.11441802 +1  108.9011421 +1   69.9391714 +1     1     2     3
  H(HETATM    8 2H1  HET A   1)   1.10364648 +1  111.4005712 +1 -174.6280315 +1     1     2     3
  H(HETATM    9 1H4  HET A   1)   1.10578344 +1  110.5963950 +1  176.1563368 +1     4     3     2
  H(HETATM   10 2H4  HET A   1)   1.10610206 +1  108.9037267 +1  -69.8486425 +1     4     3     2
  H(HETATM   11  H2  HET A   1)   1.07802949 +1  117.6595105 +1  179.0942059 +1     2     1     3
  H(HETATM   12  H3  HET A   1)   1.07959717 +1  124.0129369 +1  178.5125032 +1     3     2     1
  H(HETATM   13 1H6  HET A   1)   1.10676569 +1  108.9901025 +1  122.6806170 +1     6     5     4
  H(HETATM   14 2H6  HET A   1)   1.09852445 +1  109.8659959 +1 -123.2294990 +1     6     5     4
  H(HETATM   15 1H5  HET A   1)   1.10941913 +1  110.6804219 +1   74.3579130 +1     5     4     3
  H(HETATM   16 2H5  HET A   1)   1.11183430 +1  110.4222837 +1 -170.7527941 +1     5     4     3
 
 TIME=     0.06
  REACTANTS AND PRODUCTS SWAPPED AROUND
 *+*+*+*+*+*+*+*+*+*+*+*+*+*+*+*+*+*+*+*+*+*+*+*+*+*+*+*+*+*+*+*+*+*+*+*+*+*+*+*+
            BAR SHORTENED BY       0.000 PERCENT
 GRADIENT CRITERION IN FLEPO =    10.000


          FOR POINT   10 FIRST  STRUCTURE
 DISTANCE A - B      3.279345
 HEAT               40.697919
 GRADIENT NORM       2.107676
 DIRECTION COSINE   -0.170187

 Diels-Alder reaction of ethylene and cyclohexene

  C(HETATM    1  C1  HET A   1)   0.00000000 +0    0.0000000 +0    0.0000000 +0
  C(HETATM    2  C2  HET A   1)   1.33685634 +1    0.0000000 +0    0.0000000 +0     1     0     0
  C(HETATM    3  C3  HET A   1)   1.45934482 +1  125.2518767 +1    0.0000000 +0     2     1     0
  C(HETATM    4  C4  HET A   1)   1.33699131 +1  125.1228155 +1    0.8654752 +1     3     2     1
  C(HETATM    5  C5  HET A   1)   3.78087904 +1   81.3395017 +1   84.1940888 +1     4     3     2
  C(HETATM    6  C6  HET A   1)   1.32935832 +1   99.5602372 +1  -55.9405562 +1     5     4     3
  H(HETATM    7 1H1  HET A   1)   1.07906418 +1  124.1175605 +1   -0.0172818 +1     1     2     3
  H(HETATM    8 2H1  HET A   1)   1.07916460 +1  123.0469637 +1 -179.8729482 +1     1     2     3
  H(HETATM    9 1H4  HET A   1)   1.07945081 +1  123.1300542 +1  179.6224014 +1     4     3     2
  H(HETATM   10 2H4  HET A   1)   1.07705571 +1  124.1035949 +1   -0.2609188 +1     4     3     2
  H(HETATM   11  H2  HET A   1)   1.09420682 +1  120.1956446 +1  179.8796583 +1     2     1     3
  H(HETATM   12  H3  HET A   1)   1.09425751 +1  114.5957029 +1 -179.3770875 +1     3     2     1
  H(HETATM   13 1H6  HET A   1)   1.07957393 +1  123.6612406 +1   95.2596041 +1     6     5     4
  H(HETATM   14 2H6  HET A   1)   1.08002755 +1  123.6413853 +1  -84.4040716 +1     6     5     4
  H(HETATM   15 1H5  HET A   1)   1.07961350 +1   89.0956590 +1   68.0215243 +1     5     4     3
  H(HETATM   16 2H5  HET A   1)   1.07991489 +1   80.1201971 +1 -178.7439414 +1     5     4     3
 
 TIME=     0.02
  REACTANTS AND PRODUCTS SWAPPED AROUND
 *+*+*+*+*+*+*+*+*+*+*+*+*+*+*+*+*+*+*+*+*+*+*+*+*+*+*+*+*+*+*+*+*+*+*+*+*+*+*+*+
            BAR SHORTENED BY       1.000 PERCENT
 GRADIENT CRITERION IN FLEPO =    10.000


          FOR POINT   11 SECOND STRUCTURE
 DISTANCE A - B      3.246552
 HEAT                1.723451
 GRADIENT NORM      30.714057
 DIRECTION COSINE    0.126352

 Diels-Alder reaction of ethylene and cyclohexene

  C(HETATM    1  C1  HET A   1)   0.00000000 +0    0.0000000 +0    0.0000000 +0
  C(HETATM    2  C2  HET A   1)   1.49483384 +1    0.0000000 +0    0.0000000 +0     1     0     0
  C(HETATM    3  C3  HET A   1)   1.33943382 +1  117.5463137 +1    0.0000000 +0     2     1     0
  C(HETATM    4  C4  HET A   1)   1.49659408 +1  117.4626634 +1   -0.7769468 +1     3     2     1
  C(HETATM    5  C5  HET A   1)   1.56906600 +1  109.4832132 +1   51.5192788 +1     4     3     2
  C(HETATM    6  C6  HET A   1)   1.55360495 +1  111.5904334 +1  -47.9888507 +1     5     4     3
  H(HETATM    7 1H1  HET A   1)   1.10958918 +1  108.6240776 +1   70.7811832 +1     1     2     3
  H(HETATM    8 2H1  HET A   1)   1.11586260 +1  110.0251820 +1 -175.4912370 +1     1     2     3
  H(HETATM    9 1H4  HET A   1)   1.10300560 +1  110.8023299 +1  176.8935345 +1     4     3     2
  H(HETATM   10 2H4  HET A   1)   1.11548998 +1  108.7150964 +1  -69.2471905 +1     4     3     2
  H(HETATM   11  H2  HET A   1)   1.07922160 +1  118.3836478 +1  178.3383856 +1     2     1     3
  H(HETATM   12  H3  HET A   1)   1.07483591 +1  124.0943442 +1  177.6472155 +1     3     2     1
  H(HETATM   13 1H6  HET A   1)   1.11059396 +1  109.3498482 +1  122.9371331 +1     6     5     4
  H(HETATM   14 2H6  HET A   1)   1.10525935 +1  110.3911806 +1 -123.4407152 +1     6     5     4
  H(HETATM   15 1H5  HET A   1)   1.10979812 +1  110.7406919 +1   74.3910710 +1     5     4     3
  H(HETATM   16 2H5  HET A   1)   1.10657015 +1  110.6515045 +1 -170.9670515 +1     5     4     3
 
 *+*+*+*+*+*+*+*+*+*+*+*+*+*+*+*+*+*+*+*+*+*+*+*+*+*+*+*+*+*+*+*+*+*+*+*+*+*+*+*+
            BAR SHORTENED BY       1.000 PERCENT
 GRADIENT CRITERION IN FLEPO =    10.000


          FOR POINT   12 SECOND STRUCTURE
 DISTANCE A - B      3.214086
 HEAT                2.634959
 GRADIENT NORM      37.482461
 DIRECTION COSINE    0.811486

 Diels-Alder reaction of ethylene and cyclohexene

  C(HETATM    1  C1  HET A   1)   0.00000000 +0    0.0000000 +0    0.0000000 +0
  C(HETATM    2  C2  HET A   1)   1.49318751 +1    0.0000000 +0    0.0000000 +0     1     0     0
  C(HETATM    3  C3  HET A   1)   1.33699180 +1  117.6573097 +1    0.0000000 +0     2     1     0
  C(HETATM    4  C4  HET A   1)   1.50032988 +1  117.3519930 +1   -1.3048527 +1     3     2     1
  C(HETATM    5  C5  HET A   1)   1.56836832 +1  109.0192555 +1   52.9457586 +1     4     3     2
  C(HETATM    6  C6  HET A   1)   1.55659454 +1  111.4003653 +1  -48.9889731 +1     5     4     3
  H(HETATM    7 1H1  HET A   1)   1.11569602 +1  108.7664825 +1   70.3230204 +1     1     2     3
  H(HETATM    8 2H1  HET A   1)   1.10647788 +1  110.1609385 +1 -175.9561865 +1     1     2     3
  H(HETATM    9 1H4  HET A   1)   1.11117632 +1  110.1808328 +1  178.0040926 +1     4     3     2
  H(HETATM   10 2H4  HET A   1)   1.11044133 +1  108.2680987 +1  -68.2792006 +1     4     3     2
  H(HETATM   11  H2  HET A   1)   1.07970941 +1  118.0758326 +1  177.6445680 +1     2     1     3
  H(HETATM   12  H3  HET A   1)   1.07816772 +1  123.8572055 +1  177.7192079 +1     3     2     1
  H(HETATM   13 1H6  HET A   1)   1.11152472 +1  109.4796292 +1  123.1907659 +1     6     5     4
  H(HETATM   14 2H6  HET A   1)   1.10775827 +1  110.5094827 +1 -122.9550403 +1     6     5     4
  H(HETATM   15 1H5  HET A   1)   1.11254773 +1  111.4907992 +1   73.7609953 +1     5     4     3
  H(HETATM   16 2H5  HET A   1)   1.09209062 +1  110.2351957 +1 -173.0240229 +1     5     4     3
 
 *+*+*+*+*+*+*+*+*+*+*+*+*+*+*+*+*+*+*+*+*+*+*+*+*+*+*+*+*+*+*+*+*+*+*+*+*+*+*+*+
            BAR SHORTENED BY       1.000 PERCENT
 GRADIENT CRITERION IN FLEPO =    10.000


          FOR POINT   13 SECOND STRUCTURE
 DISTANCE A - B      3.181945
 HEAT                3.655555
 GRADIENT NORM      44.163500
 DIRECTION COSINE    0.894739

 Diels-Alder reaction of ethylene and cyclohexene

  C(HETATM    1  C1  HET A   1)   0.00000000 +0    0.0000000 +0    0.0000000 +0
  C(HETATM    2  C2  HET A   1)   1.49395696 +1    0.0000000 +0    0.0000000 +0     1     0     0
  C(HETATM    3  C3  HET A   1)   1.33771837 +1  117.0833739 +1    0.0000000 +0     2     1     0
  C(HETATM    4  C4  HET A   1)   1.49379484 +1  117.6586396 +1   -0.7271232 +1     3     2     1
  C(HETATM    5  C5  HET A   1)   1.58505048 +1  108.8378687 +1   52.8487563 +1     4     3     2
  C(HETATM    6  C6  HET A   1)   1.55537511 +1  111.1987449 +1  -49.0796338 +1     5     4     3
  H(HETATM    7 1H1  HET A   1)   1.11023027 +1  108.9497300 +1   70.3364207 +1     1     2     3
  H(HETATM    8 2H1  HET A   1)   1.11610075 +1  109.2687393 +1 -176.7822585 +1     1     2     3
  H(HETATM    9 1H4  HET A   1)   1.10469441 +1  110.4744209 +1  178.2188338 +1     4     3     2
  H(HETATM   10 2H4  HET A   1)   1.11610243 +1  108.1913485 +1  -67.9621227 +1     4     3     2
  H(HETATM   11  H2  HET A   1)   1.08109445 +1  118.4957788 +1  177.8071446 +1     2     1     3
  H(HETATM   12  H3  HET A   1)   1.07833141 +1  123.6619776 +1  177.0114764 +1     3     2     1
  H(HETATM   13 1H6  HET A   1)   1.11269481 +1  109.5451145 +1  123.5298695 +1     6     5     4
  H(HETATM   14 2H6  HET A   1)   1.10729439 +1  110.6002641 +1 -123.0382192 +1     6     5     4
  H(HETATM   15 1H5  HET A   1)   1.11209027 +1  111.5561454 +1   73.8406840 +1     5     4     3
  H(HETATM   16 2H5  HET A   1)   1.10066306 +1  110.1856206 +1 -172.8553161 +1     5     4     3
 
 TIME=     0.05
  REACTANTS AND PRODUCTS SWAPPED AROUND
 *+*+*+*+*+*+*+*+*+*+*+*+*+*+*+*+*+*+*+*+*+*+*+*+*+*+*+*+*+*+*+*+*+*+*+*+*+*+*+*+
            BAR SHORTENED BY       0.000 PERCENT
 GRADIENT CRITERION IN FLEPO =    10.000


          FOR POINT   14 FIRST  STRUCTURE
 DISTANCE A - B      3.181945
 HEAT               40.697919
 GRADIENT NORM       2.107676
 DIRECTION COSINE    0.027539

 Diels-Alder reaction of ethylene and cyclohexene

  C(HETATM    1  C1  HET A   1)   0.00000000 +0    0.0000000 +0    0.0000000 +0
  C(HETATM    2  C2  HET A   1)   1.33685634 +1    0.0000000 +0    0.0000000 +0     1     0     0
  C(HETATM    3  C3  HET A   1)   1.45934482 +1  125.2518767 +1    0.0000000 +0     2     1     0
  C(HETATM    4  C4  HET A   1)   1.33699131 +1  125.1228155 +1    0.8654752 +1     3     2     1
  C(HETATM    5  C5  HET A   1)   3.78087904 +1   81.3395017 +1   84.1940888 +1     4     3     2
  C(HETATM    6  C6  HET A   1)   1.32935832 +1   99.5602372 +1  -55.9405562 +1     5     4     3
  H(HETATM    7 1H1  HET A   1)   1.07906418 +1  124.1175605 +1   -0.0172818 +1     1     2     3
  H(HETATM    8 2H1  HET A   1)   1.07916460 +1  123.0469637 +1 -179.8729482 +1     1     2     3
  H(HETATM    9 1H4  HET A   1)   1.07945081 +1  123.1300542 +1  179.6224014 +1     4     3     2
  H(HETATM   10 2H4  HET A   1)   1.07705571 +1  124.1035949 +1   -0.2609188 +1     4     3     2
  H(HETATM   11  H2  HET A   1)   1.09420682 +1  120.1956446 +1  179.8796583 +1     2     1     3
  H(HETATM   12  H3  HET A   1)   1.09425751 +1  114.5957029 +1 -179.3770875 +1     3     2     1
  H(HETATM   13 1H6  HET A   1)   1.07957393 +1  123.6612406 +1   95.2596041 +1     6     5     4
  H(HETATM   14 2H6  HET A   1)   1.08002755 +1  123.6413853 +1  -84.4040716 +1     6     5     4
  H(HETATM   15 1H5  HET A   1)   1.07961350 +1   89.0956590 +1   68.0215243 +1     5     4     3
  H(HETATM   16 2H5  HET A   1)   1.07991489 +1   80.1201971 +1 -178.7439414 +1     5     4     3
 
 TIME=     0.01
  REACTANTS AND PRODUCTS SWAPPED AROUND
 *+*+*+*+*+*+*+*+*+*+*+*+*+*+*+*+*+*+*+*+*+*+*+*+*+*+*+*+*+*+*+*+*+*+*+*+*+*+*+*+
            BAR SHORTENED BY       1.000 PERCENT
 GRADIENT CRITERION IN FLEPO =    10.000


          FOR POINT   15 SECOND STRUCTURE
 DISTANCE A - B      3.150126
 HEAT                4.977839
 GRADIENT NORM      55.094477
 DIRECTION COSINE   -0.008826

 Diels-Alder reaction of ethylene and cyclohexene

  C(HETATM    1  C1  HET A   1)   0.00000000 +0    0.0000000 +0    0.0000000 +0
  C(HETATM    2  C2  HET A   1)   1.49186266 +1    0.0000000 +0    0.0000000 +0     1     0     0
  C(HETATM    3  C3  HET A   1)   1.34069022 +1  117.8802542 +1    0.0000000 +0     2     1     0
  C(HETATM    4  C4  HET A   1)   1.49996006 +1  116.9198130 +1   -0.0831177 +1     3     2     1
  C(HETATM    5  C5  HET A   1)   1.59968849 +1  108.8326280 +1   53.1859084 +1     4     3     2
  C(HETATM    6  C6  HET A   1)   1.55582264 +1  110.6772807 +1  -49.7253722 +1     5     4     3
  H(HETATM    7 1H1  HET A   1)   1.11245624 +1  109.2332308 +1   69.0407540 +1     1     2     3
  H(HETATM    8 2H1  HET A   1)   1.10975049 +1  109.4648044 +1 -177.5821703 +1     1     2     3
  H(HETATM    9 1H4  HET A   1)   1.10313165 +1  110.3084222 +1  178.3529101 +1     4     3     2
  H(HETATM   10 2H4  HET A   1)   1.11773501 +1  108.4472147 +1  -67.8235454 +1     4     3     2
  H(HETATM   11  H2  HET A   1)   1.08352521 +1  118.1962670 +1  178.8799234 +1     2     1     3
  H(HETATM   12  H3  HET A   1)   1.07112760 +1  124.1309719 +1  176.8425363 +1     3     2     1
  H(HETATM   13 1H6  HET A   1)   1.11509397 +1  109.7879239 +1  123.6453865 +1     6     5     4
  H(HETATM   14 2H6  HET A   1)   1.10144677 +1  110.7978374 +1 -123.2800004 +1     6     5     4
  H(HETATM   15 1H5  HET A   1)   1.11291308 +1  111.7113035 +1   73.0598400 +1     5     4     3
  H(HETATM   16 2H5  HET A   1)   1.10130224 +1  110.3840966 +1 -173.1454052 +1     5     4     3
 
 TIME=     0.02
  REACTANTS AND PRODUCTS SWAPPED AROUND
 *+*+*+*+*+*+*+*+*+*+*+*+*+*+*+*+*+*+*+*+*+*+*+*+*+*+*+*+*+*+*+*+*+*+*+*+*+*+*+*+
            BAR SHORTENED BY       1.000 PERCENT
 GRADIENT CRITERION IN FLEPO =    10.000


          FOR POINT   16 FIRST  STRUCTURE
 DISTANCE A - B      3.118625
 HEAT               40.722911
 GRADIENT NORM       6.941083
 DIRECTION COSINE    0.259077

 Diels-Alder reaction of ethylene and cyclohexene

  C(HETATM    1  C1  HET A   1)   0.00000000 +0    0.0000000 +0    0.0000000 +0
  C(HETATM    2  C2  HET A   1)   1.33600056 +1    0.0000000 +0    0.0000000 +0     1     0     0
  C(HETATM    3  C3  HET A   1)   1.45815142 +1  125.2262182 +1    0.0000000 +0     2     1     0
  C(HETATM    4  C4  HET A   1)   1.33653801 +1  125.1016291 +1    0.8618353 +1     3     2     1
  C(HETATM    5  C5  HET A   1)   3.75880761 +1   81.6567471 +1   83.9043174 +1     4     3     2
  C(HETATM    6  C6  HET A   1)   1.33161814 +1   99.6176773 +1  -55.9286724 +1     5     4     3
  H(HETATM    7 1H1  HET A   1)   1.07808008 +1  124.2521729 +1    0.7612034 +1     1     2     3
  H(HETATM    8 2H1  HET A   1)   1.07942129 +1  122.9623450 +1 -179.8920656 +1     1     2     3
  H(HETATM    9 1H4  HET A   1)   1.07961064 +1  123.0668026 +1  179.6429150 +1     4     3     2
  H(HETATM   10 2H4  HET A   1)   1.07619802 +1  124.1985334 +1   -1.0512039 +1     4     3     2
  H(HETATM   11  H2  HET A   1)   1.09245144 +1  120.0849911 +1  179.7592449 +1     2     1     3
  H(HETATM   12  H3  HET A   1)   1.09254571 +1  114.7136674 +1 -179.5098693 +1     3     2     1
  H(HETATM   13 1H6  HET A   1)   1.07822156 +1  123.5589775 +1   95.5947929 +1     6     5     4
  H(HETATM   14 2H6  HET A   1)   1.07832574 +1  123.5604804 +1  -84.7924277 +1     6     5     4
  H(HETATM   15 1H5  HET A   1)   1.07837519 +1   89.3627720 +1   68.0023930 +1     5     4     3
  H(HETATM   16 2H5  HET A   1)   1.07842568 +1   80.4221333 +1 -178.6846557 +1     5     4     3
 
 TIME=     0.02
  REACTANTS AND PRODUCTS SWAPPED AROUND
 *+*+*+*+*+*+*+*+*+*+*+*+*+*+*+*+*+*+*+*+*+*+*+*+*+*+*+*+*+*+*+*+*+*+*+*+*+*+*+*+
            BAR SHORTENED BY       1.000 PERCENT
 GRADIENT CRITERION IN FLEPO =     3.941


          FOR POINT   17 SECOND STRUCTURE
 DISTANCE A - B      3.087438
 HEAT                5.086385
 GRADIENT NORM      44.015101
 DIRECTION COSINE    0.204065

 Diels-Alder reaction of ethylene and cyclohexene

  C(HETATM    1  C1  HET A   1)   0.00000000 +0    0.0000000 +0    0.0000000 +0
  C(HETATM    2  C2  HET A   1)   1.49685395 +1    0.0000000 +0    0.0000000 +0     1     0     0
  C(HETATM    3  C3  HET A   1)   1.33917605 +1  116.4877052 +1    0.0000000 +0     2     1     0
  C(HETATM    4  C4  HET A   1)   1.49549258 +1  116.7567699 +1   -0.3212226 +1     3     2     1
  C(HETATM    5  C5  HET A   1)   1.58270160 +1  107.7739388 +1   55.7151776 +1     4     3     2
  C(HETATM    6  C6  HET A   1)   1.55876481 +1  110.1923869 +1  -51.7157635 +1     5     4     3
  H(HETATM    7 1H1  HET A   1)   1.11492214 +1  109.6062029 +1   65.4192556 +1     1     2     3
  H(HETATM    8 2H1  HET A   1)   1.10391699 +1  110.9395563 +1  178.3008083 +1     1     2     3
  H(HETATM    9 1H4  HET A   1)   1.10174480 +1  111.3392885 +1 -176.6184016 +1     4     3     2
  H(HETATM   10 2H4  HET A   1)   1.11392773 +1  108.8817162 +1  -64.1287989 +1     4     3     2
  H(HETATM   11  H2  HET A   1)   1.07835076 +1  118.9280023 +1  176.7505104 +1     2     1     3
  H(HETATM   12  H3  HET A   1)   1.07589547 +1  124.0957555 +1  176.0455910 +1     3     2     1
  H(HETATM   13 1H6  HET A   1)   1.10926801 +1  109.0313247 +1  122.2767254 +1     6     5     4
  H(HETATM   14 2H6  HET A   1)   1.10058897 +1  110.4959263 +1 -123.9581244 +1     6     5     4
  H(HETATM   15 1H5  HET A   1)   1.10775778 +1  111.8363639 +1   70.7307946 +1     5     4     3
  H(HETATM   16 2H5  HET A   1)   1.10816220 +1  111.7656824 +1 -175.0221258 +1     5     4     3
 
 *+*+*+*+*+*+*+*+*+*+*+*+*+*+*+*+*+*+*+*+*+*+*+*+*+*+*+*+*+*+*+*+*+*+*+*+*+*+*+*+
            BAR SHORTENED BY       1.000 PERCENT
 GRADIENT CRITERION IN FLEPO =    10.000


          FOR POINT   18 SECOND STRUCTURE
 DISTANCE A - B      3.056564
 HEAT                6.505154
 GRADIENT NORM      53.576956
 DIRECTION COSINE    0.965894

 Diels-Alder reaction of ethylene and cyclohexene

  C(HETATM    1  C1  HET A   1)   0.00000000 +0    0.0000000 +0    0.0000000 +0
  C(HETATM    2  C2  HET A   1)   1.49395830 +1    0.0000000 +0    0.0000000 +0     1     0     0
  C(HETATM    3  C3  HET A   1)   1.33522189 +1  116.4935186 +1    0.0000000 +0     2     1     0
  C(HETATM    4  C4  HET A   1)   1.49818322 +1  116.8548342 +1   -0.6685393 +1     3     2     1
  C(HETATM    5  C5  HET A   1)   1.59689545 +1  107.5930028 +1   56.3368369 +1     4     3     2
  C(HETATM    6  C6  HET A   1)   1.55802472 +1  109.8609488 +1  -51.7930012 +1     5     4     3
  H(HETATM    7 1H1  HET A   1)   1.11645281 +1  109.6548087 +1   65.4284527 +1     1     2     3
  H(HETATM    8 2H1  HET A   1)   1.10716561 +1  110.9035108 +1  178.2756240 +1     1     2     3
  H(HETATM    9 1H4  HET A   1)   1.10392031 +1  110.8902933 +1 -176.3087845 +1     4     3     2
  H(HETATM   10 2H4  HET A   1)   1.11262423 +1  108.8732704 +1  -63.7461942 +1     4     3     2
  H(HETATM   11  H2  HET A   1)   1.08036574 +1  118.7724220 +1  176.0746340 +1     2     1     3
  H(HETATM   12  H3  HET A   1)   1.07855484 +1  123.9618820 +1  175.8063904 +1     3     2     1
  H(HETATM   13 1H6  HET A   1)   1.10994890 +1  109.3609661 +1  122.4933740 +1     6     5     4
  H(HETATM   14 2H6  HET A   1)   1.10316601 +1  110.4752266 +1 -123.8042012 +1     6     5     4
  H(HETATM   15 1H5  HET A   1)   1.11169441 +1  111.7737952 +1   70.4731799 +1     5     4     3
  H(HETATM   16 2H5  HET A   1)   1.10680913 +1  111.5452039 +1 -175.4603392 +1     5     4     3
 
 *+*+*+*+*+*+*+*+*+*+*+*+*+*+*+*+*+*+*+*+*+*+*+*+*+*+*+*+*+*+*+*+*+*+*+*+*+*+*+*+
            BAR SHORTENED BY       1.000 PERCENT
 GRADIENT CRITERION IN FLEPO =    10.000


          FOR POINT   19 SECOND STRUCTURE
 DISTANCE A - B      3.025998
 HEAT                8.045421
 GRADIENT NORM      54.221035
 DIRECTION COSINE    0.963960

 Diels-Alder reaction of ethylene and cyclohexene

  C(HETATM    1  C1  HET A   1)   0.00000000 +0    0.0000000 +0    0.0000000 +0
  C(HETATM    2  C2  HET A   1)   1.49653723 +1    0.0000000 +0    0.0000000 +0     1     0     0
  C(HETATM    3  C3  HET A   1)   1.33630833 +1  116.1727144 +1    0.0000000 +0     2     1     0
  C(HETATM    4  C4  HET A   1)   1.49694438 +1  116.8964282 +1   -0.7952828 +1     3     2     1
  C(HETATM    5  C5  HET A   1)   1.60036507 +1  107.6351723 +1   56.4839942 +1     4     3     2
  C(HETATM    6  C6  HET A   1)   1.56012255 +1  109.6098227 +1  -51.9196871 +1     5     4     3
  H(HETATM    7 1H1  HET A   1)   1.11853403 +1  108.4894542 +1   66.0082757 +1     1     2     3
  H(HETATM    8 2H1  HET A   1)   1.10963044 +1  109.8432815 +1  176.6710522 +1     1     2     3
  H(HETATM    9 1H4  HET A   1)   1.10043844 +1  110.5927093 +1 -175.0903445 +1     4     3     2
  H(HETATM   10 2H4  HET A   1)   1.12059980 +1  108.5386936 +1  -63.4672322 +1     4     3     2
  H(HETATM   11  H2  HET A   1)   1.07852061 +1  119.0078533 +1  175.2333524 +1     2     1     3
  H(HETATM   12  H3  HET A   1)   1.07736679 +1  123.9178743 +1  174.8083145 +1     3     2     1
  H(HETATM   13 1H6  HET A   1)   1.11585110 +1  109.6908183 +1  123.1969778 +1     6     5     4
  H(HETATM   14 2H6  HET A   1)   1.10692406 +1  111.1408544 +1 -124.5862577 +1     6     5     4
  H(HETATM   15 1H5  HET A   1)   1.11412508 +1  112.0731960 +1   71.1780403 +1     5     4     3
  H(HETATM   16 2H5  HET A   1)   1.10959729 +1  112.0098089 +1 -175.4025055 +1     5     4     3
 
 TIME=     0.10
  REACTANTS AND PRODUCTS SWAPPED AROUND
 *+*+*+*+*+*+*+*+*+*+*+*+*+*+*+*+*+*+*+*+*+*+*+*+*+*+*+*+*+*+*+*+*+*+*+*+*+*+*+*+
            BAR SHORTENED BY       0.000 PERCENT
 GRADIENT CRITERION IN FLEPO =    10.000


          FOR POINT   20 FIRST  STRUCTURE
 DISTANCE A - B      3.025998
 HEAT               40.722911
 GRADIENT NORM       6.940840
 DIRECTION COSINE    0.220390

 Diels-Alder reaction of ethylene and cyclohexene

  C(HETATM    1  C1  HET A   1)   0.00000000 +0    0.0000000 +0    0.0000000 +0
  C(HETATM    2  C2  HET A   1)   1.33600056 +1    0.0000000 +0    0.0000000 +0     1     0     0
  C(HETATM    3  C3  HET A   1)   1.45815142 +1  125.2262182 +1    0.0000000 +0     2     1     0
  C(HETATM    4  C4  HET A   1)   1.33653801 +1  125.1016291 +1    0.8618353 +1     3     2     1
  C(HETATM    5  C5  HET A   1)   3.75880761 +1   81.6567471 +1   83.9043174 +1     4     3     2
  C(HETATM    6  C6  HET A   1)   1.33161814 +1   99.6176773 +1  -55.9286724 +1     5     4     3
  H(HETATM    7 1H1  HET A   1)   1.07808008 +1  124.2521729 +1    0.7612034 +1     1     2     3
  H(HETATM    8 2H1  HET A   1)   1.07942129 +1  122.9623450 +1 -179.8920656 +1     1     2     3
  H(HETATM    9 1H4  HET A   1)   1.07961064 +1  123.0668026 +1  179.6429150 +1     4     3     2
  H(HETATM   10 2H4  HET A   1)   1.07619802 +1  124.1985334 +1   -1.0512039 +1     4     3     2
  H(HETATM   11  H2  HET A   1)   1.09245144 +1  120.0849911 +1  179.7592449 +1     2     1     3
  H(HETATM   12  H3  HET A   1)   1.09254571 +1  114.7136674 +1 -179.5098693 +1     3     2     1
  H(HETATM   13 1H6  HET A   1)   1.07822156 +1  123.5589775 +1   95.5947929 +1     6     5     4
  H(HETATM   14 2H6  HET A   1)   1.07832574 +1  123.5604804 +1  -84.7924277 +1     6     5     4
  H(HETATM   15 1H5  HET A   1)   1.07837519 +1   89.3627720 +1   68.0023930 +1     5     4     3
  H(HETATM   16 2H5  HET A   1)   1.07842568 +1   80.4221333 +1 -178.6846557 +1     5     4     3
 
 TIME=     0.01
  REACTANTS AND PRODUCTS SWAPPED AROUND
 *+*+*+*+*+*+*+*+*+*+*+*+*+*+*+*+*+*+*+*+*+*+*+*+*+*+*+*+*+*+*+*+*+*+*+*+*+*+*+*+
            BAR SHORTENED BY       1.000 PERCENT
 GRADIENT CRITERION IN FLEPO =     3.941


          FOR POINT   21 SECOND STRUCTURE
 DISTANCE A - B      2.995738
 HEAT                9.705744
 GRADIENT NORM      59.062860
 DIRECTION COSINE    0.188189

 Diels-Alder reaction of ethylene and cyclohexene

  C(HETATM    1  C1  HET A   1)   0.00000000 +0    0.0000000 +0    0.0000000 +0
  C(HETATM    2  C2  HET A   1)   1.49386569 +1    0.0000000 +0    0.0000000 +0     1     0     0
  C(HETATM    3  C3  HET A   1)   1.33712488 +1  116.2000453 +1    0.0000000 +0     2     1     0
  C(HETATM    4  C4  HET A   1)   1.49718690 +1  116.7408534 +1   -0.7220077 +1     3     2     1
  C(HETATM    5  C5  HET A   1)   1.60469076 +1  107.3682780 +1   57.1182151 +1     4     3     2
  C(HETATM    6  C6  HET A   1)   1.56297269 +1  109.4291155 +1  -52.3664534 +1     5     4     3
  H(HETATM    7 1H1  HET A   1)   1.11773156 +1  109.1342683 +1   65.5392814 +1     1     2     3
  H(HETATM    8 2H1  HET A   1)   1.10835566 +1  109.5818017 +1  175.1352022 +1     1     2     3
  H(HETATM    9 1H4  HET A   1)   1.10433713 +1  110.2987300 +1 -174.3005294 +1     4     3     2
  H(HETATM   10 2H4  HET A   1)   1.11916256 +1  108.5928954 +1  -62.8617519 +1     4     3     2
  H(HETATM   11  H2  HET A   1)   1.07789227 +1  119.0226905 +1  175.2168021 +1     2     1     3
  H(HETATM   12  H3  HET A   1)   1.07633272 +1  123.9635834 +1  174.9625723 +1     3     2     1
  H(HETATM   13 1H6  HET A   1)   1.11292888 +1  109.5704759 +1  123.6101307 +1     6     5     4
  H(HETATM   14 2H6  HET A   1)   1.10568245 +1  110.5337327 +1 -124.5746671 +1     6     5     4
  H(HETATM   15 1H5  HET A   1)   1.11512291 +1  112.5276620 +1   70.3637410 +1     5     4     3
  H(HETATM   16 2H5  HET A   1)   1.11252033 +1  112.5714763 +1 -176.0121477 +1     5     4     3
 
 *+*+*+*+*+*+*+*+*+*+*+*+*+*+*+*+*+*+*+*+*+*+*+*+*+*+*+*+*+*+*+*+*+*+*+*+*+*+*+*+
            BAR SHORTENED BY       1.000 PERCENT
 GRADIENT CRITERION IN FLEPO =    10.000


          FOR POINT   22 SECOND STRUCTURE
 DISTANCE A - B      2.965781
 HEAT               11.630940
 GRADIENT NORM      70.329546
 DIRECTION COSINE    0.989232

 Diels-Alder reaction of ethylene and cyclohexene

  C(HETATM    1  C1  HET A   1)   0.00000000 +0    0.0000000 +0    0.0000000 +0
  C(HETATM    2  C2  HET A   1)   1.49035971 +1    0.0000000 +0    0.0000000 +0     1     0     0
  C(HETATM    3  C3  HET A   1)   1.33833233 +1  116.3079940 +1    0.0000000 +0     2     1     0
  C(HETATM    4  C4  HET A   1)   1.49396534 +1  116.8496068 +1   -0.7120984 +1     3     2     1
  C(HETATM    5  C5  HET A   1)   1.62578003 +1  107.1970701 +1   57.4524598 +1     4     3     2
  C(HETATM    6  C6  HET A   1)   1.56065596 +1  109.2211559 +1  -52.4887180 +1     5     4     3
  H(HETATM    7 1H1  HET A   1)   1.11617500 +1  109.4482778 +1   65.1376435 +1     1     2     3
  H(HETATM    8 2H1  HET A   1)   1.10799340 +1  109.7582419 +1  175.1597089 +1     1     2     3
  H(HETATM    9 1H4  HET A   1)   1.10395354 +1  110.4771092 +1 -174.3332576 +1     4     3     2
  H(HETATM   10 2H4  HET A   1)   1.11764173 +1  108.8869685 +1  -62.4686318 +1     4     3     2
  H(HETATM   11  H2  HET A   1)   1.07682659 +1  118.9689684 +1  175.1666646 +1     2     1     3
  H(HETATM   12  H3  HET A   1)   1.07534487 +1  123.9027580 +1  174.9205872 +1     3     2     1
  H(HETATM   13 1H6  HET A   1)   1.11103170 +1  109.7218192 +1  123.4212584 +1     6     5     4
  H(HETATM   14 2H6  HET A   1)   1.10337004 +1  110.6882564 +1 -124.2060827 +1     6     5     4
  H(HETATM   15 1H5  HET A   1)   1.11330871 +1  112.4083222 +1   70.2108412 +1     5     4     3
  H(HETATM   16 2H5  HET A   1)   1.11029933 +1  112.3138611 +1 -176.0111640 +1     5     4     3
 
 *+*+*+*+*+*+*+*+*+*+*+*+*+*+*+*+*+*+*+*+*+*+*+*+*+*+*+*+*+*+*+*+*+*+*+*+*+*+*+*+
            BAR SHORTENED BY       1.000 PERCENT
 GRADIENT CRITERION IN FLEPO =    10.000


          FOR POINT   23 SECOND STRUCTURE
 DISTANCE A - B      2.936123
 HEAT               13.652769
 GRADIENT NORM      73.270726
 DIRECTION COSINE    0.985790

 Diels-Alder reaction of ethylene and cyclohexene

  C(HETATM    1  C1  HET A   1)   0.00000000 +0    0.0000000 +0    0.0000000 +0
  C(HETATM    2  C2  HET A   1)   1.48957682 +1    0.0000000 +0    0.0000000 +0     1     0     0
  C(HETATM    3  C3  HET A   1)   1.33800090 +1  116.3696412 +1    0.0000000 +0     2     1     0
  C(HETATM    4  C4  HET A   1)   1.49728385 +1  116.6320960 +1   -0.4820037 +1     3     2     1
  C(HETATM    5  C5  HET A   1)   1.62878613 +1  107.2022622 +1   57.8806720 +1     4     3     2
  C(HETATM    6  C6  HET A   1)   1.56298259 +1  108.7748143 +1  -53.1148207 +1     5     4     3
  H(HETATM    7 1H1  HET A   1)   1.12069212 +1  109.1503577 +1   64.7119788 +1     1     2     3
  H(HETATM    8 2H1  HET A   1)   1.10689133 +1  109.0952654 +1  174.5463328 +1     1     2     3
  H(HETATM    9 1H4  HET A   1)   1.11022573 +1  109.7538362 +1 -173.6669621 +1     4     3     2
  H(HETATM   10 2H4  HET A   1)   1.11951694 +1  108.6794569 +1  -62.6440109 +1     4     3     2
  H(HETATM   11  H2  HET A   1)   1.07902273 +1  118.9547683 +1  174.8775388 +1     2     1     3
  H(HETATM   12  H3  HET A   1)   1.07524240 +1  123.7000503 +1  174.0691260 +1     3     2     1
  H(HETATM   13 1H6  HET A   1)   1.12064590 +1  109.6634780 +1  124.1356478 +1     6     5     4
  H(HETATM   14 2H6  HET A   1)   1.10719342 +1  111.0029741 +1 -124.4848263 +1     6     5     4
  H(HETATM   15 1H5  HET A   1)   1.11652078 +1  113.0077995 +1   70.0935938 +1     5     4     3
  H(HETATM   16 2H5  HET A   1)   1.11096016 +1  112.4822471 +1 -176.4143899 +1     5     4     3
 
 TIME=     0.06
  REACTANTS AND PRODUCTS SWAPPED AROUND
 *+*+*+*+*+*+*+*+*+*+*+*+*+*+*+*+*+*+*+*+*+*+*+*+*+*+*+*+*+*+*+*+*+*+*+*+*+*+*+*+
            BAR SHORTENED BY       0.000 PERCENT
 GRADIENT CRITERION IN FLEPO =    10.000


          FOR POINT   24 FIRST  STRUCTURE
 DISTANCE A - B      2.936123
 HEAT               40.339504
 GRADIENT NORM       6.991436
 DIRECTION COSINE    0.223443

 Diels-Alder reaction of ethylene and cyclohexene

  C(HETATM    1  C1  HET A   1)   0.00000000 +0    0.0000000 +0    0.0000000 +0
  C(HETATM    2  C2  HET A   1)   1.33600056 +1    0.0000000 +0    0.0000000 +0     1     0     0
  C(HETATM    3  C3  HET A   1)   1.45815142 +1  125.2262182 +1    0.0000000 +0     2     1     0
  C(HETATM    4  C4  HET A   1)   1.33653801 +1  125.1016291 +1    0.8618353 +1     3     2     1
  C(HETATM    5  C5  HET A   1)   3.75880761 +1   81.6567471 +1   83.9043174 +1     4     3     2
  C(HETATM    6  C6  HET A   1)   1.33161814 +1   99.6176773 +1  -55.9286724 +1     5     4     3
  H(HETATM    7 1H1  HET A   1)   1.07808008 +1  124.2521729 +1    0.7612034 +1     1     2     3
  H(HETATM    8 2H1  HET A   1)   1.07942129 +1  122.9623450 +1 -179.8920656 +1     1     2     3
  H(HETATM    9 1H4  HET A   1)   1.07961064 +1  123.0668026 +1  179.6429150 +1     4     3     2
  H(HETATM   10 2H4  HET A   1)   1.07619802 +1  124.1985334 +1   -1.0512039 +1     4     3     2
  H(HETATM   11  H2  HET A   1)   1.09245144 +1  120.0849911 +1  179.7592449 +1     2     1     3
  H(HETATM   12  H3  HET A   1)   1.09254571 +1  114.7136674 +1 -179.5098693 +1     3     2     1
  H(HETATM   13 1H6  HET A   1)   1.07822156 +1  123.5589775 +1   95.5947929 +1     6     5     4
  H(HETATM   14 2H6  HET A   1)   1.07832574 +1  123.5604804 +1  -84.7924277 +1     6     5     4
  H(HETATM   15 1H5  HET A   1)   1.07837519 +1   89.3627720 +1   68.0023930 +1     5     4     3
  H(HETATM   16 2H5  HET A   1)   1.07842568 +1   80.4221333 +1 -178.6846557 +1     5     4     3
 
 TIME=     0.01
  REACTANTS AND PRODUCTS SWAPPED AROUND
 *+*+*+*+*+*+*+*+*+*+*+*+*+*+*+*+*+*+*+*+*+*+*+*+*+*+*+*+*+*+*+*+*+*+*+*+*+*+*+*+
            BAR SHORTENED BY       1.000 PERCENT
 GRADIENT CRITERION IN FLEPO =     3.991


          FOR POINT   25 SECOND STRUCTURE
 DISTANCE A - B      2.906762
 HEAT               15.703472
 GRADIENT NORM      78.691787
 DIRECTION COSINE    0.228947

 Diels-Alder reaction of ethylene and cyclohexene

  C(HETATM    1  C1  HET A   1)   0.00000000 +0    0.0000000 +0    0.0000000 +0
  C(HETATM    2  C2  HET A   1)   1.48921837 +1    0.0000000 +0    0.0000000 +0     1     0     0
  C(HETATM    3  C3  HET A   1)   1.33738003 +1  116.3210822 +1    0.0000000 +0     2     1     0
  C(HETATM    4  C4  HET A   1)   1.49413931 +1  116.8505520 +1   -0.5928281 +1     3     2     1
  C(HETATM    5  C5  HET A   1)   1.64006087 +1  106.9140561 +1   58.1791474 +1     4     3     2
  C(HETATM    6  C6  HET A   1)   1.56229674 +1  108.7972583 +1  -52.9880425 +1     5     4     3
  H(HETATM    7 1H1  HET A   1)   1.11927152 +1  109.3446069 +1   64.6465374 +1     1     2     3
  H(HETATM    8 2H1  HET A   1)   1.11182490 +1  109.1650035 +1  174.2982331 +1     1     2     3
  H(HETATM    9 1H4  HET A   1)   1.10659998 +1  109.9521281 +1 -172.5827681 +1     4     3     2
  H(HETATM   10 2H4  HET A   1)   1.12129532 +1  108.1778323 +1  -61.5740208 +1     4     3     2
  H(HETATM   11  H2  HET A   1)   1.07962337 +1  118.9717682 +1  174.6427800 +1     2     1     3
  H(HETATM   12  H3  HET A   1)   1.07632989 +1  123.6652369 +1  172.1743771 +1     3     2     1
  H(HETATM   13 1H6  HET A   1)   1.11484417 +1  109.8972325 +1  124.0308177 +1     6     5     4
  H(HETATM   14 2H6  HET A   1)   1.11066988 +1  110.7626302 +1 -125.4158794 +1     6     5     4
  H(HETATM   15 1H5  HET A   1)   1.11812981 +1  112.8429909 +1   70.0841328 +1     5     4     3
  H(HETATM   16 2H5  HET A   1)   1.10085291 +1  112.3569284 +1 -177.3627999 +1     5     4     3
 
 *+*+*+*+*+*+*+*+*+*+*+*+*+*+*+*+*+*+*+*+*+*+*+*+*+*+*+*+*+*+*+*+*+*+*+*+*+*+*+*+
            BAR SHORTENED BY       1.000 PERCENT
 GRADIENT CRITERION IN FLEPO =    10.000


          FOR POINT   26 SECOND STRUCTURE
 DISTANCE A - B      2.877694
 HEAT               18.095730
 GRADIENT NORM      84.612990
 DIRECTION COSINE    0.974131

 Diels-Alder reaction of ethylene and cyclohexene

  C(HETATM    1  C1  HET A   1)   0.00000000 +0    0.0000000 +0    0.0000000 +0
  C(HETATM    2  C2  HET A   1)   1.48880917 +1    0.0000000 +0    0.0000000 +0     1     0     0
  C(HETATM    3  C3  HET A   1)   1.34115955 +1  116.4612716 +1    0.0000000 +0     2     1     0
  C(HETATM    4  C4  HET A   1)   1.49689227 +1  115.9722604 +1   -1.1136234 +1     3     2     1
  C(HETATM    5  C5  HET A   1)   1.64685679 +1  106.8026126 +1   59.6415033 +1     4     3     2
  C(HETATM    6  C6  HET A   1)   1.56435668 +1  108.4354336 +1  -54.2845218 +1     5     4     3
  H(HETATM    7 1H1  HET A   1)   1.11684515 +1  109.4349082 +1   64.7116979 +1     1     2     3
  H(HETATM    8 2H1  HET A   1)   1.11176441 +1  109.0430157 +1  174.0796031 +1     1     2     3
  H(HETATM    9 1H4  HET A   1)   1.10357589 +1  108.6507569 +1 -171.8421467 +1     4     3     2
  H(HETATM   10 2H4  HET A   1)   1.11433981 +1  109.1458645 +1  -61.6964454 +1     4     3     2
  H(HETATM   11  H2  HET A   1)   1.07925601 +1  119.0339969 +1  173.6658858 +1     2     1     3
  H(HETATM   12  H3  HET A   1)   1.07330808 +1  123.7260977 +1  172.8253568 +1     3     2     1
  H(HETATM   13 1H6  HET A   1)   1.11469037 +1  109.7784930 +1  124.3557345 +1     6     5     4
  H(HETATM   14 2H6  HET A   1)   1.10683740 +1  110.8551750 +1 -124.4927276 +1     6     5     4
  H(HETATM   15 1H5  HET A   1)   1.11905448 +1  113.5379659 +1   68.9972220 +1     5     4     3
  H(HETATM   16 2H5  HET A   1)   1.11020076 +1  112.3898177 +1 -178.2298078 +1     5     4     3
 
 *+*+*+*+*+*+*+*+*+*+*+*+*+*+*+*+*+*+*+*+*+*+*+*+*+*+*+*+*+*+*+*+*+*+*+*+*+*+*+*+
            BAR SHORTENED BY       1.000 PERCENT
 GRADIENT CRITERION IN FLEPO =    10.000


          FOR POINT   27 SECOND STRUCTURE
 DISTANCE A - B      2.848917
 HEAT               20.437732
 GRADIENT NORM      88.926683
 DIRECTION COSINE    0.984850

 Diels-Alder reaction of ethylene and cyclohexene

  C(HETATM    1  C1  HET A   1)   0.00000000 +0    0.0000000 +0    0.0000000 +0
  C(HETATM    2  C2  HET A   1)   1.48779030 +1    0.0000000 +0    0.0000000 +0     1     0     0
  C(HETATM    3  C3  HET A   1)   1.33754010 +1  116.5886005 +1    0.0000000 +0     2     1     0
  C(HETATM    4  C4  HET A   1)   1.49177138 +1  116.3214522 +1   -0.5219572 +1     3     2     1
  C(HETATM    5  C5  HET A   1)   1.66225347 +1  106.7414859 +1   59.3518539 +1     4     3     2
  C(HETATM    6  C6  HET A   1)   1.56020082 +1  108.3420709 +1  -54.0182143 +1     5     4     3
  H(HETATM    7 1H1  HET A   1)   1.11842951 +1  109.7609053 +1   63.8740106 +1     1     2     3
  H(HETATM    8 2H1  HET A   1)   1.11256840 +1  109.2000751 +1  173.3285990 +1     1     2     3
  H(HETATM    9 1H4  HET A   1)   1.10688719 +1  109.4192091 +1 -171.4459631 +1     4     3     2
  H(HETATM   10 2H4  HET A   1)   1.12158542 +1  109.1022490 +1  -61.4131011 +1     4     3     2
  H(HETATM   11  H2  HET A   1)   1.07994859 +1  118.9027586 +1  174.2403198 +1     2     1     3
  H(HETATM   12  H3  HET A   1)   1.07642413 +1  123.7753834 +1  172.8987416 +1     3     2     1
  H(HETATM   13 1H6  HET A   1)   1.11627976 +1  110.0397152 +1  124.1349786 +1     6     5     4
  H(HETATM   14 2H6  HET A   1)   1.10627179 +1  111.2001574 +1 -124.5402518 +1     6     5     4
  H(HETATM   15 1H5  HET A   1)   1.11970679 +1  113.2737201 +1   69.2248115 +1     5     4     3
  H(HETATM   16 2H5  HET A   1)   1.11076167 +1  112.6860025 +1 -177.9052829 +1     5     4     3
 
 TIME=     0.06
  REACTANTS AND PRODUCTS SWAPPED AROUND
 *+*+*+*+*+*+*+*+*+*+*+*+*+*+*+*+*+*+*+*+*+*+*+*+*+*+*+*+*+*+*+*+*+*+*+*+*+*+*+*+
            BAR SHORTENED BY       0.000 PERCENT
 GRADIENT CRITERION IN FLEPO =    10.000


          FOR POINT   28 FIRST  STRUCTURE
 DISTANCE A - B      2.848917
 HEAT               40.722911
 GRADIENT NORM       6.991436
 DIRECTION COSINE    0.245294

 Diels-Alder reaction of ethylene and cyclohexene

  C(HETATM    1  C1  HET A   1)   0.00000000 +0    0.0000000 +0    0.0000000 +0
  C(HETATM    2  C2  HET A   1)   1.33600056 +1    0.0000000 +0    0.0000000 +0     1     0     0
  C(HETATM    3  C3  HET A   1)   1.45815142 +1  125.2262182 +1    0.0000000 +0     2     1     0
  C(HETATM    4  C4  HET A   1)   1.33653801 +1  125.1016291 +1    0.8618353 +1     3     2     1
  C(HETATM    5  C5  HET A   1)   3.75880761 +1   81.6567471 +1   83.9043174 +1     4     3     2
  C(HETATM    6  C6  HET A   1)   1.33161814 +1   99.6176773 +1  -55.9286724 +1     5     4     3
  H(HETATM    7 1H1  HET A   1)   1.07808008 +1  124.2521729 +1    0.7612034 +1     1     2     3
  H(HETATM    8 2H1  HET A   1)   1.07942129 +1  122.9623450 +1 -179.8920656 +1     1     2     3
  H(HETATM    9 1H4  HET A   1)   1.07961064 +1  123.0668026 +1  179.6429150 +1     4     3     2
  H(HETATM   10 2H4  HET A   1)   1.07619802 +1  124.1985334 +1   -1.0512039 +1     4     3     2
  H(HETATM   11  H2  HET A   1)   1.09245144 +1  120.0849911 +1  179.7592449 +1     2     1     3
  H(HETATM   12  H3  HET A   1)   1.09254571 +1  114.7136674 +1 -179.5098693 +1     3     2     1
  H(HETATM   13 1H6  HET A   1)   1.07822156 +1  123.5589775 +1   95.5947929 +1     6     5     4
  H(HETATM   14 2H6  HET A   1)   1.07832574 +1  123.5604804 +1  -84.7924277 +1     6     5     4
  H(HETATM   15 1H5  HET A   1)   1.07837519 +1   89.3627720 +1   68.0023930 +1     5     4     3
  H(HETATM   16 2H5  HET A   1)   1.07842568 +1   80.4221333 +1 -178.6846557 +1     5     4     3
 
 TIME=     0.01
  REACTANTS AND PRODUCTS SWAPPED AROUND
 *+*+*+*+*+*+*+*+*+*+*+*+*+*+*+*+*+*+*+*+*+*+*+*+*+*+*+*+*+*+*+*+*+*+*+*+*+*+*+*+
            BAR SHORTENED BY       1.000 PERCENT
 GRADIENT CRITERION IN FLEPO =     3.991


          FOR POINT   29 SECOND STRUCTURE
 DISTANCE A - B      2.820428
 HEAT               22.777068
 GRADIENT NORM      92.307150
 DIRECTION COSINE    0.217123

 Diels-Alder reaction of ethylene and cyclohexene

  C(HETATM    1  C1  HET A   1)   0.00000000 +0    0.0000000 +0    0.0000000 +0
  C(HETATM    2  C2  HET A   1)   1.48516112 +1    0.0000000 +0    0.0000000 +0     1     0     0
  C(HETATM    3  C3  HET A   1)   1.33980410 +1  116.5418173 +1    0.0000000 +0     2     1     0
  C(HETATM    4  C4  HET A   1)   1.49028983 +1  116.6682571 +1   -0.9146113 +1     3     2     1
  C(HETATM    5  C5  HET A   1)   1.67359410 +1  106.4096401 +1   59.7580985 +1     4     3     2
  C(HETATM    6  C6  HET A   1)   1.56608211 +1  108.0522699 +1  -53.9032155 +1     5     4     3
  H(HETATM    7 1H1  HET A   1)   1.12096243 +1  109.4251825 +1   63.4915134 +1     1     2     3
  H(HETATM    8 2H1  HET A   1)   1.11143549 +1  109.3170589 +1  172.4921024 +1     1     2     3
  H(HETATM    9 1H4  HET A   1)   1.10967907 +1  109.8121355 +1 -170.0864567 +1     4     3     2
  H(HETATM   10 2H4  HET A   1)   1.12048846 +1  108.5116648 +1  -60.1260519 +1     4     3     2
  H(HETATM   11  H2  HET A   1)   1.08245131 +1  119.0171607 +1  173.3713751 +1     2     1     3
  H(HETATM   12  H3  HET A   1)   1.07701506 +1  123.4050880 +1  173.0027904 +1     3     2     1
  H(HETATM   13 1H6  HET A   1)   1.11892302 +1  109.7313697 +1  124.5100524 +1     6     5     4
  H(HETATM   14 2H6  HET A   1)   1.10785555 +1  110.6857955 +1 -125.0365760 +1     6     5     4
  H(HETATM   15 1H5  HET A   1)   1.12037603 +1  113.4421372 +1   69.2650281 +1     5     4     3
  H(HETATM   16 2H5  HET A   1)   1.10867695 +1  112.9221341 +1 -178.1415040 +1     5     4     3
 
 *+*+*+*+*+*+*+*+*+*+*+*+*+*+*+*+*+*+*+*+*+*+*+*+*+*+*+*+*+*+*+*+*+*+*+*+*+*+*+*+
            BAR SHORTENED BY       1.000 PERCENT
 GRADIENT CRITERION IN FLEPO =    10.000


          FOR POINT   30 SECOND STRUCTURE
 DISTANCE A - B      2.792224
 HEAT               25.387693
 GRADIENT NORM      96.819560
 DIRECTION COSINE    0.992859

 Diels-Alder reaction of ethylene and cyclohexene

  C(HETATM    1  C1  HET A   1)   0.00000000 +0    0.0000000 +0    0.0000000 +0
  C(HETATM    2  C2  HET A   1)   1.48540070 +1    0.0000000 +0    0.0000000 +0     1     0     0
  C(HETATM    3  C3  HET A   1)   1.33669147 +1  116.5977908 +1    0.0000000 +0     2     1     0
  C(HETATM    4  C4  HET A   1)   1.49227964 +1  116.7460307 +1   -0.4612985 +1     3     2     1
  C(HETATM    5  C5  HET A   1)   1.68596501 +1  106.1845707 +1   59.8846241 +1     4     3     2
  C(HETATM    6  C6  HET A   1)   1.56038862 +1  108.1193656 +1  -54.0791634 +1     5     4     3
  H(HETATM    7 1H1  HET A   1)   1.11998855 +1  109.8613908 +1   63.0871970 +1     1     2     3
  H(HETATM    8 2H1  HET A   1)   1.11441892 +1  109.3942202 +1  172.2329967 +1     1     2     3
  H(HETATM    9 1H4  HET A   1)   1.10876304 +1  109.6603873 +1 -170.0204625 +1     4     3     2
  H(HETATM   10 2H4  HET A   1)   1.12063672 +1  108.7387825 +1  -60.2552903 +1     4     3     2
  H(HETATM   11  H2  HET A   1)   1.07954337 +1  119.0158301 +1  173.5902286 +1     2     1     3
  H(HETATM   12  H3  HET A   1)   1.07599068 +1  123.2892453 +1  172.9179242 +1     3     2     1
  H(HETATM   13 1H6  HET A   1)   1.12037577 +1  110.5961806 +1  124.1748619 +1     6     5     4
  H(HETATM   14 2H6  HET A   1)   1.10711061 +1  111.2092633 +1 -124.2360319 +1     6     5     4
  H(HETATM   15 1H5  HET A   1)   1.12065268 +1  113.3480144 +1   69.3458103 +1     5     4     3
  H(HETATM   16 2H5  HET A   1)   1.11209312 +1  112.6991296 +1 -178.1934141 +1     5     4     3
 
 *+*+*+*+*+*+*+*+*+*+*+*+*+*+*+*+*+*+*+*+*+*+*+*+*+*+*+*+*+*+*+*+*+*+*+*+*+*+*+*+
            BAR SHORTENED BY       1.000 PERCENT
 GRADIENT CRITERION IN FLEPO =    10.000


          FOR POINT   31 SECOND STRUCTURE
 DISTANCE A - B      2.764302
 HEAT               28.156013
 GRADIENT NORM     102.283736
 DIRECTION COSINE    0.998328

 Diels-Alder reaction of ethylene and cyclohexene

  C(HETATM    1  C1  HET A   1)   0.00000000 +0    0.0000000 +0    0.0000000 +0
  C(HETATM    2  C2  HET A   1)   1.48221107 +1    0.0000000 +0    0.0000000 +0     1     0     0
  C(HETATM    3  C3  HET A   1)   1.33790432 +1  116.7006827 +1    0.0000000 +0     2     1     0
  C(HETATM    4  C4  HET A   1)   1.48925526 +1  116.8508405 +1   -0.4514881 +1     3     2     1
  C(HETATM    5  C5  HET A   1)   1.70637186 +1  106.0124136 +1   60.1645965 +1     4     3     2
  C(HETATM    6  C6  HET A   1)   1.55809819 +1  107.9480424 +1  -54.1608738 +1     5     4     3
  H(HETATM    7 1H1  HET A   1)   1.11844430 +1  110.1587944 +1   62.6917924 +1     1     2     3
  H(HETATM    8 2H1  HET A   1)   1.11392564 +1  109.5811233 +1  172.2799015 +1     1     2     3
  H(HETATM    9 1H4  HET A   1)   1.10821732 +1  109.8564953 +1 -170.0872162 +1     4     3     2
  H(HETATM   10 2H4  HET A   1)   1.11912988 +1  109.0237083 +1  -59.8777961 +1     4     3     2
  H(HETATM   11  H2  HET A   1)   1.07871934 +1  118.9735985 +1  173.5648089 +1     2     1     3
  H(HETATM   12  H3  HET A   1)   1.07528611 +1  123.2262175 +1  172.9068211 +1     3     2     1
  H(HETATM   13 1H6  HET A   1)   1.11848115 +1  110.7380375 +1  123.9653062 +1     6     5     4
  H(HETATM   14 2H6  HET A   1)   1.10477934 +1  111.3592663 +1 -123.8864004 +1     6     5     4
  H(HETATM   15 1H5  HET A   1)   1.11883553 +1  113.1981547 +1   69.2271720 +1     5     4     3
  H(HETATM   16 2H5  HET A   1)   1.10985214 +1  112.4395744 +1 -178.1733986 +1     5     4     3
 
 TIME=     0.06
  REACTANTS AND PRODUCTS SWAPPED AROUND
 *+*+*+*+*+*+*+*+*+*+*+*+*+*+*+*+*+*+*+*+*+*+*+*+*+*+*+*+*+*+*+*+*+*+*+*+*+*+*+*+
            BAR SHORTENED BY       0.000 PERCENT
 GRADIENT CRITERION IN FLEPO =    10.000


          FOR POINT   32 FIRST  STRUCTURE
 DISTANCE A - B      2.764302
 HEAT               40.339504
 GRADIENT NORM       6.991436
 DIRECTION COSINE    0.244776

 Diels-Alder reaction of ethylene and cyclohexene

  C(HETATM    1  C1  HET A   1)   0.00000000 +0    0.0000000 +0    0.0000000 +0
  C(HETATM    2  C2  HET A   1)   1.33600056 +1    0.0000000 +0    0.0000000 +0     1     0     0
  C(HETATM    3  C3  HET A   1)   1.45815142 +1  125.2262182 +1    0.0000000 +0     2     1     0
  C(HETATM    4  C4  HET A   1)   1.33653801 +1  125.1016291 +1    0.8618353 +1     3     2     1
  C(HETATM    5  C5  HET A   1)   3.75880761 +1   81.6567471 +1   83.9043174 +1     4     3     2
  C(HETATM    6  C6  HET A   1)   1.33161814 +1   99.6176773 +1  -55.9286724 +1     5     4     3
  H(HETATM    7 1H1  HET A   1)   1.07808008 +1  124.2521729 +1    0.7612034 +1     1     2     3
  H(HETATM    8 2H1  HET A   1)   1.07942129 +1  122.9623450 +1 -179.8920656 +1     1     2     3
  H(HETATM    9 1H4  HET A   1)   1.07961064 +1  123.0668026 +1  179.6429150 +1     4     3     2
  H(HETATM   10 2H4  HET A   1)   1.07619802 +1  124.1985334 +1   -1.0512039 +1     4     3     2
  H(HETATM   11  H2  HET A   1)   1.09245144 +1  120.0849911 +1  179.7592449 +1     2     1     3
  H(HETATM   12  H3  HET A   1)   1.09254571 +1  114.7136674 +1 -179.5098693 +1     3     2     1
  H(HETATM   13 1H6  HET A   1)   1.07822156 +1  123.5589775 +1   95.5947929 +1     6     5     4
  H(HETATM   14 2H6  HET A   1)   1.07832574 +1  123.5604804 +1  -84.7924277 +1     6     5     4
  H(HETATM   15 1H5  HET A   1)   1.07837519 +1   89.3627720 +1   68.0023930 +1     5     4     3
  H(HETATM   16 2H5  HET A   1)   1.07842568 +1   80.4221333 +1 -178.6846557 +1     5     4     3
 
 TIME=     0.01
  REACTANTS AND PRODUCTS SWAPPED AROUND
 *+*+*+*+*+*+*+*+*+*+*+*+*+*+*+*+*+*+*+*+*+*+*+*+*+*+*+*+*+*+*+*+*+*+*+*+*+*+*+*+
            BAR SHORTENED BY       1.000 PERCENT
 GRADIENT CRITERION IN FLEPO =     3.991
 

                    SINCE COS WAS JUST RESET,THE SEARCH IS BEING ENDED


          FOR POINT   33 SECOND STRUCTURE
 DISTANCE A - B      2.736659
 HEAT               31.162479
 GRADIENT NORM     107.213694
 DIRECTION COSINE    0.243741

 Diels-Alder reaction of ethylene and cyclohexene

  C(HETATM    1  C1  HET A   1)   0.00000000 +0    0.0000000 +0    0.0000000 +0
  C(HETATM    2  C2  HET A   1)   1.47908189 +1    0.0000000 +0    0.0000000 +0     1     0     0
  C(HETATM    3  C3  HET A   1)   1.33910508 +1  116.8026149 +1    0.0000000 +0     2     1     0
  C(HETATM    4  C4  HET A   1)   1.48628592 +1  116.9545377 +1   -0.4416736 +1     3     2     1
  C(HETATM    5  C5  HET A   1)   1.72658851 +1  105.8393581 +1   60.4387710 +1     4     3     2
  C(HETATM    6  C6  HET A   1)   1.55583072 +1  107.7821600 +1  -54.2391854 +1     5     4     3
  H(HETATM    7 1H1  HET A   1)   1.11693599 +1  110.4522566 +1   62.2957737 +1     1     2     3
  H(HETATM    8 2H1  HET A   1)   1.11344005 +1  109.7658841 +1  172.3268721 +1     1     2     3
  H(HETATM    9 1H4  HET A   1)   1.10768193 +1  110.0501925 +1 -170.1539465 +1     4     3     2
  H(HETATM   10 2H4  HET A   1)   1.11765747 +1  109.3049691 +1  -59.4999153 +1     4     3     2
  H(HETATM   11  H2  HET A   1)   1.07792194 +1  118.9326227 +1  173.5409708 +1     2     1     3
  H(HETATM   12  H3  HET A   1)   1.07460550 +1  123.1632463 +1  172.8973670 +1     3     2     1
  H(HETATM   13 1H6  HET A   1)   1.11663184 +1  110.8786549 +1  123.7555202 +1     6     5     4
  H(HETATM   14 2H6  HET A   1)   1.10250738 +1  111.5079091 +1 -123.5394712 +1     6     5     4
  H(HETATM   15 1H5  HET A   1)   1.11706160 +1  113.0459742 +1   69.1138870 +1     5     4     3
  H(HETATM   16 2H5  HET A   1)   1.10766721 +1  112.1797380 +1 -178.1547343 +1     5     4     3
 
 *+*+*+*+*+*+*+*+*+*+*+*+*+*+*+*+*+*+*+*+*+*+*+*+*+*+*+*+*+*+*+*+*+*+*+*+*+*+*+*+
            BAR SHORTENED BY       1.000 PERCENT
 GRADIENT CRITERION IN FLEPO =    10.000


          FOR POINT   34 SECOND STRUCTURE
 DISTANCE A - B      2.709292
 HEAT               34.046583
 GRADIENT NORM     109.380492
 DIRECTION COSINE    0.993660

 Diels-Alder reaction of ethylene and cyclohexene

  C(HETATM    1  C1  HET A   1)   0.00000000 +0    0.0000000 +0    0.0000000 +0
  C(HETATM    2  C2  HET A   1)   1.48019286 +1    0.0000000 +0    0.0000000 +0     1     0     0
  C(HETATM    3  C3  HET A   1)   1.33546122 +1  116.8252624 +1    0.0000000 +0     2     1     0
  C(HETATM    4  C4  HET A   1)   1.48687534 +1  117.1717586 +1   -0.7181256 +1     3     2     1
  C(HETATM    5  C5  HET A   1)   1.73931235 +1  105.5208315 +1   60.8370956 +1     4     3     2
  C(HETATM    6  C6  HET A   1)   1.55057791 +1  107.7430508 +1  -54.3621904 +1     5     4     3
  H(HETATM    7 1H1  HET A   1)   1.11705239 +1  110.3543596 +1   62.2740283 +1     1     2     3
  H(HETATM    8 2H1  HET A   1)   1.11027237 +1  109.0155972 +1  172.4027236 +1     1     2     3
  H(HETATM    9 1H4  HET A   1)   1.10560571 +1  110.0912246 +1 -169.7011704 +1     4     3     2
  H(HETATM   10 2H4  HET A   1)   1.11968433 +1  109.2822361 +1  -58.9929361 +1     4     3     2
  H(HETATM   11  H2  HET A   1)   1.08074219 +1  118.7911271 +1  172.9648317 +1     2     1     3
  H(HETATM   12  H3  HET A   1)   1.07763330 +1  123.0277276 +1  172.7532925 +1     3     2     1
  H(HETATM   13 1H6  HET A   1)   1.11727731 +1  110.9974344 +1  124.0020944 +1     6     5     4
  H(HETATM   14 2H6  HET A   1)   1.10457104 +1  111.9221999 +1 -123.3707778 +1     6     5     4
  H(HETATM   15 1H5  HET A   1)   1.11924311 +1  113.0785274 +1   69.3568925 +1     5     4     3
  H(HETATM   16 2H5  HET A   1)   1.11176300 +1  112.0065731 +1 -178.1546424 +1     5     4     3
 
 *+*+*+*+*+*+*+*+*+*+*+*+*+*+*+*+*+*+*+*+*+*+*+*+*+*+*+*+*+*+*+*+*+*+*+*+*+*+*+*+
            BAR SHORTENED BY       1.000 PERCENT
 GRADIENT CRITERION IN FLEPO =    10.000


          FOR POINT   35 SECOND STRUCTURE
 DISTANCE A - B      2.682199
 HEAT               36.890519
 GRADIENT NORM     110.135375
 DIRECTION COSINE    0.988254

 Diels-Alder reaction of ethylene and cyclohexene

  C(HETATM    1  C1  HET A   1)   0.00000000 +0    0.0000000 +0    0.0000000 +0
  C(HETATM    2  C2  HET A   1)   1.47967987 +1    0.0000000 +0    0.0000000 +0     1     0     0
  C(HETATM    3  C3  HET A   1)   1.33690735 +1  116.8891076 +1    0.0000000 +0     2     1     0
  C(HETATM    4  C4  HET A   1)   1.48892691 +1  116.9404842 +1    0.6062689 +1     3     2     1
  C(HETATM    5  C5  HET A   1)   1.73299906 +1  105.4824265 +1   60.6700208 +1     4     3     2
  C(HETATM    6  C6  HET A   1)   1.55559080 +1  107.4327066 +1  -55.0817013 +1     5     4     3
  H(HETATM    7 1H1  HET A   1)   1.11524014 +1  110.8853243 +1   61.0543369 +1     1     2     3
  H(HETATM    8 2H1  HET A   1)   1.11550772 +1  109.1831125 +1  170.2445076 +1     1     2     3
  H(HETATM    9 1H4  HET A   1)   1.11087072 +1  109.1743243 +1 -167.1551444 +1     4     3     2
  H(HETATM   10 2H4  HET A   1)   1.11978380 +1  109.3067058 +1  -59.5015548 +1     4     3     2
  H(HETATM   11  H2  HET A   1)   1.07904453 +1  119.0266826 +1  175.1372889 +1     2     1     3
  H(HETATM   12  H3  HET A   1)   1.07887226 +1  122.9067483 +1  172.5773698 +1     3     2     1
  H(HETATM   13 1H6  HET A   1)   1.11718069 +1  109.9375211 +1  125.1649937 +1     6     5     4
  H(HETATM   14 2H6  HET A   1)   1.10669182 +1  111.9478735 +1 -124.0197220 +1     6     5     4
  H(HETATM   15 1H5  HET A   1)   1.10797637 +1  114.1921724 +1   69.3511210 +1     5     4     3
  H(HETATM   16 2H5  HET A   1)   1.11566255 +1  112.8054670 +1 -178.6482913 +1     5     4     3
 
 TIME=     0.06
  REACTANTS AND PRODUCTS SWAPPED AROUND
 *+*+*+*+*+*+*+*+*+*+*+*+*+*+*+*+*+*+*+*+*+*+*+*+*+*+*+*+*+*+*+*+*+*+*+*+*+*+*+*+
            BAR SHORTENED BY       0.000 PERCENT
 GRADIENT CRITERION IN FLEPO =    10.000


          FOR POINT   36 FIRST  STRUCTURE
 DISTANCE A - B      2.682199
 HEAT               40.722911
 GRADIENT NORM       6.940840
 DIRECTION COSINE    0.212094

 Diels-Alder reaction of ethylene and cyclohexene

  C(HETATM    1  C1  HET A   1)   0.00000000 +0    0.0000000 +0    0.0000000 +0
  C(HETATM    2  C2  HET A   1)   1.33600056 +1    0.0000000 +0    0.0000000 +0     1     0     0
  C(HETATM    3  C3  HET A   1)   1.45815142 +1  125.2262182 +1    0.0000000 +0     2     1     0
  C(HETATM    4  C4  HET A   1)   1.33653801 +1  125.1016291 +1    0.8618353 +1     3     2     1
  C(HETATM    5  C5  HET A   1)   3.75880761 +1   81.6567471 +1   83.9043174 +1     4     3     2
  C(HETATM    6  C6  HET A   1)   1.33161814 +1   99.6176773 +1  -55.9286724 +1     5     4     3
  H(HETATM    7 1H1  HET A   1)   1.07808008 +1  124.2521729 +1    0.7612034 +1     1     2     3
  H(HETATM    8 2H1  HET A   1)   1.07942129 +1  122.9623450 +1 -179.8920656 +1     1     2     3
  H(HETATM    9 1H4  HET A   1)   1.07961064 +1  123.0668026 +1  179.6429150 +1     4     3     2
[...]
  C(HETATM    6  C6  HET A   1)   1.36930848 +1  109.0438288 +1  -52.0188871 +1     5     4     3
  H(HETATM    7 1H1  HET A   1)   1.08332514 +1  122.9136647 +1   29.2260925 +1     1     2     3
  H(HETATM    8 2H1  HET A   1)   1.08005767 +1  121.4339288 +1 -171.0988700 +1     1     2     3
  H(HETATM    9 1H4  HET A   1)   1.07781034 +1  121.7232232 +1  171.4329549 +1     4     3     2
  H(HETATM   10 2H4  HET A   1)   1.08430125 +1  122.6411485 +1  -29.4117792 +1     4     3     2
  H(HETATM   11  H2  HET A   1)   1.08918709 +1  120.3132360 +1  171.9626170 +1     2     1     3
  H(HETATM   12  H3  HET A   1)   1.08957225 +1  118.1701960 +1  172.0252641 +1     3     2     1
  H(HETATM   13 1H6  HET A   1)   1.08160844 +1  121.2684735 +1  100.1811502 +1     6     5     4
  H(HETATM   14 2H6  HET A   1)   1.08055758 +1  121.6744639 +1 -101.5991503 +1     6     5     4
  H(HETATM   15 1H5  HET A   1)   1.08229387 +1   89.0111541 +1   70.8371286 +1     5     4     3
  H(HETATM   16 2H5  HET A   1)   1.08092918 +1   89.2312842 +1 -175.4494192 +1     5     4     3
 
 TIME=     0.02
  REACTANTS AND PRODUCTS SWAPPED AROUND
 *+*+*+*+*+*+*+*+*+*+*+*+*+*+*+*+*+*+*+*+*+*+*+*+*+*+*+*+*+*+*+*+*+*+*+*+*+*+*+*+
            BAR SHORTENED BY       1.000 PERCENT
 GRADIENT CRITERION IN FLEPO =    10.000


          FOR POINT  422 SECOND STRUCTURE
 DISTANCE A - B      0.102313
 HEAT               59.530605
 GRADIENT NORM      38.330401
 DIRECTION COSINE    0.951686

 Diels-Alder reaction of ethylene and cyclohexene

  C(HETATM    1  C1  HET A   1)   0.00000000 +0    0.0000000 +0    0.0000000 +0
  C(HETATM    2  C2  HET A   1)   1.39391212 +1    0.0000000 +0    0.0000000 +0     1     0     0
  C(HETATM    3  C3  HET A   1)   1.38983554 +1  120.4787428 +1    0.0000000 +0     2     1     0
  C(HETATM    4  C4  HET A   1)   1.39475283 +1  120.4749051 +1   -0.0483450 +1     3     2     1
  C(HETATM    5  C5  HET A   1)   2.07291962 +1  100.1881345 +1   60.5545409 +1     4     3     2
  C(HETATM    6  C6  HET A   1)   1.40474880 +1  109.2685974 +1  -51.8196028 +1     5     4     3
  H(HETATM    7 1H1  HET A   1)   1.08174350 +1  121.7551389 +1   34.3790693 +1     1     2     3
  H(HETATM    8 2H1  HET A   1)   1.08270223 +1  120.1013196 +1 -173.7262416 +1     1     2     3
  H(HETATM    9 1H4  HET A   1)   1.08259390 +1  120.1987529 +1  174.2470471 +1     4     3     2
  H(HETATM   10 2H4  HET A   1)   1.08206379 +1  121.5465668 +1  -34.5293979 +1     4     3     2
  H(HETATM   11  H2  HET A   1)   1.08839410 +1  119.7757450 +1  170.5148811 +1     2     1     3
  H(HETATM   12  H3  HET A   1)   1.08882743 +1  119.0376608 +1  170.5923105 +1     3     2     1
  H(HETATM   13 1H6  HET A   1)   1.08103981 +1  120.0852989 +1  103.4343532 +1     6     5     4
  H(HETATM   14 2H6  HET A   1)   1.08061382 +1  120.5007797 +1 -104.6381199 +1     6     5     4
  H(HETATM   15 1H5  HET A   1)   1.08263887 +1   92.1745593 +1   71.0744655 +1     5     4     3
  H(HETATM   16 2H5  HET A   1)   1.08211883 +1   92.2546505 +1 -175.1910565 +1     5     4     3
 
 TIME=     0.02
  REACTANTS AND PRODUCTS SWAPPED AROUND
 *+*+*+*+*+*+*+*+*+*+*+*+*+*+*+*+*+*+*+*+*+*+*+*+*+*+*+*+*+*+*+*+*+*+*+*+*+*+*+*+
            BAR SHORTENED BY       1.000 PERCENT
 GRADIENT CRITERION IN FLEPO =    10.000


          FOR POINT  423 FIRST  STRUCTURE
 DISTANCE A - B      0.101290
 HEAT               59.544451
 GRADIENT NORM      27.914035
 DIRECTION COSINE    0.948945

 Diels-Alder reaction of ethylene and cyclohexene

  C(HETATM    1  C1  HET A   1)   0.00000000 +0    0.0000000 +0    0.0000000 +0
  C(HETATM    2  C2  HET A   1)   1.36848528 +1    0.0000000 +0    0.0000000 +0     1     0     0
  C(HETATM    3  C3  HET A   1)   1.41540126 +1  121.0124916 +1    0.0000000 +0     2     1     0
  C(HETATM    4  C4  HET A   1)   1.36871173 +1  121.0017105 +1    0.0000000 +1     3     2     1
  C(HETATM    5  C5  HET A   1)   2.17147057 +1   98.7810022 +1   61.4657716 +1     4     3     2
  C(HETATM    6  C6  HET A   1)   1.36966286 +1  109.0460541 +1  -52.0168330 +1     5     4     3
  H(HETATM    7 1H1  HET A   1)   1.08329642 +1  122.9034612 +1   29.2788201 +1     1     2     3
  H(HETATM    8 2H1  HET A   1)   1.08007411 +1  121.4216652 +1 -171.1258924 +1     1     2     3
  H(HETATM    9 1H4  HET A   1)   1.07784696 +1  121.7090570 +1  171.4620397 +1     4     3     2
  H(HETATM   10 2H4  HET A   1)   1.08426562 +1  122.6316151 +1  -29.4640954 +1     4     3     2
  H(HETATM   11  H2  HET A   1)   1.08917783 +1  120.3079376 +1  171.9474572 +1     2     1     3
  H(HETATM   12  H3  HET A   1)   1.08956337 +1  118.1788730 +1  172.0104606 +1     3     2     1
  H(HETATM   13 1H6  HET A   1)   1.08158839 +1  121.2569766 +1  100.2139190 +1     6     5     4
  H(HETATM   14 2H6  HET A   1)   1.08054306 +1  121.6630935 +1 -101.6299491 +1     6     5     4
  H(HETATM   15 1H5  HET A   1)   1.08228157 +1   89.0427564 +1   70.8394484 +1     5     4     3
  H(HETATM   16 2H5  HET A   1)   1.08092433 +1   89.2616187 +1 -175.4467878 +1     5     4     3
 
 TIME=     0.01
  REACTANTS AND PRODUCTS SWAPPED AROUND
 *+*+*+*+*+*+*+*+*+*+*+*+*+*+*+*+*+*+*+*+*+*+*+*+*+*+*+*+*+*+*+*+*+*+*+*+*+*+*+*+
            BAR SHORTENED BY       1.000 PERCENT
 GRADIENT CRITERION IN FLEPO =    10.000


          FOR POINT  424 SECOND STRUCTURE
 DISTANCE A - B      0.100277
 HEAT               59.568040
 GRADIENT NORM      37.511785
 DIRECTION COSINE    0.946920

 Diels-Alder reaction of ethylene and cyclohexene

  C(HETATM    1  C1  HET A   1)   0.00000000 +0    0.0000000 +0    0.0000000 +0
  C(HETATM    2  C2  HET A   1)   1.39365248 +1    0.0000000 +0    0.0000000 +0     1     0     0
  C(HETATM    3  C3  HET A   1)   1.39009119 +1  120.4841151 +1    0.0000000 +0     2     1     0
  C(HETATM    4  C4  HET A   1)   1.39448708 +1  120.4801754 +1   -0.0478375 +1     3     2     1
  C(HETATM    5  C5  HET A   1)   2.07390502 +1  100.1744444 +1   60.5633891 +1     4     3     2
  C(HETATM    6  C6  HET A   1)   1.40439792 +1  109.2663471 +1  -51.8215141 +1     5     4     3
  H(HETATM    7 1H1  HET A   1)   1.08174637 +1  121.7679246 +1   34.3292978 +1     1     2     3
  H(HETATM    8 2H1  HET A   1)   1.08266616 +1  120.1155137 +1 -173.7010030 +1     1     2     3
  H(HETATM    9 1H4  HET A   1)   1.08253548 +1  120.2148525 +1  174.2201482 +1     4     3     2
  H(HETATM   10 2H4  HET A   1)   1.08207280 +1  121.5587515 +1  -34.4799231 +1     4     3     2
  H(HETATM   11  H2  HET A   1)   1.08840063 +1  119.7811358 +1  170.5285472 +1     2     1     3
  H(HETATM   12  H3  HET A   1)   1.08883338 +1  119.0290762 +1  170.6060313 +1     3     2     1
  H(HETATM   13 1H6  HET A   1)   1.08103121 +1  120.0973274 +1  103.4024041 +1     6     5     4
  H(HETATM   14 2H6  HET A   1)   1.08059833 +1  120.5127438 +1 -104.6084718 +1     6     5     4
  H(HETATM   15 1H5  HET A   1)   1.08261987 +1   92.1432383 +1   71.0720582 +1     5     4     3
  H(HETATM   16 2H5  HET A   1)   1.08209049 +1   92.2248549 +1 -175.1935670 +1     5     4     3
 
 TIME=     0.01
  REACTANTS AND PRODUCTS SWAPPED AROUND
 *+*+*+*+*+*+*+*+*+*+*+*+*+*+*+*+*+*+*+*+*+*+*+*+*+*+*+*+*+*+*+*+*+*+*+*+*+*+*+*+
            BAR SHORTENED BY       1.000 PERCENT
 AT END OF STEPWISE ASCENT OF REACTION BARRIER

 -------------------------------------------------------------------------------

 Diels-Alder reaction of ethylene and cyclohexene



     TRANSITION STATE LOCATED USING THE "SADDLE" TECHNIQUE    
     SCF FIELD WAS ACHIEVED                                   


                              PM7 CALCULATION
                                                       MOPAC2016 (Version: 21.158W)
                                                       Fri Jun 11 08:38:21 2021
                                                       No. of days remaining = 361




          FINAL H.O.F PLUS STRESS =         59.56804 KCAL/MOL =     249.23268 KJ/MOL
          FINAL STRESS            =          0.00000 KCAL/MOL =       0.00000 KJ/MOL
          FINAL HEAT OF FORMATION =         59.56804 KCAL/MOL =     249.23268 KJ/MOL
          TOTAL DISTORTION        =          0.00278 Angstroms
          AVERAGE DISTORTION      =          0.00017 Angstroms per atom (all atoms)
          RMS DISTORTION          =          0.00025 Angstroms per atom (all atoms)


          TOTAL ENERGY            =       -869.27322 EV
          ELECTRONIC ENERGY       =      -3882.84586 EV  POINT GROUP:     C1  
          CORE-CORE REPULSION     =       3013.57264 EV
          COSMO AREA              =        133.78 SQUARE ANGSTROMS
          COSMO VOLUME            =        127.81 CUBIC ANGSTROMS

          GRADIENT NORM           =          8.65160 = 2.16290 PER ATOM
          IONIZATION POTENTIAL    =          8.925744 EV
          HOMO LUMO ENERGIES (EV) =         -8.926  0.398
          NO. OF FILLED LEVELS    =         17
          MOLECULAR WEIGHT        =         82.1450

          MOLECULAR DIMENSIONS (Angstroms)

            Atom       Atom       Distance
            H     9    H     8     4.96068
            H    16    H    12     4.15010
            H     7    H    13     2.99049


          SCF CALCULATIONS        =       1895
 
          WALL-CLOCK TIME         =         12.787 SECONDS
          COMPUTATION TIME        =         31.344 SECONDS



       FINAL  POINT  AND  DERIVATIVES

   PARAMETER     ATOM    TYPE            VALUE        GRADIENT
      1          1  C    CARTESIAN X    -0.785436     -2.027245  KCAL/ANGSTROM
      2          1  C    CARTESIAN Y    -1.174856     -1.157412  KCAL/ANGSTROM
      3          1  C    CARTESIAN Z    -0.578646     -1.042797  KCAL/ANGSTROM
      4          2  C    CARTESIAN X     0.607952      1.561246  KCAL/ANGSTROM
      5          2  C    CARTESIAN Y    -1.177585     -1.152876  KCAL/ANGSTROM
      6          2  C    CARTESIAN Z    -0.574745     -0.651846  KCAL/ANGSTROM
      7          3  C    CARTESIAN X     1.315737      0.414971  KCAL/ANGSTROM
      8          3  C    CARTESIAN Y     0.019115     -1.432737  KCAL/ANGSTROM
      9          3  C    CARTESIAN Z    -0.576650     -0.343666  KCAL/ANGSTROM
     10          4  C    CARTESIAN X     0.641675     -0.583488  KCAL/ANGSTROM
     11          4  C    CARTESIAN Y     1.239547      1.011423  KCAL/ANGSTROM
     12          4  C    CARTESIAN Z    -0.583484     -0.628729  KCAL/ANGSTROM
     13          5  C    CARTESIAN X    -0.419906      0.307202  KCAL/ANGSTROM
     14          5  C    CARTESIAN Y     1.081324      3.402580  KCAL/ANGSTROM
     15          5  C    CARTESIAN Z     1.192225      0.178409  KCAL/ANGSTROM
     16          6  C    CARTESIAN X    -1.122238     -1.757927  KCAL/ANGSTROM
     17          6  C    CARTESIAN Y    -0.134372     -1.842080  KCAL/ANGSTROM
     18          6  C    CARTESIAN Z     1.205296      1.525781  KCAL/ANGSTROM
     19          7  H    CARTESIAN X    -1.352213      0.037221  KCAL/ANGSTROM
     20          7  H    CARTESIAN Y    -0.415594     -0.090453  KCAL/ANGSTROM
     21          7  H    CARTESIAN Z    -1.100630      0.142736  KCAL/ANGSTROM
     22          8  H    CARTESIAN X    -1.330986      0.750524  KCAL/ANGSTROM
     23          8  H    CARTESIAN Y    -2.104111     -1.327184  KCAL/ANGSTROM
     24          8  H    CARTESIAN Z    -0.474014     -3.791295  KCAL/ANGSTROM
     25          9  H    CARTESIAN X     1.192337      1.690205  KCAL/ANGSTROM
     26          9  H    CARTESIAN Y     2.166829      0.096595  KCAL/ANGSTROM
     27          9  H    CARTESIAN Z    -0.490331     -3.825602  KCAL/ANGSTROM
     28         10  H    CARTESIAN X    -0.296027      0.150639  KCAL/ANGSTROM
     29         10  H    CARTESIAN Y     1.365901      0.428321  KCAL/ANGSTROM
     30         10  H    CARTESIAN Z    -1.108509      0.718752  KCAL/ANGSTROM
     31         11  H    CARTESIAN X     1.146368     -0.011947  KCAL/ANGSTROM
     32         11  H    CARTESIAN Y    -2.109904      0.390537  KCAL/ANGSTROM
     33         11  H    CARTESIAN Z    -0.414995     -0.192981  KCAL/ANGSTROM
     34         12  H    CARTESIAN X     2.392766     -0.044138  KCAL/ANGSTROM
     35         12  H    CARTESIAN Y    -0.003943     -0.310824  KCAL/ANGSTROM
     36         12  H    CARTESIAN Z    -0.418380     -0.315226  KCAL/ANGSTROM
     37         13  H    CARTESIAN X    -0.759427      0.007659  KCAL/ANGSTROM
     38         13  H    CARTESIAN Y    -0.963942      0.207063  KCAL/ANGSTROM
     39         13  H    CARTESIAN Z     1.795882      0.356250  KCAL/ANGSTROM
     40         14  H    CARTESIAN X    -2.189258     -0.141797  KCAL/ANGSTROM
     41         14  H    CARTESIAN Y    -0.153628     -0.009056  KCAL/ANGSTROM
     42         14  H    CARTESIAN Z     1.035711      0.637437  KCAL/ANGSTROM
     43         15  H    CARTESIAN X     0.478340      0.283726  KCAL/ANGSTROM
     44         15  H    CARTESIAN Y     1.194136     -0.088175  KCAL/ANGSTROM
     45         15  H    CARTESIAN Z     1.785903      0.916796  KCAL/ANGSTROM
     46         16  H    CARTESIAN X    -0.940417     -0.678378  KCAL/ANGSTROM
     47         16  H    CARTESIAN Y     2.012784      0.893246  KCAL/ANGSTROM
     48         16  H    CARTESIAN Z     1.012476      1.175226  KCAL/ANGSTROM




   ATOM                 CHEMICAL                   X               Y               Z
  NUMBER                 SYMBOL               (ANGSTROMS)     (ANGSTROMS)     (ANGSTROMS)
 
     1       C(HETATM    1  C1  HET A   1)   -0.78543591  *  -1.17485571  *  -0.57864608  *
     2       C(HETATM    2  C2  HET A   1)    0.60795151  *  -1.17758532  *  -0.57474523  *
     3       C(HETATM    3  C3  HET A   1)    1.31573737  *   0.01911547  *  -0.57665002  *
     4       C(HETATM    4  C4  HET A   1)    0.64167475  *   1.23954723  *  -0.58348418  *
     5       C(HETATM    5  C5  HET A   1)   -0.41990574  *   1.08132388  *   1.19222458  *
     6       C(HETATM    6  C6  HET A   1)   -1.12223823  *  -0.13437187  *   1.20529592  *
     7       H(HETATM    7 1H1  HET A   1)   -1.35221268  *  -0.41559373  *  -1.10063005  *
     8       H(HETATM    8 2H1  HET A   1)   -1.33098623  *  -2.10411138  *  -0.47401415  *
     9       H(HETATM    9 1H4  HET A   1)    1.19233726  *   2.16682906  *  -0.49033107  *
    10       H(HETATM   10 2H4  HET A   1)   -0.29602741  *   1.36590067  *  -1.10850882  *
    11       H(HETATM   11  H2  HET A   1)    1.14636802  *  -2.10990364  *  -0.41499456  *
    12       H(HETATM   12  H3  HET A   1)    2.39276560  *  -0.00394275  *  -0.41837953  *
    13       H(HETATM   13 1H6  HET A   1)   -0.75942675  *  -0.96394169  *   1.79588239  *
    14       H(HETATM   14 2H6  HET A   1)   -2.18925762  *  -0.15362756  *   1.03571086  *
    15       H(HETATM   15 1H5  HET A   1)    0.47833973  *   1.19413597  *   1.78590309  *
    16       H(HETATM   16 2H5  HET A   1)   -0.94041722  *   2.01278401  *   1.01247574  *

                             CARTESIAN COORDINATES

   1    C       -0.785435910    -1.174855707    -0.578646083
   2    C        0.607951506    -1.177585317    -0.574745230
   3    C        1.315737373     0.019115473    -0.576650021
   4    C        0.641674750     1.239547231    -0.583484177
   5    C       -0.419905741     1.081323881     1.192224581
   6    C       -1.122238228    -0.134371867     1.205295924
   7    H       -1.352212683    -0.415593733    -1.100630051
   8    H       -1.330986232    -2.104111384    -0.474014154
   9    H        1.192337260     2.166829064    -0.490331068
  10    H       -0.296027413     1.365900673    -1.108508818
  11    H        1.146368016    -2.109903636    -0.414994562
  12    H        2.392765601    -0.003942746    -0.418379528
  13    H       -0.759426746    -0.963941693     1.795882392
  14    H       -2.189257619    -0.153627555     1.035710857
  15    H        0.478339732     1.194135972     1.785903088
  16    H       -0.940417219     2.012784009     1.012475737


           Empirical Formula: C6 H10  =    16 atoms



      MOLECULAR POINT GROUP   :   C1  


                  EIGENVALUES  
 -29.27771 -25.79529 -25.01292 -21.73197 -20.18367 -17.59207 -17.03016 -16.15730
 -14.48531 -14.01276 -13.59175 -12.80777 -12.57104 -12.08305 -11.71198  -9.09453
  -8.92574   0.39821   0.63940   2.57793   5.05279   5.14008   5.50145   5.61705
   5.77536   5.89850   6.24693   6.30428   6.42717   6.44459   6.47491   6.55740
   6.60343   6.75212


              NET ATOMIC CHARGES AND DIPOLE CONTRIBUTIONS

  ATOM NO.                 TYPE                        CHARGE      No. of ELECS.   s-Pop       p-Pop       
    1          C(HETATM    1  C1  HET A   1)          -0.256162        4.2562     1.10054     3.15563
    2          C(HETATM    2  C2  HET A   1)          -0.169786        4.1698     1.07799     3.09180
    3          C(HETATM    3  C3  HET A   1)          -0.174486        4.1745     1.07774     3.09675
    4          C(HETATM    4  C4  HET A   1)          -0.252139        4.2521     1.09996     3.15218
    5          C(HETATM    5  C5  HET A   1)          -0.275692        4.2757     1.09729     3.17840
    6          C(HETATM    6  C6  HET A   1)          -0.274358        4.2744     1.09772     3.17664
    7          H(HETATM    7 1H1  HET A   1)           0.145615        0.8544     0.85439
    8          H(HETATM    8 2H1  HET A   1)           0.134045        0.8660     0.86595
    9          H(HETATM    9 1H4  HET A   1)           0.133827        0.8662     0.86617
   10          H(HETATM   10 2H4  HET A   1)           0.145375        0.8546     0.85463
   11          H(HETATM   11  H2  HET A   1)           0.142864        0.8571     0.85714
   12          H(HETATM   12  H3  HET A   1)           0.143133        0.8569     0.85687
   13          H(HETATM   13 1H6  HET A   1)           0.142034        0.8580     0.85797
   14          H(HETATM   14 2H6  HET A   1)           0.136739        0.8633     0.86326
   15          H(HETATM   15 1H5  HET A   1)           0.142311        0.8577     0.85769
   16          H(HETATM   16 2H5  HET A   1)           0.136682        0.8633     0.86332

          NET CHARGE ON RESIDUES

      Residue         Charge  Anion or
                              Cation?
      HET A   1       +0.000
 


 DIPOLE           X         Y         Z       TOTAL
 POINT-CHG.    -0.432     0.264     0.258     0.568
 HYBRID        -0.078     0.043     0.018     0.091
 SUM           -0.510     0.307     0.276     0.656


          ATOMIC ORBITAL ELECTRON POPULATIONS

                   Atom                  s        px        py        pz   
   C(HETATM    1  C1  HET A   1)   1.10054   1.03306   1.11061   1.01195
   C(HETATM    2  C2  HET A   1)   1.07799   1.00545   1.05297   1.03339
   C(HETATM    3  C3  HET A   1)   1.07774   1.07204   0.98662   1.03809
   C(HETATM    4  C4  HET A   1)   1.09996   1.08849   1.05490   1.00879
   C(HETATM    5  C5  HET A   1)   1.09729   1.08567   1.05352   1.03921
   C(HETATM    6  C6  HET A   1)   1.09772   1.09677   1.04236   1.03750
   H(HETATM    7 1H1  HET A   1)   0.85439
   H(HETATM    8 2H1  HET A   1)   0.86595
   H(HETATM    9 1H4  HET A   1)   0.86617
   H(HETATM   10 2H4  HET A   1)   0.85463
   H(HETATM   11  H2  HET A   1)   0.85714
   H(HETATM   12  H3  HET A   1)   0.85687
   H(HETATM   13 1H6  HET A   1)   0.85797
   H(HETATM   14 2H6  HET A   1)   0.86326
   H(HETATM   15 1H5  HET A   1)   0.85769
   H(HETATM   16 2H5  HET A   1)   0.86332

 **********************
 *                    *
 * JOB ENDED NORMALLY *
 *                    *
 **********************



 TOTAL JOB TIME:            12.80 SECONDS

 == MOPAC DONE ==
