 *******************************************************************************
 ** Site#: 10005        For non-commercial use only     Version 15.309W 64BITS**
 *******************************************************************************
 ** Cite this work as:                                                        **
 **                                                                           **
 ** (a) MOPAC2012, James J. P. Stewart, Stewart Computational Chemistry,      **
 **  Version 15.309W web: HTTP://OpenMOPAC.net         Days remaining: 365    **
 **                                                                           **
 **                                 AND                                       **
 **                                                                           **
 ** (b) Maia, J.D.C., et al., J. Chem. Theory Comput. 2012, 8, 3072-3081.     **
 **                DOI: 10.1021/ct3004645.                                    **
 *******************************************************************************
 **                                                                           **
 **                                MOPAC2012                                  **
 **                                                                           **
 *******************************************************************************

                              PM7 CALCULATION RESULTS


 *******************************************************************************
 *  CALCULATION DONE:                                Thu Nov 05 10:00:32 2015  *
 *  GEO_DAT    - DATA SET GEOMETRY IS IN FILE "C2H4+C4H6-CYCLOHEXENE STEP 2.ARC"
 *  TS         - USE EF ROUTINE FOR TS SEARCH
 *  T=         - A TIME OF 172800.0 SECONDS REQUESTED
 *  DUMP=N     - RESTART FILE WRITTEN EVERY  7200.000 SECONDS
 *******************************************************************************
 geo_dat="C2H4+C4H6-cyclohexene Step 2.arc" ts html
 Given a rough transition state, refine it using TS

   ATOM                 CHEMICAL                   X               Y               Z
  NUMBER                 SYMBOL               (ANGSTROMS)     (ANGSTROMS)     (ANGSTROMS)
 
     1       C(HETATM    1  C   HET A   1)   -0.66956082  *  -1.19422418  *  -0.67470563  *
     2       C(HETATM    2  C   HET A   1)    0.70117882  *  -1.17498830  *  -0.50903458  *
     3       C(HETATM    3  C   HET A   1)    1.39885535  *   0.03908814  *  -0.44912372  *
     4       C(HETATM    4  C   HET A   1)    0.72991351  *   1.24271475  *  -0.55799906  *
     5       C(HETATM    5  C   HET A   1)   -0.56984760  *   1.08521545  *   1.10806177  *
     6       C(HETATM    6  C   HET A   1)   -1.24577642  *  -0.12269012  *   1.05925982  *
     7       H(HETATM    7 1HT1 HET A   1)   -1.19059757  *  -0.44720297  *  -1.26091685  *
     8       H(HETATM    8 2HT1 HET A   1)   -1.22955775  *  -2.11342202  *  -0.56973448  *
     9       H(HETATM    9 1HT2 HET A   1)    1.23419535  *   2.17904807  *  -0.35988310  *
    10       H(HETATM   10 2HT2 HET A   1)   -0.15032993  *   1.35866673  *  -1.17746569  *
    11       H(HETATM   11 1HT  HET A   1)    1.23396948  *  -2.09501415  *  -0.27264875  *
    12       H(HETATM   12 2HT  HET A   1)    2.44974000  *   0.02418428  *  -0.16308053  *
    13       H(HETATM   13 1HT3 HET A   1)   -0.94359741  *  -0.94890615  *   1.68773417  *
    14       H(HETATM   14 2HT3 HET A   1)   -2.27818263  *  -0.17170018  *   0.74298075  *
    15       H(HETATM   15 1HT4 HET A   1)    0.26585709  *   1.22471489  *   1.78068626  *
    16       H(HETATM   16 2HT4 HET A   1)   -1.05688376  *   2.00773719  *   0.82135183  *
 

     ===================== shared-memory parallel CPU Section ======================
     **                                                                           **
     **  MOPAC calculations will run in shared-memory parallel CPUs               **
     **                                                                           **
     **  Number of Threads =  4                                                   **
     **                                                                           **
     **                                                                           **
     **  For information on this work, see:                                       **
     **                                                                           **
     **  Maia, J.D.C., et al., J. Chem. Theory Comput. 2012, 8, 3072-3081.        **
     **        DOI: 10.1021/ct3004645.                                            **
     **                                                                           **
     ===================== shared-memory parallel CPU Section ======================
      


 General Reference for PM7:
 "Optimization of Parameters for Semiempirical Methods VI: More Modifications to the 
 NDDO Approximations and Re-optimization of Parameters", J. J. P. Stewart, J. Mol. Mod., 1:32, 19 (2013)
 http://www.springerlink.com/openurl.asp?genre=article&id=doi:10.1007/s00894-012-1667-x

           Empirical Formula: C6 H10  =    16 atoms



      MOLECULAR POINT GROUP   :   Cs  


      RHF CALCULATION, NO. OF DOUBLY OCCUPIED LEVELS =   17

      Transition state refinement using EF

          HESSIAN CALCULATED NUMERICALLY

 CYCLE:     1 TIME:   0.141 TIME LEFT:  2.00D  GRAD.:     7.059 HEAT:  60.20495
 CYCLE:     2 TIME:   0.000 TIME LEFT:  2.00D  GRAD.:     0.552 HEAT:  60.22627

     GRADIENT =  0.55188  IS LESS THAN CUTOFF =  1.00000



 -------------------------------------------------------------------------------
 geo_dat="C2H4+C4H6-cyclohexene Step 2.arc" ts html
 Given a rough transition state, refine it using TS



     GEOMETRY OPTIMISED USING EIGENVECTOR FOLLOWING (TS).     
     SCF FIELD WAS ACHIEVED                                   


                              PM7 CALCULATION
                                                       MOPAC2012 (Version: 15.309W)
                                                       Thu Nov 05 10:00:32 2015
                                                       No. of days left = 365




          FINAL HEAT OF FORMATION =         60.22627 KCAL/MOL =     251.98670 KJ/MOL


          TOTAL ENERGY            =       -869.24605 EV
          ELECTRONIC ENERGY       =      -3879.76597 EV  POINT GROUP:     Cs  
          CORE-CORE REPULSION     =       3010.51991 EV
          COSMO AREA              =        133.66 SQUARE ANGSTROMS
          COSMO VOLUME            =        128.03 CUBIC ANGSTROMS

          GRADIENT NORM           =          0.55188
          IONIZATION POTENTIAL    =          9.014459 EV
          HOMO LUMO ENERGIES (EV) =         -9.014  0.302
          NO. OF FILLED LEVELS    =         17
          MOLECULAR WEIGHT        =         82.145

          MOLECULAR DIMENSIONS (Angstroms)

            Atom       Atom       Distance
            H     9    H     8     4.95236
            H    16    H    11     4.13378
            H    10    H    13     2.98358


          SCF CALCULATIONS        =         51
 
          WALL-CLOCK TIME         =          0.156 SECONDS
          COMPUTATION TIME        =          0.577 SECONDS




   ATOM                 CHEMICAL                   X               Y               Z
  NUMBER                 SYMBOL               (ANGSTROMS)     (ANGSTROMS)     (ANGSTROMS)
 
     1       C(HETATM    1  C   HET A   1)   -0.66745697  *  -1.19728736  *  -0.68005926  *
     2       C(HETATM    2  C   HET A   1)    0.69966899  *  -1.17471281  *  -0.50600305  *
     3       C(HETATM    3  C   HET A   1)    1.39625358  *   0.04333447  *  -0.44790188  *
     4       C(HETATM    4  C   HET A   1)    0.72967534  *   1.24401177  *  -0.56600750  *
     5       C(HETATM    5  C   HET A   1)   -0.56672991  *   1.08046061  *   1.11374640  *
     6       C(HETATM    6  C   HET A   1)   -1.24808457  *  -0.11998188  *   1.06138068  *
     7       H(HETATM    7 1HT1 HET A   1)   -1.18730252  *  -0.44925620  *  -1.26587193  *
     8       H(HETATM    8 2HT1 HET A   1)   -1.23055461  *  -2.11245106  *  -0.56773432  *
     9       H(HETATM    9 1HT2 HET A   1)    1.22742881  *   2.18213030  *  -0.36581715  *
    10       H(HETATM   10 2HT2 HET A   1)   -0.15259090  *   1.35681614  *  -1.18390205  *
    11       H(HETATM   11 1HT  HET A   1)    1.23350320  *  -2.09088969  *  -0.25674497  *
    12       H(HETATM   12 2HT  HET A   1)    2.44520173  *   0.02881662  *  -0.15444838  *
    13       H(HETATM   13 1HT3 HET A   1)   -0.94922919  *  -0.95495775  *   1.68071725  *
    14       H(HETATM   14 2HT3 HET A   1)   -2.27898964  *  -0.16387953  *   0.73859362  *
    15       H(HETATM   15 1HT4 HET A   1)    0.27753801  *   1.21143642  *   1.77742092  *
    16       H(HETATM   16 2HT4 HET A   1)   -1.04543354  *   2.00789267  *   0.83130944  *

                             CARTESIAN COORDINATES

   1    C       -0.667456968    -1.197287356    -0.680059256
   2    C        0.699668986    -1.174712807    -0.506003052
   3    C        1.396253577     0.043334472    -0.447901884
   4    C        0.729675344     1.244011772    -0.566007502
   5    C       -0.566729906     1.080460612     1.113746396
   6    C       -1.248084568    -0.119981885     1.061380677
   7    H       -1.187302516    -0.449256200    -1.265871927
   8    H       -1.230554615    -2.112451062    -0.567734317
   9    H        1.227428812     2.182130296    -0.365817149
  10    H       -0.152590896     1.356816143    -1.183902050
  11    H        1.233503199    -2.090889688    -0.256744969
  12    H        2.445201731     0.028816622    -0.154448376
  13    H       -0.949229189    -0.954957749     1.680717251
  14    H       -2.278989642    -0.163879527     0.738593617
  15    H        0.277538012     1.211436424     1.777420921
  16    H       -1.045433541     2.007892675     0.831309436


           Empirical Formula: C6 H10  =    16 atoms



      MOLECULAR POINT GROUP   :   Cs  


                  EIGENVALUES  
 -29.30780 -25.91670 -25.13093 -21.70821 -20.18344 -17.62686 -17.06707 -16.16832
 -14.57993 -14.06804 -13.70236 -12.79887 -12.54994 -12.02307 -11.70987  -9.03288
  -9.01446   0.30249   0.68328   2.50754   4.99331   5.19474   5.61085   5.64950
   5.80195   5.92036   6.23674   6.26954   6.41134   6.47503   6.47868   6.59302
   6.62519   6.73863


              NET ATOMIC CHARGES AND DIPOLE CONTRIBUTIONS

  ATOM NO.                 TYPE                        CHARGE      No. of ELECS.   s-Pop       p-Pop       
    1          C(HETATM    1  C   HET A   1)          -0.254622        4.2546     1.10114     3.15348
    2          C(HETATM    2  C   HET A   1)          -0.169383        4.1694     1.07769     3.09170
    3          C(HETATM    3  C   HET A   1)          -0.169513        4.1695     1.07767     3.09184
    4          C(HETATM    4  C   HET A   1)          -0.254670        4.2547     1.10115     3.15352
    5          C(HETATM    5  C   HET A   1)          -0.280921        4.2809     1.09636     3.18456
    6          C(HETATM    6  C   HET A   1)          -0.280561        4.2806     1.09641     3.18415
    7          H(HETATM    7 1HT1 HET A   1)           0.146756        0.8532     0.85324
    8          H(HETATM    8 2HT1 HET A   1)           0.134675        0.8653     0.86533
    9          H(HETATM    9 1HT2 HET A   1)           0.134678        0.8653     0.86532
   10          H(HETATM   10 2HT2 HET A   1)           0.146712        0.8533     0.85329
   11          H(HETATM   11 1HT  HET A   1)           0.143217        0.8568     0.85678
   12          H(HETATM   12 2HT  HET A   1)           0.143207        0.8568     0.85679
   13          H(HETATM   13 1HT3 HET A   1)           0.142742        0.8573     0.85726
   14          H(HETATM   14 2HT3 HET A   1)           0.137510        0.8625     0.86249
   15          H(HETATM   15 1HT4 HET A   1)           0.142780        0.8572     0.85722
   16          H(HETATM   16 2HT4 HET A   1)           0.137395        0.8626     0.86261
 DIPOLE           X         Y         Z       TOTAL
 POINT-CHG.    -0.407     0.226     0.162     0.493
 HYBRID        -0.081     0.046     0.019     0.095
 SUM           -0.488     0.272     0.180     0.587


          ATOMIC ORBITAL ELECTRON POPULATIONS

                   Atom                  s        px        py        pz   
   C(HETATM    1  C   HET A   1)   1.10114   1.02969   1.11265   1.01114
   C(HETATM    2  C   HET A   1)   1.07769   1.00457   1.04876   1.03837
   C(HETATM    3  C   HET A   1)   1.07767   1.06627   0.98593   1.03964
   C(HETATM    4  C   HET A   1)   1.10115   1.07830   1.05704   1.01817
   C(HETATM    5  C   HET A   1)   1.09636   1.07733   1.05481   1.05242
   C(HETATM    6  C   HET A   1)   1.09641   1.08680   1.04798   1.04938
   H(HETATM    7 1HT1 HET A   1)   0.85324
   H(HETATM    8 2HT1 HET A   1)   0.86533
   H(HETATM    9 1HT2 HET A   1)   0.86532
   H(HETATM   10 2HT2 HET A   1)   0.85329
   H(HETATM   11 1HT  HET A   1)   0.85678
   H(HETATM   12 2HT  HET A   1)   0.85679
   H(HETATM   13 1HT3 HET A   1)   0.85726
   H(HETATM   14 2HT3 HET A   1)   0.86249
   H(HETATM   15 1HT4 HET A   1)   0.85722
   H(HETATM   16 2HT4 HET A   1)   0.86261
 *******************************************************************************
 ** Site#: 10005        For non-commercial use only     Version 15.309W 64BITS**
 *******************************************************************************
 ** Cite this work as:                                                        **
 **                                                                           **
 ** (a) MOPAC2012, James J. P. Stewart, Stewart Computational Chemistry,      **
 **  Version 15.309W web: HTTP://OpenMOPAC.net         Days remaining: 365    **
 **                                                                           **
 **                                 AND                                       **
 **                                                                           **
 ** (b) Maia, J.D.C., et al., J. Chem. Theory Comput. 2012, 8, 3072-3081.     **
 **                DOI: 10.1021/ct3004645.                                    **
 *******************************************************************************
 **                                                                           **
 **                                MOPAC2012                                  **
 **                                                                           **
 *******************************************************************************

                              PM7 CALCULATION RESULTS


 *******************************************************************************
 *  CALCULATION DONE:                                Thu Nov 05 10:00:32 2015  *
 *  OLDGEO     - PREVIOUS GEOMETRY TO BE USED
 *  FORCE      - FORCE CALCULATION SPECIFIED
 *  T=         - A TIME OF 172800.0 SECONDS REQUESTED
 *  DUMP=N     - RESTART FILE WRITTEN EVERY  7200.000 SECONDS
 *******************************************************************************
oldgeo force


   ATOM                 CHEMICAL                   X               Y               Z
  NUMBER                 SYMBOL               (ANGSTROMS)     (ANGSTROMS)     (ANGSTROMS)
 
     1       C(HETATM    1  C   HET A   1)   -0.66745697  *  -1.19728736  *  -0.68005926  *
     2       C(HETATM    2  C   HET A   1)    0.69966899  *  -1.17471281  *  -0.50600305  *
     3       C(HETATM    3  C   HET A   1)    1.39625358  *   0.04333447  *  -0.44790188  *
     4       C(HETATM    4  C   HET A   1)    0.72967534  *   1.24401177  *  -0.56600750  *
     5       C(HETATM    5  C   HET A   1)   -0.56672991  *   1.08046061  *   1.11374640  *
     6       C(HETATM    6  C   HET A   1)   -1.24808457  *  -0.11998188  *   1.06138068  *
     7       H(HETATM    7 1HT1 HET A   1)   -1.18730252  *  -0.44925620  *  -1.26587193  *
     8       H(HETATM    8 2HT1 HET A   1)   -1.23055461  *  -2.11245106  *  -0.56773432  *
     9       H(HETATM    9 1HT2 HET A   1)    1.22742881  *   2.18213030  *  -0.36581715  *
    10       H(HETATM   10 2HT2 HET A   1)   -0.15259090  *   1.35681614  *  -1.18390205  *
    11       H(HETATM   11 1HT  HET A   1)    1.23350320  *  -2.09088969  *  -0.25674497  *
    12       H(HETATM   12 2HT  HET A   1)    2.44520173  *   0.02881662  *  -0.15444838  *
    13       H(HETATM   13 1HT3 HET A   1)   -0.94922919  *  -0.95495775  *   1.68071725  *
    14       H(HETATM   14 2HT3 HET A   1)   -2.27898964  *  -0.16387953  *   0.73859362  *
    15       H(HETATM   15 1HT4 HET A   1)    0.27753801  *   1.21143642  *   1.77742092  *
    16       H(HETATM   16 2HT4 HET A   1)   -1.04543354  *   2.00789267  *   0.83130944  *
 

 General Reference for PM7:
 "Optimization of Parameters for Semiempirical Methods VI: More Modifications to the 
 NDDO Approximations and Re-optimization of Parameters", J. J. P. Stewart, J. Mol. Mod., 1:32, 19 (2013)
 http://www.springerlink.com/openurl.asp?genre=article&id=doi:10.1007/s00894-012-1667-x

           Empirical Formula: C6 H10  =    16 atoms



      MOLECULAR POINT GROUP   :   Cs  


      RHF CALCULATION, NO. OF DOUBLY OCCUPIED LEVELS =   17



          HEAT OF FORMATION =      60.226267 KCALS/MOLE


          CARTESIAN COORDINATE DERIVATIVES

   NUMBER  ATOM         X            Y            Z

     1       C     -0.199426     0.077706     0.017928
     2       C     -0.010541    -0.059605    -0.151938
     3       C     -0.073981    -0.135408     0.011444
     4       C     -0.179046    -0.006886     0.020767
     5       C     -0.119529    -0.157579    -0.205876
     6       C      0.035893    -0.033593    -0.018562
     7       H      0.101427    -0.004566    -0.002631
     8       H      0.091804     0.035496     0.009703
     9       H      0.077045     0.053653     0.018947
    10       H      0.064950     0.002322    -0.013966
    11       H      0.096868    -0.027924     0.003783
    12       H      0.079791     0.018026     0.013971
    13       H      0.042087     0.025921     0.083643
    14       H     -0.023700     0.066456     0.037132
    15       H      0.046480     0.075082     0.113974
    16       H     -0.030126     0.070895     0.061675
 


          GRADIENT NORM =   0.55740

          MOLECULAR WEIGHT =   82.14



          ROTATIONAL CONSTANTS IN CM(-1)

          A =    0.14660174   B =    0.12850093   C =    0.08197068



           PRINCIPAL MOMENTS OF INERTIA IN UNITS OF 10**(-40)*GRAM-CM**2

          A =      190.9444   B =      217.8410   C =      341.4974


          ORIENTATION OF MOLECULE IN FORCE CALCULATION

    NO.       ATOM         X         Y         Z

     1          C      -0.7985   -1.1633   -0.6274
     2          C       0.5799   -1.1633   -0.6274
     3          C       1.2981    0.0436   -0.6274
     4          C       0.6417    1.2556   -0.6299
     5          C      -0.4347    1.0637    1.1959
     6          C      -1.1368   -0.1259    1.2001
     7          H      -1.3758   -0.3930   -1.1237
     8          H      -1.3578   -2.0737   -0.4677
     9          H       1.1760    2.1814   -0.4709
    10          H      -0.3096    1.3966   -1.1280
    11          H       1.1259   -2.0927   -0.4709
    12          H       2.3753    0.0074   -0.4696
    13          H      -0.7758   -0.9811    1.7554
    14          H      -2.2008   -0.1476    1.0095
    15          H       0.4886    1.1657    1.7504
    16          H      -0.9300    2.0046    0.9998


    FIRST DERIVATIVES WILL BE USED IN THE CALCULATION OF SECOND DERIVATIVES

    FOR POINT-GROUP Cs   THERE ARE   2 UNIQUE SYMMETRY FUNCTIONS.

 STEP:   1 TIME =     0.02 SECS, INTEGRAL =      0.02 TIME LEFT: 172799.98
 STEP:   2 TIME =     0.00 SECS, INTEGRAL =      0.02 TIME LEFT: 172799.98
 STEP:   3 TIME =     0.02 SECS, INTEGRAL =      0.03 TIME LEFT: 172799.97
 STEP:   4 TIME =     0.00 SECS, INTEGRAL =      0.03 TIME LEFT: 172799.97
 STEP:   5 TIME =     0.00 SECS, INTEGRAL =      0.03 TIME LEFT: 172799.97
 STEP:   6 TIME =     0.02 SECS, INTEGRAL =      0.05 TIME LEFT: 172799.95
 STEP:   7                       INTEGRAL =      0.05 TIME LEFT: 172799.95
 STEP:   8                       INTEGRAL =      0.05 TIME LEFT: 172799.95
 STEP:   9                       INTEGRAL =      0.05 TIME LEFT: 172799.95
 STEP:  10                       INTEGRAL =      0.05 TIME LEFT: 172799.95
 STEP:  11                       INTEGRAL =      0.05 TIME LEFT: 172799.95
 STEP:  12                       INTEGRAL =      0.05 TIME LEFT: 172799.95
 STEP:  13 TIME =     0.00 SECS, INTEGRAL =      0.05 TIME LEFT: 172799.95
 STEP:  14 TIME =     0.02 SECS, INTEGRAL =      0.06 TIME LEFT: 172799.94
 STEP:  15 TIME =     0.00 SECS, INTEGRAL =      0.06 TIME LEFT: 172799.94
 STEP:  16                       INTEGRAL =      0.06 TIME LEFT: 172799.94
 STEP:  17                       INTEGRAL =      0.06 TIME LEFT: 172799.94
 STEP:  18                       INTEGRAL =      0.06 TIME LEFT: 172799.94
 STEP:  19 TIME =     0.02 SECS, INTEGRAL =      0.08 TIME LEFT: 172799.92
 STEP:  20 TIME =     0.00 SECS, INTEGRAL =      0.08 TIME LEFT: 172799.92
 STEP:  21 TIME =     0.00 SECS, INTEGRAL =      0.08 TIME LEFT: 172799.92
 STEP:  22 TIME =     0.02 SECS, INTEGRAL =      0.09 TIME LEFT: 172799.91
 STEP:  23 TIME =     0.00 SECS, INTEGRAL =      0.09 TIME LEFT: 172799.91
 STEP:  24 TIME =     0.02 SECS, INTEGRAL =      0.11 TIME LEFT: 172799.89
 STEP:  25                       INTEGRAL =      0.11 TIME LEFT: 172799.89
 STEP:  26                       INTEGRAL =      0.11 TIME LEFT: 172799.89
 STEP:  27                       INTEGRAL =      0.11 TIME LEFT: 172799.89
 STEP:  28                       INTEGRAL =      0.11 TIME LEFT: 172799.89
 STEP:  29                       INTEGRAL =      0.11 TIME LEFT: 172799.89
 STEP:  30                       INTEGRAL =      0.11 TIME LEFT: 172799.89
 STEP:  31 TIME =     0.00 SECS, INTEGRAL =      0.11 TIME LEFT: 172799.89
 STEP:  32 TIME =     0.02 SECS, INTEGRAL =      0.12 TIME LEFT: 172799.88
 STEP:  33 TIME =     0.00 SECS, INTEGRAL =      0.12 TIME LEFT: 172799.88
 STEP:  34                       INTEGRAL =      0.12 TIME LEFT: 172799.88
 STEP:  35                       INTEGRAL =      0.12 TIME LEFT: 172799.88
 STEP:  36                       INTEGRAL =      0.12 TIME LEFT: 172799.88
 STEP:  37 TIME =     0.00 SECS, INTEGRAL =      0.12 TIME LEFT: 172799.88
 STEP:  38 TIME =     0.02 SECS, INTEGRAL =      0.14 TIME LEFT: 172799.86
 STEP:  39 TIME =     0.00 SECS, INTEGRAL =      0.14 TIME LEFT: 172799.86
 STEP:  40 TIME =     0.02 SECS, INTEGRAL =      0.16 TIME LEFT: 172799.84
 STEP:  41 TIME =     0.00 SECS, INTEGRAL =      0.16 TIME LEFT: 172799.84
 STEP:  42 TIME =     0.00 SECS, INTEGRAL =      0.16 TIME LEFT: 172799.84
 STEP:  43                       INTEGRAL =      0.16 TIME LEFT: 172799.84
 STEP:  44                       INTEGRAL =      0.16 TIME LEFT: 172799.84
 STEP:  45                       INTEGRAL =      0.16 TIME LEFT: 172799.84
 STEP:  46                       INTEGRAL =      0.16 TIME LEFT: 172799.84
 STEP:  47                       INTEGRAL =      0.16 TIME LEFT: 172799.84
 STEP:  48                       INTEGRAL =      0.16 TIME LEFT: 172799.84

(To convert to Hartree/Bohr^2, multiply by (10^(-21) x N x a0^2)/(4.184 x 627.51) =  0.0642)


           FORCE MATRIX IN MILLIDYNES/ANGSTROM


                  C  1       C  2       C  3       C  4       C  5       C  6
 ------------------------------------------------------------------------------
     C    1  13.308573
     C    2   7.136049  15.216839
     C    3   2.307300   5.517984  15.216839
     C    4   1.656265   2.309731   7.136049  13.308573
     C    5   1.998551   1.794656   2.090390   2.275999  12.739823
     C    6   2.274083   2.090334   1.795029   1.997928   7.014752  12.739823
     H    7   3.482002   0.806023   0.216622   0.193116   0.214967   0.497225
     H    8   3.540003   0.764083   0.104402   0.028768   0.046503   0.180029
     H    9   0.029638   0.104975   0.763913   3.539768   0.181068   0.047828
     H   10   0.197090   0.220997   0.806699   3.482386   0.501880   0.219468
     H   11   0.793535   3.452983   0.766638   0.113358   0.061056   0.073387
     H   12   0.116880   0.767233   3.453094   0.794800   0.077498   0.065080
     H   13   0.398249   0.140215   0.134492   0.147796   0.810263   3.524115
     H   14   0.429623   0.154643   0.144909   0.154649   0.811835   3.515032
     H   15   0.153086   0.139382   0.144389   0.401505   3.523815   0.810779
     H   16   0.155577   0.145828   0.156576   0.431114   3.514381   0.813392


                  H  7       H  8       H  9       H 10       H 11       H 12
 ------------------------------------------------------------------------------
     H    7   4.251260
     H    8   0.453250   4.298195
     H    9   0.006506   0.006380   4.298195
     H   10   0.029684   0.006528   0.453250   4.251260
     H   11   0.085993   0.046100   0.008648   0.008136   4.386727
     H   12   0.008410   0.008713   0.046147   0.085754   0.031282   4.386727
     H   13   0.011778   0.019254   0.004118   0.015013   0.004792   0.006037
     H   14   0.030931   0.019139   0.005075   0.014788   0.007417   0.006499
     H   15   0.015197   0.004271   0.019406   0.011813   0.006014   0.004507
     H   16   0.014651   0.004976   0.019145   0.030916   0.006256   0.007101


                  H 13       H 14       H 15       H 16
 ------------------------------------------------------
     H   13   4.290372
     H   14   0.448573   4.283674
     H   15   0.056937   0.080148   4.290372
     H   16   0.080804   0.058807   0.448573   4.283674


          HEAT OF FORMATION =      60.226267 KCALS/MOLE

          ZERO POINT ENERGY      82.818 KCAL/MOL

         NOTE: SYSTEM IS NOT A GROUND STATE, THEREFORE ZERO POINT
         ENERGY IS NOT MEANINGFULL. ZERO POINT ENERGY PRINTED
         DOES NOT INCLUDE THE  1 IMAGINARY FREQUENCIES


           NORMAL COORDINATE ANALYSIS (Total motion = 1 Angstrom)


   Root No.       1         2         3         4         5         6         7         8

                 1 A'      1 A"      2 A"      2 A'      3 A'      3 A"      4 A"      5 A"  

                -847.9     147.7     270.7     272.3     374.6     406.4     527.2     603.7
  
           1    0.0277    0.0141    0.0054   -0.0136    0.0283   -0.0027    0.0094   -0.0342
           2   -0.0463   -0.0218   -0.0487    0.0214    0.0680   -0.0002   -0.0079   -0.0152
           3   -0.0776    0.0048   -0.0520   -0.0373   -0.0067   -0.0224   -0.0428   -0.0136
           4   -0.0248    0.0137    0.0015   -0.0141    0.0313   -0.0042    0.0045   -0.0304
           5   -0.0169    0.0009   -0.0256    0.0077   -0.0182   -0.0055    0.0013    0.0689
           6   -0.0030    0.0102   -0.0335    0.0473   -0.0102    0.0504    0.0218   -0.0034
           7    0.0031   -0.0058   -0.0231   -0.0133    0.0308   -0.0030   -0.0011    0.0751
           8    0.0299    0.0124   -0.0107    0.0089   -0.0189   -0.0066    0.0044    0.0059
           9   -0.0031   -0.0102    0.0336    0.0473   -0.0102   -0.0503   -0.0219    0.0032
          10    0.0537   -0.0259   -0.0452   -0.0254   -0.0465    0.0012   -0.0113    0.0030
          11   -0.0027    0.0020   -0.0181    0.0016   -0.0572   -0.0024    0.0048   -0.0373
          12   -0.0775   -0.0048    0.0523   -0.0372   -0.0063    0.0224    0.0428    0.0137
          13   -0.0501    0.0448    0.0198    0.0329   -0.0158   -0.0134    0.0235    0.0015
          14   -0.0099   -0.0215    0.0561   -0.0192    0.0094    0.0166   -0.0205    0.0003
          15    0.0818    0.0241    0.0059   -0.0081    0.0209    0.0264   -0.0702   -0.0036
          16   -0.0149   -0.0403    0.0399    0.0325   -0.0156    0.0209   -0.0288   -0.0005
          17    0.0490    0.0291    0.0440   -0.0197    0.0096   -0.0040    0.0112    0.0016
          18    0.0815   -0.0242   -0.0062   -0.0080    0.0210   -0.0265    0.0704    0.0035
          19   -0.0073    0.0046   -0.0108    0.0177    0.0807    0.0334    0.0249   -0.1369
          20    0.0248   -0.0421   -0.0389    0.0352    0.1191   -0.0138    0.0279   -0.1042
          21    0.0758   -0.0155   -0.0131   -0.0517    0.0073   -0.0858   -0.0002   -0.0176
          22   -0.0015    0.0279    0.0131   -0.0376   -0.0341   -0.0241   -0.0074    0.0711
          23   -0.0201   -0.0267   -0.0516    0.0304    0.1006    0.0162    0.0008   -0.0773
          24   -0.0377    0.0241   -0.0514   -0.0720   -0.0508   -0.0063   -0.0757    0.0351
          25    0.0169   -0.0368   -0.0514   -0.0447   -0.1049    0.0258    0.0044   -0.1019
          26    0.0107    0.0117   -0.0127    0.0182   -0.0180   -0.0135   -0.0057    0.0257
          27   -0.0375   -0.0240    0.0517   -0.0720   -0.0505    0.0063    0.0757   -0.0349
          28   -0.0250   -0.0392   -0.0290   -0.0227   -0.0665   -0.0277    0.0127   -0.0266
          29   -0.0049   -0.0158   -0.0278   -0.0326   -0.1276    0.0232    0.0352   -0.1699
          30    0.0761    0.0157    0.0134   -0.0515    0.0081    0.0857    0.0001    0.0184
          31    0.0114    0.0291    0.0179   -0.0292   -0.0026   -0.0108    0.0092   -0.0519
          32    0.0107    0.0128   -0.0221    0.0107   -0.0375    0.0095    0.0130    0.0522
          33    0.0445    0.0269   -0.0646    0.1106   -0.0391    0.1621    0.0787    0.0335
          34   -0.0038   -0.0027   -0.0277   -0.0229    0.0317    0.0130    0.0068    0.0705
          35   -0.0148    0.0315    0.0056    0.0211    0.0199   -0.0058    0.0139   -0.0210
          36    0.0448   -0.0271    0.0645    0.1106   -0.0393   -0.1620   -0.0790   -0.0335
          37    0.0107   -0.1296    0.0649    0.0469   -0.0138    0.0393   -0.0296    0.0062
          38   -0.0238   -0.0048    0.0374   -0.0273    0.0048   -0.0065    0.0178    0.0006
          39   -0.0477   -0.0198   -0.0365   -0.0284    0.0119   -0.0402    0.0730   -0.0024
          40    0.0102   -0.0317    0.0462    0.0284   -0.0153    0.0228   -0.0256   -0.0010
          41   -0.0238    0.1100    0.0202   -0.0186    0.0059   -0.0248    0.0110   -0.0000
          42   -0.0485   -0.0766   -0.0254    0.0174    0.0197   -0.0377    0.0768    0.0095
          43    0.0257    0.0574    0.0021    0.0463   -0.0107   -0.0244    0.0297   -0.0025
          44    0.0014   -0.1163    0.0751   -0.0284    0.0100    0.0317   -0.0181    0.0058
          45   -0.0476    0.0202    0.0362   -0.0284    0.0118    0.0402   -0.0730    0.0024
          46    0.0255    0.1121   -0.0041    0.0301   -0.0125   -0.0325    0.0217    0.0004
          47    0.0020    0.0247    0.0504   -0.0159    0.0108    0.0085   -0.0177   -0.0010
          48   -0.0484    0.0762    0.0251    0.0174    0.0196    0.0377   -0.0766   -0.0096


   Root No.       9        10        11        12        13        14        15        16

                 4 A'      5 A'      6 A"      6 A'      7 A'      7 A"      8 A'      9 A'  

                 680.5     733.7     814.2     908.0     944.3     945.9     953.4     997.9
  
           1    0.0028    0.0031   -0.0045    0.0011    0.0051   -0.0024    0.0024    0.0121
           2   -0.0059    0.0108   -0.0116   -0.0002   -0.0006    0.0000    0.0106    0.0267
           3    0.0037   -0.0059    0.0142    0.0018    0.0188   -0.0001   -0.0063   -0.0063
           4    0.0049    0.0043   -0.0059    0.0014   -0.0057   -0.0045    0.0113   -0.0011
           5   -0.0031   -0.0013    0.0109   -0.0014   -0.0046    0.0032    0.0093    0.0079
           6    0.0053   -0.0194    0.0259   -0.0029   -0.0222   -0.0001   -0.0089    0.0127
           7    0.0051    0.0032    0.0123    0.0018    0.0013    0.0050   -0.0029   -0.0074
           8   -0.0027   -0.0033   -0.0002   -0.0006    0.0071   -0.0024   -0.0144   -0.0028
           9    0.0053   -0.0193   -0.0259   -0.0029   -0.0223    0.0001   -0.0088    0.0127
          10    0.0065   -0.0081   -0.0081    0.0008    0.0030    0.0012   -0.0082   -0.0178
          11    0.0004   -0.0079   -0.0096   -0.0009   -0.0041   -0.0021   -0.0072   -0.0234
          12    0.0037   -0.0058   -0.0141    0.0018    0.0188    0.0002   -0.0062   -0.0062
          13   -0.0172   -0.0034   -0.0010    0.0109   -0.0013   -0.0174    0.0016   -0.0025
          14    0.0101    0.0003    0.0060   -0.0065   -0.0053    0.0114    0.0112   -0.0086
          15   -0.0110    0.0086    0.0115    0.0040   -0.0144   -0.0087    0.0085   -0.0050
          16   -0.0171   -0.0018    0.0057    0.0109    0.0040    0.0183   -0.0091    0.0064
          17    0.0102    0.0029    0.0019   -0.0065    0.0036   -0.0098   -0.0067    0.0064
          18   -0.0110    0.0086   -0.0115    0.0040   -0.0144    0.0087    0.0086   -0.0050
          19   -0.0050    0.0010   -0.0151   -0.0074   -0.0111    0.0114   -0.0574   -0.0995
          20    0.0009   -0.0575    0.0699    0.0034    0.0701   -0.0005   -0.0513   -0.0186
          21    0.0244   -0.1021    0.1454    0.0192    0.1369   -0.0207   -0.0171    0.0742
          22    0.0079    0.0049    0.0045    0.0020   -0.0192   -0.0071    0.1022    0.1065
          23   -0.0119    0.0367   -0.0526   -0.0017    0.0061    0.0009   -0.0752   -0.0282
          24   -0.0119    0.1575   -0.2001   -0.0020   -0.0373   -0.0156   -0.1045    0.0746
          25    0.0141   -0.0294   -0.0479    0.0025   -0.0146    0.0042    0.1144    0.0757
          26   -0.0013   -0.0209   -0.0200   -0.0010    0.0138   -0.0057   -0.0548   -0.0800
          27   -0.0119    0.1577    0.2003   -0.0020   -0.0374    0.0156   -0.1045    0.0747
          28   -0.0031    0.0508    0.0683   -0.0065   -0.0666   -0.0058    0.0178   -0.0306
          29    0.0041    0.0259    0.0192    0.0050   -0.0228    0.0099    0.0748    0.0967
          30    0.0244   -0.1024   -0.1458    0.0192    0.1372    0.0207   -0.0176    0.0737
          31    0.0071   -0.0084    0.0015   -0.0002   -0.0033   -0.0094   -0.0127   -0.0228
          32   -0.0059    0.0144    0.0052    0.0028    0.0268   -0.0034    0.0048   -0.0132
          33   -0.0197    0.1272   -0.0268    0.0294    0.1673   -0.0174    0.0637   -0.0368
          34    0.0085   -0.0163    0.0040   -0.0024   -0.0247    0.0015   -0.0100    0.0006
          35   -0.0035    0.0013    0.0039   -0.0010   -0.0091   -0.0098    0.0093    0.0260
          36   -0.0196    0.1272    0.0268    0.0295    0.1674    0.0175    0.0637   -0.0370
          37    0.1224    0.0200   -0.0008   -0.1436    0.0230   -0.0896   -0.0254    0.0222
          38   -0.0335   -0.0027   -0.0076   -0.1200    0.0061    0.0629    0.0245   -0.0210
          39   -0.1566   -0.0119   -0.0216   -0.0992   -0.0188    0.1796    0.0655   -0.0564
          40   -0.0474   -0.0039    0.0051   -0.0092    0.0080    0.0486   -0.0191    0.0179
          41   -0.0107   -0.0046    0.0076    0.2145   -0.0274   -0.0351    0.0094   -0.0187
          42    0.1890    0.0267   -0.0180    0.0179   -0.0352   -0.1890    0.0702   -0.0722
          43    0.0871    0.0118   -0.0063    0.0371    0.0055    0.0973   -0.0334    0.0289
          44   -0.0926   -0.0164   -0.0041    0.1829   -0.0232   -0.0499    0.0111   -0.0098
          45   -0.1564   -0.0119    0.0216   -0.1002   -0.0186   -0.1797    0.0656   -0.0565
          46   -0.0126    0.0023    0.0043   -0.1931    0.0278   -0.0534   -0.0172    0.0248
          47    0.0477    0.0058    0.0082   -0.0937    0.0058    0.0270    0.0126   -0.0072
          48    0.1888    0.0267    0.0179    0.0189   -0.0354    0.1890    0.0702   -0.0723


   Root No.      17        18        19        20        21        22        23        24

                 8 A"      9 A"     10 A"     10 A'     11 A"     12 A"     11 A'     13 A"  

                1015.5    1081.6    1092.5    1131.4    1147.7    1173.3    1232.6    1303.9
  
           1   -0.0058    0.0121   -0.0044    0.0004   -0.0002   -0.0007   -0.0235   -0.0222
           2   -0.0068    0.0357    0.0037   -0.0060    0.0085    0.0025   -0.0052    0.0150
           3   -0.0066   -0.0130    0.0159   -0.0237    0.0200    0.0044    0.0028   -0.0024
           4   -0.0029    0.0056    0.0024    0.0020   -0.0016    0.0007    0.0132    0.0028
           5    0.0125   -0.0298   -0.0024   -0.0070   -0.0026   -0.0010   -0.0394   -0.0157
           6    0.0483    0.0199   -0.0107    0.0067   -0.0068   -0.0009   -0.0026    0.0022
           7    0.0122   -0.0290   -0.0032    0.0071   -0.0015   -0.0013    0.0410   -0.0152
           8    0.0032   -0.0093    0.0010    0.0016   -0.0026    0.0002    0.0072   -0.0050
           9   -0.0484   -0.0198    0.0107    0.0066    0.0069    0.0009   -0.0027   -0.0021
          10   -0.0032    0.0257    0.0053    0.0054    0.0076    0.0025   -0.0066    0.0237
          11   -0.0082    0.0277   -0.0022    0.0024    0.0037    0.0006    0.0233   -0.0124
          12    0.0066    0.0128   -0.0159   -0.0237   -0.0200   -0.0045    0.0028    0.0024
          13    0.0036   -0.0013   -0.0013    0.0058    0.0175   -0.0413   -0.0010    0.0010
          14   -0.0020    0.0006    0.0019   -0.0011   -0.0070    0.0248    0.0015   -0.0009
          15   -0.0028    0.0020    0.0135   -0.0146   -0.0252   -0.0275    0.0038   -0.0029
          16   -0.0035    0.0012    0.0023    0.0037   -0.0144    0.0415   -0.0018   -0.0013
          17    0.0022   -0.0008   -0.0004   -0.0047    0.0122   -0.0244    0.0001    0.0005
          18    0.0028   -0.0020   -0.0135   -0.0146    0.0251    0.0275    0.0038    0.0029
          19    0.0441   -0.1226    0.0289   -0.0368    0.0188    0.0036   -0.0632   -0.1022
          20   -0.0264   -0.0609   -0.0559    0.0395   -0.0417   -0.0225   -0.0442   -0.0450
          21   -0.0977    0.0268   -0.1190    0.0950   -0.0796   -0.0372    0.0007    0.0033
          22   -0.0312    0.1564    0.0135   -0.0161    0.0248    0.0025   -0.0452   -0.0447
          23    0.0172   -0.0686   -0.0318    0.0249   -0.0250   -0.0046   -0.0008    0.0216
          24    0.0235    0.0007   -0.1161    0.0894   -0.0693   -0.0200   -0.0231   -0.0214
          25    0.0299   -0.1346   -0.0341   -0.0293   -0.0336   -0.0052   -0.0209    0.0403
          26   -0.0194    0.1051   -0.0026    0.0028    0.0103    0.0001    0.0401   -0.0290
          27   -0.0235   -0.0008    0.1162    0.0895    0.0694    0.0200   -0.0231    0.0214
          28   -0.0439    0.0045   -0.0625   -0.0519   -0.0454   -0.0214    0.0089    0.0089
          29    0.0267   -0.1369   -0.0005    0.0141   -0.0028   -0.0073    0.0766   -0.1113
          30    0.0977   -0.0261    0.1192    0.0951    0.0797    0.0374    0.0003   -0.0028
          31    0.0193   -0.0398    0.0032   -0.0068   -0.0178   -0.0007   -0.2039    0.2283
          32   -0.0200   -0.0615    0.0029   -0.0138   -0.0102   -0.0021   -0.1590    0.1202
          33   -0.2424   -0.0338    0.0140   -0.0092    0.0067   -0.0032    0.0135   -0.0048
          34   -0.0260   -0.0352    0.0009    0.0089   -0.0005   -0.0015    0.0431   -0.0026
          35    0.0087   -0.0640    0.0042    0.0125   -0.0206   -0.0016    0.2551    0.2580
          36    0.2424    0.0342   -0.0140   -0.0092   -0.0066    0.0032    0.0121    0.0036
          37    0.0139   -0.0110   -0.0159   -0.0391    0.0652   -0.1085    0.0087    0.0079
          38    0.0006    0.0079    0.0434    0.0515   -0.0340   -0.1305   -0.0068    0.0006
          39   -0.0087    0.0189    0.0717    0.0993   -0.0957   -0.0727   -0.0141   -0.0025
          40   -0.0047   -0.0007   -0.0184   -0.0186    0.0161    0.0273    0.0034    0.0031
          41   -0.0041   -0.0016    0.0210    0.0334   -0.0532    0.1829   -0.0066   -0.0034
          42    0.0194    0.0071    0.0987    0.1031   -0.1147   -0.0039   -0.0240   -0.0212
          43   -0.0061    0.0122    0.0455   -0.0636   -0.0606   -0.0631    0.0100   -0.0032
          44    0.0126   -0.0060    0.0062    0.0104    0.0418   -0.1571   -0.0046    0.0073
          45    0.0087   -0.0189   -0.0718    0.0995    0.0957    0.0737   -0.0140    0.0025
          46   -0.0014   -0.0011    0.0270   -0.0380   -0.0541    0.1480    0.0073   -0.0044
          47   -0.0062   -0.0014   -0.0067    0.0010   -0.0105    0.1109   -0.0001    0.0012
          48   -0.0194   -0.0070   -0.0987    0.1032    0.1149    0.0029   -0.0240    0.0212


   Root No.      25        26        27        28        29        30        31        32

                12 A'     13 A'     14 A"     15 A"     14 A'     15 A'     16 A"     16 A'  

                1358.0    1359.7    1381.4    1382.1    1442.4    1504.5    1665.1    1666.6
  
           1   -0.0010   -0.0107   -0.0110    0.0121    0.0473   -0.0121   -0.1053    0.0644
           2   -0.0033    0.0096    0.0011   -0.0015   -0.0052   -0.0155   -0.0042    0.0110
           3   -0.0017   -0.0016   -0.0025    0.0004    0.0067   -0.0180   -0.0050    0.0063
           4    0.0005    0.0094   -0.0074    0.0098   -0.0054    0.0425    0.1260   -0.1003
           5    0.0042   -0.0260   -0.0023    0.0027    0.0405    0.0403    0.0020   -0.0619
           6   -0.0001    0.0030   -0.0004    0.0011   -0.0006    0.0006    0.0028    0.0006
           7   -0.0034    0.0274    0.0015   -0.0022   -0.0382   -0.0153   -0.0581    0.0068
           8   -0.0023    0.0041   -0.0076    0.0099   -0.0145   -0.0564    0.1117    0.1178
           9   -0.0001    0.0029    0.0004   -0.0012   -0.0004    0.0009   -0.0032   -0.0001
          10    0.0024   -0.0135    0.0062   -0.0071    0.0271    0.0077    0.0463    0.0208
          11    0.0025    0.0049   -0.0092    0.0100   -0.0392    0.0180   -0.0946   -0.0618
          12   -0.0017   -0.0016    0.0025   -0.0004    0.0068   -0.0182    0.0053    0.0066
          13    0.0066    0.0007   -0.0078   -0.0063   -0.0044    0.0329    0.0027    0.0531
          14    0.0097    0.0030   -0.0132   -0.0127   -0.0109    0.0719    0.0019    0.0856
          15   -0.0016    0.0021   -0.0000    0.0002   -0.0046    0.0171   -0.0043   -0.0051
          16   -0.0054   -0.0023   -0.0079   -0.0081    0.0075   -0.0476    0.0004   -0.0502
          17   -0.0104   -0.0021   -0.0131   -0.0116    0.0091   -0.0631    0.0033   -0.0875
          18   -0.0015    0.0021    0.0001   -0.0001   -0.0046    0.0176    0.0043   -0.0045
          19    0.0225   -0.1351    0.0711   -0.0777   -0.0673   -0.0223   -0.0154    0.0078
          20    0.0222   -0.0825    0.0608   -0.0615   -0.0899    0.0300    0.0576   -0.0454
          21    0.0081    0.0108   -0.0051    0.0119   -0.0008    0.0654   -0.0002   -0.0221
          22    0.0122   -0.0859    0.0836   -0.0882   -0.1142   -0.0529   -0.0128    0.0370
          23   -0.0064    0.0448   -0.0525    0.0558    0.0899    0.0293   -0.0488    0.0058
          24    0.0206   -0.0331    0.0275   -0.0287   -0.0440    0.0331    0.0165   -0.0027
          25    0.0114   -0.0804   -0.0860    0.0911   -0.1334   -0.0510   -0.0369    0.0122
          26   -0.0076    0.0542    0.0485   -0.0509    0.0576    0.0329   -0.0345   -0.0352
          27    0.0206   -0.0331   -0.0275    0.0286   -0.0440    0.0330   -0.0162   -0.0026
          28   -0.0089    0.0085    0.0198   -0.0173    0.0472   -0.0369    0.0580    0.0435
          29   -0.0303    0.1581    0.0915   -0.0977    0.1019    0.0057    0.0138    0.0145
          30    0.0082    0.0099    0.0046   -0.0114   -0.0015    0.0654   -0.0001   -0.0223
          31   -0.0188    0.1278    0.0356   -0.0453   -0.0843   -0.0108   -0.0834   -0.0204
          32   -0.0075    0.0460    0.0238   -0.0302   -0.0155    0.0024   -0.0898   -0.0036
          33    0.0014   -0.0015    0.0002   -0.0002   -0.0092    0.0139    0.0141   -0.0154
          34   -0.0023    0.0202    0.0040   -0.0051   -0.0264   -0.0072   -0.0394   -0.0066
          35    0.0202   -0.1342    0.0427   -0.0542    0.0814    0.0087   -0.1161    0.0198
          36    0.0013   -0.0009   -0.0005    0.0005   -0.0096    0.0139   -0.0133   -0.0155
          37   -0.1710   -0.0185    0.1013    0.0918   -0.0187    0.0706   -0.0043    0.0367
          38   -0.1024   -0.0162    0.0458    0.0422    0.0051   -0.0342   -0.0026   -0.0252
          39   -0.0369   -0.0093    0.0225    0.0211    0.0092   -0.0276   -0.0046    0.0246
          40   -0.0131   -0.0001   -0.0043   -0.0039    0.0018   -0.0233    0.0032   -0.0437
          41   -0.1935   -0.0300    0.1080    0.0926   -0.0061    0.0174   -0.0116    0.0235
          42    0.0482   -0.0070   -0.0333   -0.0311    0.0259   -0.0837   -0.0164   -0.0076
          43    0.0088    0.0054   -0.0079   -0.0065   -0.0133    0.0634   -0.0003    0.0396
          44    0.1989    0.0239    0.1107    0.1007    0.0141   -0.0459   -0.0050   -0.0202
          45   -0.0379   -0.0095   -0.0230   -0.0216    0.0092   -0.0276    0.0046    0.0246
          46    0.1641    0.0263    0.0972    0.0834    0.0064   -0.0268   -0.0116   -0.0417
          47    0.1036    0.0143    0.0477    0.0407    0.0015    0.0117   -0.0026    0.0272
          48    0.0472   -0.0072    0.0328    0.0307    0.0258   -0.0838    0.0164   -0.0076


   Root No.      33        34        35        36        37        38        39        40

                17 A"     17 A'     18 A"     18 A'     19 A"     19 A'     20 A"     20 A'  

                2692.6    2701.5    2702.9    2727.3    2755.8    2756.4    2761.5    2768.4
  
           1    0.0006   -0.0027    0.0022    0.0001   -0.0020    0.0054   -0.0121    0.0011
           2   -0.0041    0.0214   -0.0194    0.0023   -0.0086    0.0037   -0.0029    0.0058
           3    0.0018   -0.0093    0.0082   -0.0009    0.0019    0.0007   -0.0026   -0.0016
           4   -0.0002    0.0025   -0.0018    0.0008    0.0094   -0.0019   -0.0020   -0.0115
           5    0.0004   -0.0017    0.0029   -0.0006   -0.0212    0.0037    0.0025    0.0163
           6   -0.0000   -0.0000   -0.0002   -0.0000    0.0032   -0.0006   -0.0006   -0.0028
           7    0.0004    0.0027    0.0034    0.0009   -0.0231   -0.0042    0.0031   -0.0198
           8    0.0000   -0.0014   -0.0002   -0.0004   -0.0018   -0.0001   -0.0005    0.0024
           9    0.0000   -0.0000    0.0001   -0.0000   -0.0031   -0.0006    0.0006   -0.0028
          10   -0.0039   -0.0202   -0.0181   -0.0020   -0.0066   -0.0007    0.0032   -0.0046
          11   -0.0014   -0.0078   -0.0073   -0.0012   -0.0059   -0.0065   -0.0120   -0.0037
          12   -0.0018   -0.0091   -0.0081   -0.0009   -0.0018    0.0007    0.0026   -0.0015
          13    0.0181    0.0017   -0.0032   -0.0221   -0.0006    0.0034    0.0028   -0.0018
          14   -0.0104   -0.0017    0.0019    0.0121   -0.0008    0.0105    0.0061   -0.0044
          15    0.0096    0.0006   -0.0020   -0.0118   -0.0003    0.0034    0.0021   -0.0018
          16   -0.0178    0.0023    0.0032   -0.0212   -0.0004   -0.0077    0.0040    0.0030
          17    0.0110   -0.0007   -0.0019    0.0136   -0.0009   -0.0080    0.0054    0.0036
          18   -0.0096    0.0006    0.0020   -0.0118    0.0003    0.0034   -0.0022   -0.0018
          19   -0.0269    0.1293   -0.1137    0.0094   -0.0114   -0.0213    0.0669    0.0145
          20    0.0323   -0.1488    0.1327   -0.0097    0.0057    0.0316   -0.0902   -0.0122
          21   -0.0205    0.1009   -0.0893    0.0082   -0.0056   -0.0192    0.0570    0.0087
          22    0.0163   -0.0899    0.0832   -0.0127    0.0612   -0.0477    0.0814   -0.0324
          23    0.0214   -0.1230    0.1146   -0.0188    0.0910   -0.0741    0.1297   -0.0482
          24   -0.0033    0.0199   -0.0185    0.0033   -0.0163    0.0139   -0.0237    0.0083
          25    0.0112    0.0656    0.0614    0.0105    0.0511    0.0427    0.0756    0.0270
          26    0.0245    0.1376    0.1277    0.0201    0.0971    0.0773    0.1333    0.0515
          27    0.0032    0.0190    0.0177    0.0031    0.0156    0.0134    0.0228    0.0079
          28    0.0412    0.1926    0.1710    0.0130    0.0104   -0.0380   -0.1113    0.0176
          29   -0.0082   -0.0426   -0.0365   -0.0036   -0.0073    0.0037    0.0158   -0.0070
          30    0.0204    0.1006    0.0890    0.0082    0.0056   -0.0191   -0.0568    0.0087
          31    0.0047   -0.0278    0.0300   -0.0067   -0.1605    0.0264    0.0217    0.1308
          32   -0.0087    0.0506   -0.0534    0.0116    0.2717   -0.0454   -0.0354   -0.2226
          33    0.0014   -0.0076    0.0081   -0.0016   -0.0427    0.0071    0.0056    0.0347
          34   -0.0099   -0.0578   -0.0613   -0.0134    0.3155    0.0525   -0.0415    0.2581
          35   -0.0000    0.0004    0.0010    0.0003   -0.0121   -0.0017    0.0023   -0.0092
          36   -0.0014   -0.0074   -0.0080   -0.0015    0.0418    0.0070   -0.0055    0.0340
          37    0.0542   -0.0035   -0.0096    0.0595   -0.0042   -0.0476    0.0257    0.0217
          38   -0.1611    0.0119    0.0288   -0.1808    0.0105    0.1103   -0.0628   -0.0511
          39    0.1005   -0.0066   -0.0187    0.1110   -0.0069   -0.0718    0.0400    0.0336
          40    0.1880   -0.0232   -0.0342    0.1930    0.0100    0.1501   -0.0741   -0.0626
          41    0.0129   -0.0019   -0.0021    0.0161   -0.0000    0.0018   -0.0018   -0.0004
          42    0.0297   -0.0040   -0.0051    0.0308    0.0015    0.0280   -0.0142   -0.0114
          43   -0.1677   -0.0121    0.0300    0.1877    0.0112   -0.1199   -0.0676    0.0553
          44   -0.0293   -0.0026    0.0053    0.0340    0.0013   -0.0109   -0.0074    0.0053
          45   -0.0999   -0.0066    0.0186    0.1103    0.0069   -0.0714   -0.0398    0.0334
          46   -0.0780   -0.0093    0.0144    0.0776   -0.0047    0.0699    0.0337   -0.0295
          47    0.1714    0.0213   -0.0311   -0.1774    0.0087   -0.1328   -0.0660    0.0552
          48   -0.0303   -0.0041    0.0052    0.0314   -0.0016    0.0285    0.0144   -0.0116


   Root No.      41        42

                21 A'     21 A"  

                2771.5    2775.0
  
           1    0.0126   -0.0067
           2    0.0029   -0.0009
           3    0.0023   -0.0007
           4    0.0040   -0.0015
           5   -0.0024    0.0023
           6    0.0007   -0.0003
           7    0.0040    0.0027
           8   -0.0023   -0.0002
           9    0.0007    0.0004
          10    0.0034    0.0024
          11   -0.0125   -0.0063
          12    0.0024    0.0007
          13   -0.0010   -0.0053
          14   -0.0048   -0.0121
          15   -0.0006   -0.0026
          16    0.0038   -0.0081
          17    0.0031   -0.0103
          18   -0.0007    0.0026
          19   -0.0722    0.0368
          20    0.0963   -0.0491
          21   -0.0617    0.0314
          22   -0.0873    0.0419
          23   -0.1391    0.0673
          24    0.0258   -0.0124
          25    0.0810    0.0394
          26    0.1430    0.0689
          27    0.0248    0.0120
          28   -0.1192   -0.0608
          29    0.0175    0.0089
          30   -0.0615   -0.0313
          31   -0.0280    0.0180
          32    0.0467   -0.0294
          33   -0.0074    0.0046
          34   -0.0544   -0.0344
          35    0.0025    0.0019
          36   -0.0073   -0.0045
          37    0.0180   -0.0470
          38   -0.0403    0.1134
          39    0.0268   -0.0722
          40   -0.0682    0.1481
          41   -0.0006    0.0031
          42   -0.0119    0.0271
          43    0.0440    0.1223
          44    0.0035    0.0129
          45    0.0266    0.0717
          46   -0.0319   -0.0677
          47    0.0602    0.1317
          48   -0.0121   -0.0276


           MASS-WEIGHTED COORDINATE ANALYSIS (NORMAL COORDINATES)


   Root No.       1         2         3         4         5         6         7         8

                 1 A'      1 A"      2 A"      2 A'      3 A'      3 A"      4 A"      5 A"  

                -847.9     148.3     270.6     272.3     374.6     406.3     527.2     603.6
  
           1    0.1367    0.1144    0.0343   -0.1042    0.1916   -0.0214    0.0646   -0.2267
           2   -0.2289   -0.1770   -0.3100    0.1631    0.4607   -0.0016   -0.0538   -0.1006
           3   -0.3832    0.0392   -0.3312   -0.2848   -0.0452   -0.1795   -0.2935   -0.0899
           4   -0.1226    0.1115    0.0095   -0.1076    0.2118   -0.0335    0.0306   -0.2017
           5   -0.0833    0.0074   -0.1631    0.0587   -0.1231   -0.0443    0.0085    0.4565
           6   -0.0148    0.0825   -0.2134    0.3614   -0.0690    0.4047    0.1495   -0.0223
           7    0.0153   -0.0467   -0.1473   -0.1019    0.2086   -0.0241   -0.0079    0.4978
           8    0.1477    0.1012   -0.0681    0.0678   -0.1283   -0.0527    0.0304    0.0393
           9   -0.0151   -0.0829    0.2138    0.3615   -0.0691   -0.4040   -0.1505    0.0211
          10    0.2655   -0.2102   -0.2878   -0.1936   -0.3148    0.0095   -0.0775    0.0196
          11   -0.0132    0.0164   -0.1153    0.0122   -0.3877   -0.0188    0.0330   -0.2470
          12   -0.3829   -0.0387    0.3331   -0.2841   -0.0426    0.1796    0.2937    0.0911
          13   -0.2474    0.3646    0.1259    0.2510   -0.1070   -0.1079    0.1606    0.0101
          14   -0.0490   -0.1747    0.3571   -0.1467    0.0633    0.1332   -0.1401    0.0022
          15    0.4041    0.1959    0.0376   -0.0616    0.1417    0.2122   -0.4815   -0.0237
          16   -0.0736   -0.3274    0.2540    0.2484   -0.1059    0.1674   -0.1973   -0.0032
          17    0.2423    0.2369    0.2804   -0.1505    0.0649   -0.0325    0.0768    0.0103
          18    0.4026   -0.1961   -0.0398   -0.0615    0.1419   -0.2129    0.4824    0.0233
          19   -0.0104    0.0109   -0.0198    0.0391    0.1584    0.0777    0.0494   -0.2628
          20    0.0355   -0.0991   -0.0717    0.0779    0.2337   -0.0321    0.0556   -0.2000
          21    0.1085   -0.0366   -0.0244   -0.1144    0.0143   -0.1996   -0.0003   -0.0338
          22   -0.0021    0.0656    0.0243   -0.0832   -0.0670   -0.0561   -0.0147    0.1365
          23   -0.0288   -0.0629   -0.0952    0.0671    0.1974    0.0378    0.0016   -0.1484
          24   -0.0540    0.0567   -0.0947   -0.1594   -0.0998   -0.0146   -0.1503    0.0674
          25    0.0242   -0.0866   -0.0949   -0.0989   -0.2059    0.0600    0.0088   -0.1955
          26    0.0153    0.0276   -0.0234    0.0403   -0.0353   -0.0314   -0.0114    0.0493
          27   -0.0537   -0.0566    0.0953   -0.1593   -0.0992    0.0146    0.1503   -0.0671
          28   -0.0357   -0.0923   -0.0536   -0.0502   -0.1305   -0.0644    0.0252   -0.0510
          29   -0.0070   -0.0373   -0.0513   -0.0721   -0.2503    0.0541    0.0700   -0.3261
          30    0.1089    0.0370    0.0249   -0.1139    0.0159    0.1994    0.0001    0.0355
          31    0.0163    0.0685    0.0330   -0.0647   -0.0051   -0.0251    0.0182   -0.0996
          32    0.0153    0.0300   -0.0407    0.0236   -0.0736    0.0222    0.0259    0.1002
          33    0.0637    0.0634   -0.1190    0.2448   -0.0766    0.3772    0.1562    0.0643
          34   -0.0055   -0.0063   -0.0510   -0.0508    0.0621    0.0303    0.0136    0.1353
          35   -0.0212    0.0742    0.0103    0.0466    0.0391   -0.0135    0.0275   -0.0404
          36    0.0641   -0.0638    0.1188    0.2448   -0.0771   -0.3770   -0.1569   -0.0643
          37    0.0153   -0.3052    0.1197    0.1038   -0.0272    0.0914   -0.0587    0.0119
          38   -0.0340   -0.0112    0.0689   -0.0603    0.0094   -0.0152    0.0353    0.0011
          39   -0.0682   -0.0464   -0.0675   -0.0629    0.0233   -0.0937    0.1450   -0.0046
          40    0.0145   -0.0748    0.0852    0.0629   -0.0300    0.0529   -0.0508   -0.0020
          41   -0.0341    0.2590    0.0373   -0.0412    0.0116   -0.0576    0.0219   -0.0001
          42   -0.0694   -0.1803   -0.0468    0.0384    0.0385   -0.0879    0.1526    0.0183
          43    0.0368    0.1353    0.0038    0.1024   -0.0211   -0.0566    0.0589   -0.0048
          44    0.0020   -0.2737    0.1385   -0.0629    0.0197    0.0738   -0.0359    0.0111
          45   -0.0680    0.0474    0.0669   -0.0629    0.0231    0.0935   -0.1450    0.0045
          46    0.0366    0.2640   -0.0076    0.0666   -0.0244   -0.0756    0.0431    0.0007
          47    0.0029    0.0581    0.0930   -0.0353    0.0211    0.0197   -0.0352   -0.0019
          48   -0.0692    0.1792    0.0463    0.0384    0.0384    0.0878   -0.1521   -0.0185


   Root No.       9        10        11        12        13        14        15        16

                 4 A'      5 A'      6 A"      6 A'      7 A'      7 A"      8 A'      9 A'  

                 680.4     733.7     814.2     908.4     944.3     945.9     953.4     997.9
  
           1    0.0232    0.0294   -0.0375    0.0090    0.0466   -0.0193    0.0248    0.1200
           2   -0.0485    0.1036   -0.0961   -0.0021   -0.0053    0.0001    0.1093    0.2659
           3    0.0301   -0.0561    0.1174    0.0137    0.1726   -0.0013   -0.0643   -0.0629
           4    0.0403    0.0414   -0.0489    0.0116   -0.0526   -0.0361    0.1160   -0.0106
           5   -0.0257   -0.0126    0.0904   -0.0105   -0.0423    0.0259    0.0958    0.0788
           6    0.0434   -0.1849    0.2143   -0.0236   -0.2031   -0.0009   -0.0920    0.1267
           7    0.0419    0.0302    0.1023    0.0147    0.0115    0.0400   -0.0295   -0.0741
           8   -0.0226   -0.0314   -0.0013   -0.0051    0.0651   -0.0195   -0.1478   -0.0280
           9    0.0435   -0.1848   -0.2144   -0.0235   -0.2037    0.0008   -0.0911    0.1267
          10    0.0535   -0.0774   -0.0671    0.0061    0.0273    0.0093   -0.0847   -0.1771
          11    0.0030   -0.0753   -0.0793   -0.0067   -0.0378   -0.0170   -0.0739   -0.2326
          12    0.0301   -0.0553   -0.1168    0.0138    0.1723    0.0014   -0.0635   -0.0619
          13   -0.1418   -0.0324   -0.0085    0.0865   -0.0117   -0.1407    0.0156   -0.0250
          14    0.0835    0.0027    0.0498   -0.0506   -0.0485    0.0926    0.1156   -0.0857
          15   -0.0909    0.0825    0.0953    0.0324   -0.1323   -0.0704    0.0875   -0.0499
          16   -0.1411   -0.0175    0.0474    0.0857    0.0369    0.1486   -0.0942    0.0637
          17    0.0842    0.0276    0.0158   -0.0522    0.0331   -0.0795   -0.0684    0.0632
          18   -0.0910    0.0823   -0.0957    0.0323   -0.1324    0.0703    0.0881   -0.0501
          19   -0.0119    0.0028   -0.0363   -0.0173   -0.0291    0.0267   -0.1712   -0.2866
          20    0.0021   -0.1592    0.1678    0.0072    0.1863   -0.0011   -0.1525   -0.0537
          21    0.0581   -0.2825    0.3490    0.0435    0.3631   -0.0482   -0.0501    0.2138
          22    0.0187    0.0136    0.0110    0.0054   -0.0517   -0.0165    0.3049    0.3069
          23   -0.0283    0.1014   -0.1263   -0.0047    0.0169    0.0021   -0.2243   -0.0813
          24   -0.0284    0.4357   -0.4800   -0.0060   -0.0977   -0.0365   -0.3120    0.2152
          25    0.0335   -0.0814   -0.1149    0.0066   -0.0397    0.0097    0.3412    0.2180
          26   -0.0031   -0.0579   -0.0479   -0.0025    0.0369   -0.0134   -0.1634   -0.2305
          27   -0.0284    0.4363    0.4806   -0.0059   -0.0980    0.0365   -0.3122    0.2154
          28   -0.0074    0.1406    0.1639   -0.0145   -0.1767   -0.0136    0.0527   -0.0882
          29    0.0098    0.0717    0.0459    0.0120   -0.0611    0.0232    0.2229    0.2787
          30    0.0581   -0.2833   -0.3498    0.0436    0.3638    0.0483   -0.0514    0.2125
          31    0.0170   -0.0234    0.0035   -0.0004   -0.0086   -0.0220   -0.0381   -0.0656
          32   -0.0142    0.0397    0.0126    0.0064    0.0710   -0.0079    0.0143   -0.0379
          33   -0.0469    0.3518   -0.0643    0.0681    0.4430   -0.0407    0.1911   -0.1062
          34    0.0204   -0.0450    0.0096   -0.0056   -0.0653    0.0036   -0.0301    0.0019
          35   -0.0082    0.0035    0.0094   -0.0023   -0.0240   -0.0229    0.0278    0.0750
          36   -0.0468    0.3520    0.0643    0.0681    0.4432    0.0410    0.1911   -0.1068
          37    0.2926    0.0553   -0.0018   -0.3299    0.0609   -0.2099   -0.0743    0.0635
          38   -0.0798   -0.0074   -0.0181   -0.2748    0.0158    0.1468    0.0740   -0.0610
          39   -0.3738   -0.0329   -0.0518   -0.2263   -0.0506    0.4200    0.1961   -0.1630
          40   -0.1131   -0.0107    0.0122   -0.0216    0.0214    0.1138   -0.0567    0.0517
          41   -0.0256   -0.0128    0.0182    0.4929   -0.0722   -0.0823    0.0258   -0.0530
          42    0.4510    0.0739   -0.0432    0.0428   -0.0940   -0.4424    0.2091   -0.2081
          43    0.2079    0.0327   -0.0150    0.0844    0.0148    0.2276   -0.0999    0.0835
          44   -0.2215   -0.0453   -0.0099    0.4196   -0.0612   -0.1172    0.0312   -0.0276
          45   -0.3733   -0.0328    0.0519   -0.2287   -0.0503   -0.4201    0.1962   -0.1633
          46   -0.0300    0.0064    0.0103   -0.4440    0.0736   -0.1251   -0.0491    0.0707
          47    0.1139    0.0159    0.0197   -0.2149    0.0150    0.0633    0.0387   -0.0212
          48    0.4506    0.0738    0.0430    0.0453   -0.0946    0.4424    0.2091   -0.2084


   Root No.      17        18        19        20        21        22        23        24

                 8 A"      9 A"     10 A"     10 A'     11 A"     12 A"     11 A'     13 A"  

                1015.5    1081.6    1092.6    1131.4    1147.7    1173.4    1232.6    1303.9
  
           1   -0.0432    0.0985   -0.0444    0.0043   -0.0022   -0.0048   -0.1778   -0.1764
           2   -0.0507    0.2901    0.0375   -0.0608    0.0822    0.0190   -0.0395    0.1190
           3   -0.0495   -0.1050    0.1613   -0.2393    0.1926    0.0340    0.0213   -0.0191
           4   -0.0215    0.0457    0.0241    0.0199   -0.0159    0.0053    0.0993    0.0226
           5    0.0937   -0.2421   -0.0243   -0.0703   -0.0248   -0.0078   -0.2978   -0.1248
           6    0.3628    0.1610   -0.1086    0.0672   -0.0660   -0.0068   -0.0192    0.0171
           7    0.0916   -0.2354   -0.0326    0.0716   -0.0140   -0.0094    0.3093   -0.1206
           8    0.0237   -0.0754    0.0102    0.0162   -0.0254    0.0010    0.0543   -0.0395
           9   -0.3631   -0.1603    0.1085    0.0670    0.0662    0.0067   -0.0202   -0.0164
          10   -0.0240    0.2088    0.0535    0.0549    0.0728    0.0188   -0.0496    0.1886
          11   -0.0619    0.2250   -0.0220    0.0239    0.0361    0.0047    0.1757   -0.0987
          12    0.0499    0.1033   -0.1614   -0.2395   -0.1930   -0.0341    0.0212    0.0190
          13    0.0271   -0.0104   -0.0144    0.0586    0.1709   -0.3057   -0.0078    0.0080
          14   -0.0152    0.0053    0.0197   -0.0111   -0.0689    0.1839    0.0114   -0.0069
          15   -0.0209    0.0165    0.1362   -0.1477   -0.2419   -0.2063    0.0289   -0.0229
          16   -0.0262    0.0099    0.0239    0.0371   -0.1411    0.3078   -0.0139   -0.0099
          17    0.0168   -0.0069   -0.0041   -0.0471    0.1189   -0.1807    0.0010    0.0040
          18    0.0208   -0.0163   -0.1362   -0.1476    0.2417    0.2064    0.0287    0.0228
          19    0.0958   -0.2881    0.0851   -0.1075    0.0527    0.0080   -0.1382   -0.2352
          20   -0.0574   -0.1433   -0.1642    0.1155   -0.1164   -0.0487   -0.0968   -0.1035
          21   -0.2124    0.0627   -0.3500    0.2775   -0.2220   -0.0808    0.0016    0.0077
          22   -0.0680    0.3678    0.0394   -0.0469    0.0693    0.0057   -0.0990   -0.1030
          23    0.0375   -0.1613   -0.0933    0.0727   -0.0699   -0.0101   -0.0017    0.0497
          24    0.0510    0.0013   -0.3412    0.2613   -0.1938   -0.0435   -0.0506   -0.0493
          25    0.0651   -0.3167   -0.0998   -0.0854   -0.0938   -0.0115   -0.0457    0.0928
          26   -0.0423    0.2471   -0.0079    0.0080    0.0288    0.0004    0.0878   -0.0668
          27   -0.0510   -0.0016    0.3415    0.2616    0.1939    0.0435   -0.0506    0.0493
          28   -0.0954    0.0104   -0.1839   -0.1518   -0.1268   -0.0465    0.0196    0.0206
          29    0.0581   -0.3219   -0.0012    0.0412   -0.0078   -0.0157    0.1677   -0.2562
          30    0.2124   -0.0610    0.3506    0.2778    0.2225    0.0811    0.0008   -0.0065
          31    0.0421   -0.0935    0.0096   -0.0199   -0.0499   -0.0019   -0.4461    0.5255
          32   -0.0433   -0.1446    0.0085   -0.0404   -0.0285   -0.0046   -0.3478    0.2768
          33   -0.5270   -0.0795    0.0411   -0.0268    0.0187   -0.0069    0.0294   -0.0110
          34   -0.0565   -0.0827    0.0028    0.0260   -0.0014   -0.0032    0.0944   -0.0059
          35    0.0191   -0.1505    0.0123    0.0366   -0.0575   -0.0038    0.5580    0.5939
          36    0.5271    0.0803   -0.0413   -0.0270   -0.0184    0.0069    0.0265    0.0081
          37    0.0303   -0.0259   -0.0473   -0.1141    0.1842   -0.2323    0.0190    0.0181
          38    0.0013    0.0186    0.1268    0.1508   -0.0934   -0.2821   -0.0148    0.0014
          39   -0.0189    0.0445    0.2103    0.2905   -0.2671   -0.1590   -0.0308   -0.0058
          40   -0.0103   -0.0016   -0.0539   -0.0544    0.0447    0.0592    0.0075    0.0071
          41   -0.0089   -0.0037    0.0624    0.0969   -0.1512    0.3935   -0.0143   -0.0078
          42    0.0422    0.0168    0.2897    0.3013   -0.3211   -0.0109   -0.0526   -0.0488
          43   -0.0132    0.0286    0.1335   -0.1861   -0.1689   -0.1375    0.0218   -0.0074
          44    0.0274   -0.0143    0.0175    0.0303    0.1191   -0.3376   -0.0100    0.0167
          45    0.0188   -0.0445   -0.2108    0.2909    0.2670    0.1612   -0.0307    0.0057
          46   -0.0031   -0.0024    0.0796   -0.1102   -0.1534    0.3183    0.0159   -0.0101
          47   -0.0135   -0.0033   -0.0193    0.0034   -0.0308    0.2390   -0.0002    0.0028
          48   -0.0421   -0.0167   -0.2898    0.3017    0.3217    0.0088   -0.0525    0.0488


   Root No.      25        26        27        28        29        30        31        32

                12 A'     13 A'     14 A"     15 A"     14 A'     15 A'     16 A"     16 A'  

                1358.2    1359.7    1381.5    1382.2    1442.4    1504.5    1665.1    1666.6
  
           1   -0.0064   -0.1007   -0.1351    0.1144    0.3773   -0.0757   -0.4380    0.2663
           2   -0.0292    0.0893    0.0138   -0.0143   -0.0414   -0.0967   -0.0174    0.0455
           3   -0.0139   -0.0153   -0.0266    0.0002    0.0538   -0.1127   -0.0208    0.0263
           4    0.0024    0.0886   -0.0936    0.0943   -0.0434    0.2655    0.5242   -0.4148
           5    0.0394   -0.2437   -0.0283    0.0259    0.3231    0.2514    0.0082   -0.2560
           6   -0.0014    0.0279   -0.0061    0.0114   -0.0048    0.0038    0.0117    0.0023
           7   -0.0336    0.2566    0.0195   -0.0220   -0.3050   -0.0953   -0.2417    0.0282
           8   -0.0204    0.0381   -0.0957    0.0952   -0.1156   -0.3523    0.4649    0.4873
           9   -0.0012    0.0269    0.0064   -0.0118   -0.0034    0.0057   -0.0133   -0.0003
          10    0.0221   -0.1267    0.0763   -0.0669    0.2160    0.0479    0.1927    0.0860
          11    0.0196    0.0462   -0.1122    0.0939   -0.3124    0.1122   -0.3936   -0.2558
          12   -0.0141   -0.0152    0.0269   -0.0004    0.0544   -0.1138    0.0222    0.0273
          13    0.0548    0.0080   -0.0734   -0.0795   -0.0350    0.2055    0.0112    0.2195
          14    0.0806    0.0296   -0.1207   -0.1559   -0.0867    0.4489    0.0077    0.3543
          15   -0.0138    0.0190   -0.0004    0.0024   -0.0367    0.1065   -0.0181   -0.0210
          16   -0.0449   -0.0222   -0.0713   -0.0995    0.0596   -0.2969    0.0016   -0.2076
          17   -0.0870   -0.0212   -0.1220   -0.1440    0.0723   -0.3939    0.0138   -0.3620
          18   -0.0132    0.0192    0.0013   -0.0014   -0.0371    0.1096    0.0179   -0.0185
          19    0.0615   -0.3661    0.2526   -0.2124   -0.1556   -0.0404   -0.0186    0.0094
          20    0.0579   -0.2233    0.2139   -0.1663   -0.2078    0.0542    0.0694   -0.0545
          21    0.0189    0.0297   -0.0211    0.0351   -0.0019    0.1182   -0.0002   -0.0265
          22    0.0341   -0.2330    0.2956   -0.2397   -0.2640   -0.0957   -0.0154    0.0443
          23   -0.0178    0.1214   -0.1857    0.1520    0.2078    0.0530   -0.0588    0.0070
          24    0.0517   -0.0890    0.0971   -0.0778   -0.1017    0.0598    0.0199   -0.0032
          25    0.0317   -0.2179   -0.3041    0.2479   -0.3084   -0.0923   -0.0445    0.0146
          26   -0.0212    0.1470    0.1715   -0.1384    0.1330    0.0595   -0.0416   -0.0422
          27    0.0517   -0.0892   -0.0971    0.0777   -0.1016    0.0596   -0.0195   -0.0031
          28   -0.0219    0.0227    0.0683   -0.0456    0.1090   -0.0668    0.0699    0.0521
          29   -0.0816    0.4284    0.3240   -0.2661    0.2355    0.0103    0.0166    0.0174
          30    0.0194    0.0274    0.0192   -0.0337   -0.0035    0.1183   -0.0001   -0.0268
          31   -0.0521    0.3465    0.1294   -0.1262   -0.1948   -0.0195   -0.1005   -0.0245
          32   -0.0205    0.1246    0.0864   -0.0842   -0.0358    0.0043   -0.1082   -0.0043
          33    0.0034   -0.0040    0.0008   -0.0004   -0.0214    0.0252    0.0169   -0.0185
          34   -0.0067    0.0548    0.0146   -0.0142   -0.0611   -0.0130   -0.0475   -0.0079
          35    0.0559   -0.3640    0.1549   -0.1510    0.1882    0.0156   -0.1400    0.0237
          36    0.0031   -0.0023   -0.0017    0.0012   -0.0222    0.0250   -0.0160   -0.0186
          37   -0.4132   -0.0581    0.2717    0.3301   -0.0433    0.1277   -0.0051    0.0441
          38   -0.2476   -0.0487    0.1227    0.1517    0.0119   -0.0618   -0.0032   -0.0302
          39   -0.0893   -0.0272    0.0603    0.0759    0.0213   -0.0500   -0.0055    0.0295
          40   -0.0318   -0.0008   -0.0114   -0.0140    0.0042   -0.0421    0.0038   -0.0524
          41   -0.4671   -0.0905    0.2920    0.3353   -0.0141    0.0316   -0.0140    0.0282
          42    0.1171   -0.0168   -0.0890   -0.1116    0.0598   -0.1515   -0.0198   -0.0091
          43    0.0213    0.0151   -0.0212   -0.0235   -0.0308    0.1147   -0.0004    0.0475
          44    0.4808    0.0742    0.2970    0.3621    0.0327   -0.0831   -0.0060   -0.0242
          45   -0.0918   -0.0276   -0.0617   -0.0776    0.0212   -0.0500    0.0055    0.0295
          46    0.3961    0.0791    0.2627    0.3020    0.0147   -0.0486   -0.0140   -0.0500
          47    0.2503    0.0436    0.1291    0.1475    0.0034    0.0211   -0.0032    0.0326
          48    0.1146   -0.0173    0.0876    0.1099    0.0597   -0.1515    0.0198   -0.0091


   Root No.      33        34        35        36        37        38        39        40

                17 A"     17 A'     18 A"     18 A'     19 A"     19 A'     20 A"     20 A'  

                2692.5    2701.5    2702.9    2727.2    2755.8    2756.3    2761.5    2768.4
  
           1    0.0050   -0.0230    0.0200    0.0008   -0.0139    0.0540   -0.1241    0.0099
           2   -0.0343    0.1808   -0.1778    0.0180   -0.0602    0.0377   -0.0299    0.0488
           3    0.0148   -0.0781    0.0753   -0.0070    0.0130    0.0067   -0.0267   -0.0129
           4   -0.0015    0.0209   -0.0169    0.0060    0.0660   -0.0194   -0.0201   -0.0959
           5    0.0032   -0.0142    0.0266   -0.0050   -0.1484    0.0373    0.0258    0.1363
           6   -0.0003   -0.0001   -0.0015   -0.0000    0.0221   -0.0060   -0.0059   -0.0235
           7    0.0035    0.0224    0.0314    0.0072   -0.1620   -0.0419    0.0322   -0.1655
           8    0.0002   -0.0116   -0.0022   -0.0029   -0.0125   -0.0010   -0.0054    0.0199
           9    0.0001   -0.0001    0.0012   -0.0000   -0.0214   -0.0056    0.0058   -0.0231
          10   -0.0327   -0.1703   -0.1662   -0.0156   -0.0464   -0.0069    0.0327   -0.0385
          11   -0.0119   -0.0659   -0.0672   -0.0092   -0.0409   -0.0656   -0.1233   -0.0318
          12   -0.0146   -0.0773   -0.0744   -0.0069   -0.0127    0.0075    0.0272   -0.0126
          13    0.1521    0.0146   -0.0293   -0.1730   -0.0046    0.0345    0.0294   -0.0147
          14   -0.0873   -0.0142    0.0172    0.0946   -0.0055    0.1074    0.0629   -0.0367
          15    0.0802    0.0055   -0.0183   -0.0927   -0.0021    0.0339    0.0219   -0.0149
          16   -0.1492    0.0195    0.0292   -0.1656   -0.0028   -0.0783    0.0414    0.0253
          17    0.0919   -0.0061   -0.0176    0.1069   -0.0065   -0.0810    0.0556    0.0301
          18   -0.0801    0.0054    0.0185   -0.0927    0.0020    0.0344   -0.0223   -0.0151
          19   -0.0645    0.3163   -0.3020    0.0215   -0.0231   -0.0622    0.1992    0.0343
          20    0.0774   -0.3639    0.3527   -0.0222    0.0116    0.0926   -0.2686   -0.0284
          21   -0.0491    0.2469   -0.2373    0.0187   -0.0115   -0.0562    0.1699    0.0203
          22    0.0390   -0.2199    0.2210   -0.0287    0.1239   -0.1398    0.2424   -0.0795
          23    0.0514   -0.3009    0.3045   -0.0426    0.1843   -0.2169    0.3864   -0.1183
          24   -0.0080    0.0487   -0.0491    0.0074   -0.0330    0.0407   -0.0705    0.0203
          25    0.0267    0.1605    0.1632    0.0238    0.1035    0.1250    0.2252    0.0663
          26    0.0588    0.3368    0.3393    0.0455    0.1967    0.2261    0.3972    0.1263
          27    0.0076    0.0465    0.0469    0.0071    0.0317    0.0394    0.0678    0.0195
          28    0.0989    0.4712    0.4545    0.0298    0.0212   -0.1110   -0.3315    0.0412
          29   -0.0197   -0.1043   -0.0971   -0.0083   -0.0148    0.0107    0.0470   -0.0166
          30    0.0489    0.2460    0.2364    0.0186    0.0114   -0.0558   -0.1691    0.0203
          31    0.0112   -0.0681    0.0796   -0.0152   -0.3254    0.0772    0.0645    0.3160
          32   -0.0208    0.1239   -0.1419    0.0265    0.5507   -0.1326   -0.1049   -0.5378
          33    0.0033   -0.0185    0.0216   -0.0036   -0.0865    0.0207    0.0167    0.0839
          34   -0.0236   -0.1414   -0.1628   -0.0305    0.6395    0.1532   -0.1230    0.6236
          35   -0.0001    0.0010    0.0026    0.0008   -0.0244   -0.0051    0.0069   -0.0222
          36   -0.0034   -0.0181   -0.0212   -0.0035    0.0847    0.0204   -0.0163    0.0821
          37    0.1317   -0.0085   -0.0254    0.1354   -0.0087   -0.1399    0.0771    0.0523
          38   -0.3913    0.0292    0.0757   -0.4107    0.0214    0.3238   -0.1884   -0.1228
          39    0.2443   -0.0163   -0.0492    0.2523   -0.0141   -0.2109    0.1200    0.0809
          40    0.4559   -0.0570   -0.0896    0.4363    0.0205    0.4432   -0.2230   -0.1513
          41    0.0313   -0.0048   -0.0055    0.0364    0.0000    0.0054   -0.0053   -0.0009
          42    0.0719   -0.0098   -0.0132    0.0695    0.0031    0.0825   -0.0426   -0.0276
          43   -0.4076   -0.0298    0.0789    0.4265    0.0228   -0.3520   -0.2028    0.1331
          44   -0.0712   -0.0064    0.0139    0.0771    0.0026   -0.0319   -0.0222    0.0127
          45   -0.2427   -0.0162    0.0489    0.2506    0.0140   -0.2096   -0.1193    0.0804
          46   -0.1891   -0.0229    0.0378    0.1753   -0.0097    0.2062    0.1013   -0.0713
          47    0.4157    0.0523   -0.0815   -0.4009    0.0179   -0.3922   -0.1985    0.1334
          48   -0.0734   -0.0100    0.0136    0.0710   -0.0032    0.0840    0.0433   -0.0281


   Root No.      41        42

                21 A'     21 A"  

                2771.5    2774.9
  
           1    0.1268   -0.0684
           2    0.0293   -0.0094
           3    0.0237   -0.0072
           4    0.0400   -0.0152
           5   -0.0242    0.0230
           6    0.0069   -0.0035
           7    0.0403    0.0276
           8   -0.0235   -0.0025
           9    0.0070    0.0036
          10    0.0344    0.0243
          11   -0.1253   -0.0647
          12    0.0243    0.0074
          13   -0.0098   -0.0530
          14   -0.0481   -0.1221
          15   -0.0060   -0.0257
          16    0.0377   -0.0824
          17    0.0312   -0.1043
          18   -0.0064    0.0264
          19   -0.2105    0.1087
          20    0.2806   -0.1450
          21   -0.1799    0.0927
          22   -0.2542    0.1237
          23   -0.4048    0.1987
          24    0.0750   -0.0367
          25    0.2357    0.1163
          26    0.4163    0.2034
          27    0.0722    0.0353
          28   -0.3475   -0.1795
          29    0.0511    0.0263
          30   -0.1791   -0.0924
          31   -0.0825    0.0530
          32    0.1374   -0.0866
          33   -0.0219    0.0137
          34   -0.1602   -0.1014
          35    0.0074    0.0055
          36   -0.0214   -0.0133
          37    0.0517   -0.1374
          38   -0.1159    0.3315
          39    0.0770   -0.2110
          40   -0.1972    0.4339
          41   -0.0017    0.0092
          42   -0.0343    0.0794
          43    0.1267    0.3575
          44    0.0099    0.0376
          45    0.0766    0.2097
          46   -0.0923   -0.1982
          47    0.1742    0.3859
          48   -0.0349   -0.0809


          DESCRIPTION OF VIBRATIONS


 VIBRATION    1    1A'      ATOM PAIR        ENERGY CONTRIBUTION    RADIAL
 FREQ.      -847.91        C  2 --  C  3          +13.3% (-35.6%)   100.0%
 T-DIPOLE    0.7396        C  3 --  C  4          +10.4% (-31.4%)    30.2%
 TRAVEL      0.0879        C  1 --  C  2          +10.3% (-31.4%)    30.0%
 RED. MASS   2.3827        C  1 --  H  7           +9.3% (-29.8%)     0.5%
 EFF. MASS  10.2933

 VIBRATION    2    1A"      ATOM PAIR        ENERGY CONTRIBUTION    RADIAL
 FREQ.       148.33        C  5 --  C  6          +21.9% (450.3%)     0.0%
 T-DIPOLE    0.0632        C  4 --  C  5          +11.8% (330.4%)     1.2%
 TRAVEL      0.0542        C  1 --  C  6          +11.8% (330.3%)     1.2%
 RED. MASS   1.0790        C  5 --  H 16           +9.4% (294.4%)    98.1%
 EFF. MASS 153.9011

 VIBRATION    3    2A"      ATOM PAIR        ENERGY CONTRIBUTION    RADIAL
 FREQ.       270.64        C  4 --  C  5          +12.1% (173.5%)    53.0%
 T-DIPOLE    0.1773        C  1 --  C  6          +12.1% (173.5%)    52.5%
 TRAVEL      0.0845        C  5 --  H 15          +11.3% (167.8%)    19.0%
 RED. MASS   1.6604        C  6 --  H 13          +11.3% (167.7%)    18.4%
 EFF. MASS  34.9230        C  5 --  H 16          +10.5% (161.9%)    33.1%
                           C  6 --  H 14          +10.5% (161.9%)    33.8%

 VIBRATION    4    2A'      ATOM PAIR        ENERGY CONTRIBUTION    RADIAL
 FREQ.       272.31        C  1 --  C  6          +11.8% (148.0%)     0.1%
 T-DIPOLE    0.0891        C  4 --  C  5          +11.8% (147.9%)     0.1%
 TRAVEL      0.0816        C  1 --  C  2          +11.5% (146.1%)     0.0%
 RED. MASS   1.0463        C  3 --  C  4          +11.5% (146.0%)     0.0%
 EFF. MASS  37.1777

 VIBRATION    5    3A'      ATOM PAIR        ENERGY CONTRIBUTION    RADIAL
 FREQ.       374.61        C  4 --  C  5          +11.9% (141.8%)     0.1%
 T-DIPOLE    0.1097        C  1 --  C  6          +11.9% (141.7%)     0.1%
 TRAVEL      0.0796        C  3 --  C  4          +11.7% (140.7%)     0.1%
 RED. MASS   1.6648        C  1 --  C  2          +11.7% (140.6%)     0.1%
 EFF. MASS  28.4189        C  4 --  H 10          +11.1% (136.9%)    51.9%
                           C  1 --  H  7          +11.1% (136.8%)    52.1%

 VIBRATION    6    3A"      ATOM PAIR        ENERGY CONTRIBUTION    RADIAL
 FREQ.       406.33        C  2 --  C  3          +20.2% (103.0%)     0.0%
 T-DIPOLE    0.1368        C  1 --  C  2          +10.6% ( 74.6%)     0.0%
 TRAVEL      0.1011        C  3 --  C  4          +10.6% ( 74.6%)     0.0%
 RED. MASS   0.8732        C  5 --  C  6           +9.7% ( 71.4%)     0.0%
 EFF. MASS  16.2270

 VIBRATION    7    4A"      ATOM PAIR        ENERGY CONTRIBUTION    RADIAL
 FREQ.       527.20        C  5 --  C  6          +34.8% (100.9%)     0.0%
 T-DIPOLE    0.3541        C  6 --  H 14           +7.6% ( 47.2%)     5.4%
 TRAVEL      0.0992        C  5 --  H 16           +7.6% ( 47.2%)     5.5%
 RED. MASS   2.0755        C  5 --  H 15           +7.4% ( 46.6%)     6.8%
 EFF. MASS  12.9847

 VIBRATION    8    5A"      ATOM PAIR        ENERGY CONTRIBUTION    RADIAL
 FREQ.       603.63        C  2 --  C  3          +20.8% (122.2%)     0.0%
 T-DIPOLE    0.2227        C  3 --  C  4          +12.8% ( 95.8%)     0.2%
 TRAVEL      0.0880        C  1 --  C  2          +12.8% ( 95.8%)     0.2%
 RED. MASS   1.6444        C  3 --  H 12           +9.5% ( 82.8%)    93.5%
 EFF. MASS  14.4292

 VIBRATION    9    4A'      ATOM PAIR        ENERGY CONTRIBUTION    RADIAL
 FREQ.       680.42        C  6 --  H 13          +21.1% ( 71.5%)     5.7%
 T-DIPOLE    0.1914        C  5 --  H 15          +21.1% ( 71.5%)     5.3%
 TRAVEL      0.2077        C  5 --  H 16          +21.0% ( 71.3%)     4.9%
 RED. MASS   0.2338        C  6 --  H 14          +21.0% ( 71.3%)     4.8%
 EFF. MASS   2.2965

 VIBRATION   10    5A'      ATOM PAIR        ENERGY CONTRIBUTION    RADIAL
 FREQ.       733.72        C  1 --  H  8          +18.2% ( 57.3%)     2.8%
 T-DIPOLE    0.4341        C  4 --  H  9          +18.2% ( 57.3%)     3.0%
 TRAVEL      0.2125        C  2 --  H 11          +14.6% ( 51.4%)     0.0%
 RED. MASS   0.1732        C  3 --  H 12          +14.6% ( 51.4%)     0.0%
 EFF. MASS   2.0357        C  1 --  H  7          +11.2% ( 44.9%)     3.9%
                           C  4 --  H 10          +11.2% ( 44.9%)     3.8%

 VIBRATION   11    6A"      ATOM PAIR        ENERGY CONTRIBUTION    RADIAL
 FREQ.       814.22        C  4 --  H  9          +22.0% ( 59.4%)     2.3%
 T-DIPOLE    0.0194        C  1 --  H  8          +22.0% ( 59.4%)     2.1%
 TRAVEL      0.1688        C  4 --  H 10          +13.5% ( 46.4%)     5.1%
 RED. MASS   0.2628        C  1 --  H  7          +13.4% ( 46.4%)     5.3%
 EFF. MASS   2.9077

 VIBRATION   12    6A'      ATOM PAIR        ENERGY CONTRIBUTION    RADIAL
 FREQ.       908.39        C  5 --  H 16          +24.4% ( 64.4%)     3.1%
 T-DIPOLE    0.2567        C  6 --  H 14          +24.4% ( 64.4%)     2.8%
 TRAVEL      0.2433        C  6 --  H 13          +23.7% ( 63.4%)     3.2%
 RED. MASS   0.2361        C  5 --  H 15          +23.7% ( 63.4%)     2.9%
 EFF. MASS   1.2539

 VIBRATION   13    7A'      ATOM PAIR        ENERGY CONTRIBUTION    RADIAL
 FREQ.       944.30        C  2 --  H 11          +19.9% ( 48.8%)     0.1%
 T-DIPOLE    0.5100        C  3 --  H 12          +19.9% ( 48.8%)     0.1%
 TRAVEL      0.1594        C  1 --  H  7          +12.8% ( 39.2%)    10.1%
 RED. MASS   0.2235        C  4 --  H 10          +12.8% ( 39.2%)     9.8%
 EFF. MASS   2.8158

 VIBRATION   14    7A"      ATOM PAIR        ENERGY CONTRIBUTION    RADIAL
 FREQ.       945.92        C  5 --  H 15          +22.2% ( 51.7%)     4.4%
 T-DIPOLE    0.0922        C  6 --  H 13          +22.2% ( 51.7%)     4.7%
 TRAVEL      0.1940        C  6 --  H 14          +20.1% ( 49.2%)     5.9%
 RED. MASS   0.2384        C  5 --  H 16          +20.1% ( 49.2%)     6.0%
 EFF. MASS   1.8963

 VIBRATION   15    8A'      ATOM PAIR        ENERGY CONTRIBUTION    RADIAL
 FREQ.       953.43        C  1 --  H  8          +18.1% ( 53.4%)     3.9%
 T-DIPOLE    0.2624        C  4 --  H  9          +18.1% ( 53.4%)     3.8%
 TRAVEL      0.1543        C  2 --  C  3           +7.0% ( 33.2%)   100.0%
 RED. MASS   0.1760        C  1 --  H  7           +6.6% ( 32.3%)     7.3%
 EFF. MASS   2.9656

 VIBRATION   16    9A'      ATOM PAIR        ENERGY CONTRIBUTION    RADIAL
 FREQ.       997.93        C  4 --  H 10          +15.4% ( 53.3%)     5.5%
 T-DIPOLE    0.1889        C  1 --  H  7          +15.3% ( 53.2%)     5.5%
 TRAVEL      0.1311        C  4 --  H  9          +14.0% ( 50.9%)    24.3%
 RED. MASS   0.2914        C  1 --  H  8          +14.0% ( 50.9%)    24.1%
 EFF. MASS   3.9286

 VIBRATION   17    8A"      ATOM PAIR        ENERGY CONTRIBUTION    RADIAL
 FREQ.      1015.48        C  2 --  H 11          +31.3% ( 59.9%)     0.1%
 T-DIPOLE    0.1121        C  3 --  H 12          +31.3% ( 59.9%)     0.0%
 TRAVEL      0.1383        C  2 --  C  3          +12.2% ( 37.4%)     0.0%
 RED. MASS   0.6440        C  1 --  C  2           +5.5% ( 25.2%)     0.2%
 EFF. MASS   3.4699

 VIBRATION   18    9A"      ATOM PAIR        ENERGY CONTRIBUTION    RADIAL
 FREQ.      1081.64        C  4 --  H  9          +14.0% ( 51.6%)    22.8%
 T-DIPOLE    0.3577        C  1 --  H  8          +14.0% ( 51.6%)    22.9%
 TRAVEL      0.1106        C  1 --  H  7          +12.9% ( 49.5%)     8.8%
 RED. MASS   0.5232        C  4 --  H 10          +12.9% ( 49.5%)     8.7%
 EFF. MASS   5.0982

 VIBRATION   19   10A"      ATOM PAIR        ENERGY CONTRIBUTION    RADIAL
 FREQ.      1092.57        C  4 --  H 10          +15.4% ( 37.0%)     0.2%
 T-DIPOLE    0.0379        C  1 --  H  7          +15.4% ( 37.0%)     0.1%
 TRAVEL      0.1777        C  1 --  H  8          +13.2% ( 34.2%)     0.0%
 RED. MASS   0.1399        C  4 --  H  9          +13.2% ( 34.2%)     0.0%
 EFF. MASS   1.9534

 VIBRATION   20   10A'      ATOM PAIR        ENERGY CONTRIBUTION    RADIAL
 FREQ.      1131.44        C  5 --  H 15          +11.7% ( 31.8%)     0.2%
 T-DIPOLE    0.8870        C  6 --  H 13          +11.7% ( 31.8%)     0.1%
 TRAVEL      0.1601        C  1 --  H  7          +11.5% ( 31.5%)     0.9%
 RED. MASS   0.1902        C  4 --  H 10          +11.5% ( 31.5%)     0.9%
 EFF. MASS   2.3257        C  5 --  H 16          +10.4% ( 30.0%)     0.0%
                           C  6 --  H 14          +10.4% ( 30.0%)     0.0%

 VIBRATION   21   11A"      ATOM PAIR        ENERGY CONTRIBUTION    RADIAL
 FREQ.      1147.65        C  6 --  H 14          +14.1% ( 36.2%)     1.4%
 T-DIPOLE    0.0619        C  5 --  H 16          +14.1% ( 36.2%)     1.5%
 TRAVEL      0.1380        C  5 --  H 15          +12.8% ( 34.5%)     0.0%
 RED. MASS   0.3247        C  6 --  H 13          +12.8% ( 34.5%)     0.1%
 EFF. MASS   3.0873

 VIBRATION   22   12A"      ATOM PAIR        ENERGY CONTRIBUTION    RADIAL
 FREQ.      1173.45        C  6 --  H 14          +17.1% ( 52.6%)    16.8%
 T-DIPOLE    0.0502        C  5 --  H 16          +17.1% ( 52.6%)    17.5%
 TRAVEL      0.1147        C  5 --  C  6          +16.8% ( 52.2%)     0.0%
 RED. MASS   0.7953        C  6 --  H 13          +16.8% ( 52.1%)    19.0%
 EFF. MASS   4.3605        C  5 --  H 15          +16.7% ( 52.1%)    18.4%

 VIBRATION   23   11A'      ATOM PAIR        ENERGY CONTRIBUTION    RADIAL
 FREQ.      1232.64        C  3 --  H 12          +25.1% ( 61.6%)    16.4%
 T-DIPOLE    0.1675        C  2 --  H 11          +25.1% ( 61.6%)    16.5%
 TRAVEL      0.1102        C  2 --  C  3          +14.0% ( 46.1%)   100.0%
 RED. MASS   0.4722        C  3 --  C  4           +9.7% ( 38.4%)    53.0%
 EFF. MASS   4.5055

 VIBRATION   24   13A"      ATOM PAIR        ENERGY CONTRIBUTION    RADIAL
 FREQ.      1303.91        C  2 --  H 11          +31.0% ( 58.9%)     2.2%
 T-DIPOLE    0.0943        C  3 --  H 12          +31.0% ( 58.9%)     2.2%
 TRAVEL      0.1509        C  4 --  H 10           +6.5% ( 26.9%)    35.9%
 RED. MASS   0.3168        C  1 --  H  7           +6.5% ( 26.9%)    36.1%
 EFF. MASS   2.2700

 VIBRATION   25   12A'      ATOM PAIR        ENERGY CONTRIBUTION    RADIAL
 FREQ.      1358.15        C  5 --  H 15          +23.0% ( 40.9%)     0.6%
 T-DIPOLE    0.0515        C  6 --  H 13          +23.0% ( 40.9%)     0.7%
 TRAVEL      0.1962        C  6 --  H 14          +22.1% ( 40.0%)     0.5%
 RED. MASS   0.2279        C  5 --  H 16          +22.1% ( 40.0%)     0.6%
 EFF. MASS   1.2966

 VIBRATION   26   13A'      ATOM PAIR        ENERGY CONTRIBUTION    RADIAL
 FREQ.      1359.71        C  2 --  H 11          +15.1% ( 39.2%)    17.7%
 T-DIPOLE    0.1558        C  3 --  H 12          +15.1% ( 39.2%)    17.8%
 TRAVEL      0.1292        C  4 --  H 10          +13.6% ( 37.2%)     6.0%
 RED. MASS   0.2374        C  1 --  H  7          +13.6% ( 37.2%)     6.0%
 EFF. MASS   2.9657        C  2 --  C  3          +11.7% ( 34.5%)   100.0%

 VIBRATION   27   14A"      ATOM PAIR        ENERGY CONTRIBUTION    RADIAL
 FREQ.      1381.53        C  1 --  H  8          +12.4% ( 34.1%)     0.6%
 T-DIPOLE    0.5126        C  4 --  H  9          +12.4% ( 34.1%)     0.6%
 TRAVEL      0.1712        C  1 --  H  7          +10.3% ( 31.1%)     2.4%
 RED. MASS   0.1157        C  4 --  H 10          +10.3% ( 31.1%)     2.4%
 EFF. MASS   1.6667

 VIBRATION   28   15A"      ATOM PAIR        ENERGY CONTRIBUTION    RADIAL
 FREQ.      1382.23        C  6 --  H 13          +13.4% ( 36.0%)     0.9%
 T-DIPOLE    0.0716        C  5 --  H 15          +13.4% ( 36.0%)     1.1%
 TRAVEL      0.1680        C  6 --  H 14          +12.1% ( 34.1%)     2.2%
 RED. MASS   0.1260        C  5 --  H 16          +12.1% ( 34.1%)     2.0%
 EFF. MASS   1.7268

 VIBRATION   29   14A'      ATOM PAIR        ENERGY CONTRIBUTION    RADIAL
 FREQ.      1442.39        C  4 --  H  9          +11.8% ( 46.0%)     2.0%
 T-DIPOLE    0.4728        C  1 --  H  8          +11.8% ( 46.0%)     2.0%
 TRAVEL      0.0833        C  3 --  C  4          +11.7% ( 45.8%)    56.6%
 RED. MASS   0.8368        C  1 --  C  2          +11.7% ( 45.8%)    56.5%
 EFF. MASS   6.7336        C  2 --  C  3          +10.4% ( 43.1%)   100.0%

 VIBRATION   30   15A'      ATOM PAIR        ENERGY CONTRIBUTION    RADIAL
 FREQ.      1504.46        C  5 --  C  6          +22.8% ( 74.3%)   100.0%
 T-DIPOLE    0.1524        C  2 --  C  3          +10.5% ( 50.5%)   100.0%
 TRAVEL      0.0669        C  1 --  C  6           +7.7% ( 43.1%)     3.5%
 RED. MASS   2.0147        C  4 --  C  5           +7.7% ( 43.1%)     3.3%
 EFF. MASS  10.0286

 VIBRATION   31   16A"      ATOM PAIR        ENERGY CONTRIBUTION    RADIAL
 FREQ.      1665.10        C  1 --  C  2          +19.6% ( 65.7%)    99.8%
 T-DIPOLE    0.1525        C  3 --  C  4          +19.6% ( 65.7%)    99.8%
 TRAVEL      0.0597        C  2 --  C  3          +15.4% ( 58.3%)     0.0%
 RED. MASS   2.7071        C  2 --  H 11           +8.1% ( 42.3%)    11.2%
 EFF. MASS  11.3667

 VIBRATION   32   16A'      ATOM PAIR        ENERGY CONTRIBUTION    RADIAL
 FREQ.      1666.62        C  2 --  C  3          +15.7% ( 59.1%)   100.0%
 T-DIPOLE    0.2769        C  5 --  C  6          +13.1% ( 53.9%)   100.0%
 TRAVEL      0.0585        C  3 --  C  4          +11.6% ( 50.8%)    83.4%
 RED. MASS   2.2206        C  1 --  C  2          +11.6% ( 50.7%)    83.5%
 EFF. MASS  11.8114

 VIBRATION   33   17A"      ATOM PAIR        ENERGY CONTRIBUTION    RADIAL
 FREQ.      2692.52        C  6 --  H 13          +24.4% ( 51.4%)    98.8%
 T-DIPOLE    0.0437        C  5 --  H 15          +24.4% ( 51.4%)    98.6%
 TRAVEL      0.1309        C  6 --  H 14          +22.8% ( 49.7%)    98.2%
 RED. MASS   0.2326        C  5 --  H 16          +22.8% ( 49.7%)    98.4%
 EFF. MASS   1.4610

 VIBRATION   34   17A'      ATOM PAIR        ENERGY CONTRIBUTION    RADIAL
 FREQ.      2701.55        C  4 --  H 10          +30.8% ( 57.4%)    99.4%
 T-DIPOLE    0.4000        C  1 --  H  7          +30.8% ( 57.4%)    99.4%
 TRAVEL      0.1302        C  4 --  H  9          +15.7% ( 41.0%)    96.7%
 RED. MASS   0.2518        C  1 --  H  8          +15.7% ( 41.0%)    96.7%
 EFF. MASS   1.4732

 VIBRATION   35   18A"      ATOM PAIR        ENERGY CONTRIBUTION    RADIAL
 FREQ.      2702.91        C  1 --  H  7          +28.5% ( 55.3%)    99.2%
 T-DIPOLE    0.3132        C  4 --  H 10          +28.5% ( 55.2%)    99.2%
 TRAVEL      0.1301        C  1 --  H  8          +15.9% ( 41.2%)    97.0%
 RED. MASS   0.2267        C  4 --  H  9          +15.9% ( 41.2%)    97.0%
 EFF. MASS   1.4729

 VIBRATION   36   18A'      ATOM PAIR        ENERGY CONTRIBUTION    RADIAL
 FREQ.      2727.20        C  6 --  H 13          +26.9% ( 53.4%)    98.8%
 T-DIPOLE    0.7863        C  5 --  H 15          +26.9% ( 53.4%)    98.5%
 TRAVEL      0.1266        C  5 --  H 16          +21.5% ( 47.7%)    97.8%
 RED. MASS   0.2586        C  6 --  H 14          +21.5% ( 47.7%)    97.5%
 EFF. MASS   1.5428

 VIBRATION   37   19A"      ATOM PAIR        ENERGY CONTRIBUTION    RADIAL
 FREQ.      2755.84        C  3 --  H 12          +43.6% ( 66.6%)    99.9%
 T-DIPOLE    0.7769        C  2 --  H 11          +43.5% ( 66.6%)    99.9%
 TRAVEL      0.1340        C  4 --  H  9           +5.2% ( 23.1%)    99.8%
 RED. MASS   0.3729        C  1 --  H  8           +5.2% ( 23.1%)    99.8%
 EFF. MASS   1.3623

 VIBRATION   38   19A'      ATOM PAIR        ENERGY CONTRIBUTION    RADIAL
 FREQ.      2756.34        C  5 --  H 16          +20.7% ( 45.3%)    96.9%
 T-DIPOLE    0.7268        C  6 --  H 14          +20.7% ( 45.3%)    97.2%
 TRAVEL      0.1383        C  6 --  H 13          +17.0% ( 41.1%)    95.5%
 RED. MASS   0.1570        C  5 --  H 15          +17.0% ( 41.1%)    96.0%
 EFF. MASS   1.2787

 VIBRATION   39   20A"      ATOM PAIR        ENERGY CONTRIBUTION    RADIAL
 FREQ.      2761.52        C  1 --  H  8          +22.1% ( 46.7%)    96.7%
 T-DIPOLE    0.3407        C  4 --  H  9          +22.1% ( 46.7%)    96.7%
 TRAVEL      0.1379        C  1 --  H  7          +14.3% ( 37.6%)    93.3%
 RED. MASS   0.1512        C  4 --  H 10          +14.3% ( 37.6%)    93.4%
 EFF. MASS   1.2844

 VIBRATION   40   20A'      ATOM PAIR        ENERGY CONTRIBUTION    RADIAL
 FREQ.      2768.41        C  2 --  H 11          +41.6% ( 64.9%)   100.0%
 T-DIPOLE    0.7578        C  3 --  H 12          +41.6% ( 64.9%)    99.9%
 TRAVEL      0.1316        C  6 --  H 13           +2.4% ( 15.6%)    96.3%
 RED. MASS   0.3390        C  5 --  H 15           +2.4% ( 15.6%)    96.7%
 EFF. MASS   1.4075

 VIBRATION   41   21A'      ATOM PAIR        ENERGY CONTRIBUTION    RADIAL
 FREQ.      2771.49        C  1 --  H  8          +24.3% ( 48.7%)    96.8%
 T-DIPOLE    0.7360        C  4 --  H  9          +24.3% ( 48.7%)    96.8%
 TRAVEL      0.1387        C  1 --  H  7          +15.8% ( 39.3%)    93.5%
 RED. MASS   0.1724        C  4 --  H 10          +15.8% ( 39.3%)    93.6%
 EFF. MASS   1.2648

 VIBRATION   42   21A"      ATOM PAIR        ENERGY CONTRIBUTION    RADIAL
 FREQ.      2774.94        C  5 --  H 16          +20.2% ( 44.4%)    95.3%
 T-DIPOLE    0.9344        C  6 --  H 14          +20.2% ( 44.4%)    95.7%
 TRAVEL      0.1382        C  5 --  H 15          +17.9% ( 41.7%)    94.7%
 RED. MASS   0.1556        C  6 --  H 13          +17.9% ( 41.7%)    94.3%
 EFF. MASS   1.2730

           FORCE CONSTANT IN CARTESIAN COORDINATES (Millidynes/A)

    ATOM   CHEMICAL       X               Y               Z
   NUMBER   SYMBOL  FORCE CONSTANT  FORCE CONSTANT  FORCE CONSTANT

      1       C       11.130687        5.963505        2.117789
      2       C       11.556666        9.509639        2.558479
      3       C        9.418192       11.649933        2.556659
      4       C        6.363321       10.740476        2.108183
      5       C        6.244353        9.937934        2.514964
      6       C        7.768975        8.392594        2.535683
      7       H        1.854600        2.321440        1.272142
      8       H        1.811468        3.077393        0.552155
      9       H        1.491547        3.403524        0.545946
     10       H        3.312093        0.870101        1.265988
     11       H        1.782107        3.358904        0.451791
     12       H        4.197082        0.946900        0.448820
     13       H        1.006359        2.976930        1.476514
     14       H        4.073435        0.770121        0.632046
     15       H        3.191156        0.803204        1.465443
     16       H        1.376306        3.463490        0.635806

 **********************
 *                    *
 * JOB ENDED NORMALLY *
 *                    *
 **********************



 TOTAL JOB TIME:             0.48 SECONDS

 == MOPAC DONE ==
