 *******************************************************************************
 ** Site#: 10005        For non-commercial use only     Version 15.309W 64BITS**
 *******************************************************************************
 ** Cite this work as:                                                        **
 **                                                                           **
 ** (a) MOPAC2012, James J. P. Stewart, Stewart Computational Chemistry,      **
 **  Version 15.309W web: HTTP://OpenMOPAC.net         Days remaining: 365    **
 **                                                                           **
 **                                 AND                                       **
 **                                                                           **
 ** (b) Maia, J.D.C., et al., J. Chem. Theory Comput. 2012, 8, 3072-3081.     **
 **                DOI: 10.1021/ct3004645.                                    **
 *******************************************************************************
 **                                                                           **
 **                                MOPAC2012                                  **
 **                                                                           **
 *******************************************************************************

                              PM7 CALCULATION RESULTS


 *******************************************************************************
 *  CALCULATION DONE:                                Thu Nov 05 10:00:20 2015  *
 *  GEO-OK     - OVERRIDE INTERATOMIC DISTANCE AND OTHER SAFETY CHECKS
 *  GEO_DAT    - DATA SET GEOMETRY IS IN FILE "C2H4+C4H6-CYCLOHEXENE STEP 1_10P0_FIRST.MOP"
 *  GEO_REF    - REFERENCE GEOMETRY IS IN FILE "C2H4+C4H6-CYCLOHEXENE STEP 1_10P0_SECOND.MOP"
 *  SADDLE     - TRANSITION STATE TO BE OPTIMIZED
 *  T=         - A TIME OF 172800.0 SECONDS REQUESTED
 *  DUMP=N     - RESTART FILE WRITTEN EVERY  7200.000 SECONDS
 *  BAR=       - REDUCE BAR LENGTH BY A MAX. OF   0.01
 *******************************************************************************
geo_dat="C2H4+C4H6-cyclohexene Step 1_10p0_first.mop" geo_ref="C2H4+C4H6-cyclohexene Step 1_10p0_second.mop" saddle geo-ok bar=0.005
 Locate and refine the transition state for the C2H4 plus C4H6 => Cyclohexene Dies-Alder reaction
 (Geometry data for reactant and products are in other files.)
   ATOM                 CHEMICAL                   X               Y               Z
  NUMBER                 SYMBOL               (ANGSTROMS)     (ANGSTROMS)     (ANGSTROMS)
 
     1       C(HETATM    1  C   HET A   1)   -0.63125595  *  -1.37285356  *  -0.95563036  *
     2       C(HETATM    2  C   HET A   1)    0.59716204  *  -1.17309851  *  -0.46201027  *
     3       C(HETATM    3  C   HET A   1)    1.30686065  *   0.09258887  *  -0.43406178  *
     4       C(HETATM    4  C   HET A   1)    0.85636951  *   1.28770476  *  -0.83917446  *
     5       C(HETATM    5  C   HET A   1)   -0.69346109  *   1.14355099  *   1.40643143  *
     6       C(HETATM    6  C   HET A   1)   -1.34292953  *  -0.01940479  *   1.37929533  *
     7       H(HETATM    7 1HT1 HET A   1)   -1.21569483  *  -0.59205614  *  -1.40814205  *
     8       H(HETATM    8 2HT1 HET A   1)   -1.15092137  *  -2.31987623  *  -0.88033398  *
     9       H(HETATM    9 1HT2 HET A   1)    1.42298642  *   2.19162513  *  -0.70969304  *
    10       H(HETATM   10 2HT2 HET A   1)   -0.10337734  *   1.43371577  *  -1.31495451  *
    11       H(HETATM   11 1HT  HET A   1)    1.17096725  *  -2.03606915  *  -0.10933734  *
    12       H(HETATM   12 2HT  HET A   1)    2.31069697  *   0.05987332  *  -0.01241486  *
    13       H(HETATM   13 1HT3 HET A   1)   -0.95304909  *  -0.90901756  *   1.83527960  *
    14       H(HETATM   14 2HT3 HET A   1)   -2.30533647  *  -0.14638876  *   0.90739991  *
    15       H(HETATM   15 1HT4 HET A   1)    0.28651129  *   1.24324273  *   1.86033665  *
    16       H(HETATM   16 2HT4 HET A   1)   -1.08147582  *   2.05237955  *   0.98291338  *
 

          By default, a restraining force of 3 kcal/mol/A^2 will be used
 ----------------------------------------

                 After docking

              Atoms that move a lot
                   Atom Label               Movement    Integral

          (HETATM    1  C   HET A   1)        0.65        0.65
          (HETATM    8 2HT1 HET A   1)        0.64        1.29
          (HETATM    6  C   HET A   1)        0.62        1.90
          (HETATM    5  C   HET A   1)        0.61        2.51
          (HETATM    4  C   HET A   1)        0.60        3.12
          (HETATM    9 1HT2 HET A   1)        0.60        3.72
          (HETATM   12 2HT  HET A   1)        0.50        4.22
          (HETATM   11 1HT  HET A   1)        0.45        4.67
          (HETATM   10 2HT2 HET A   1)        0.21        4.87
          (HETATM    7 1HT1 HET A   1)        0.20        5.08
          (HETATM   15 1HT4 HET A   1)        0.20        5.28
          (HETATM   16 2HT4 HET A   1)        0.20        5.47
          (HETATM   14 2HT3 HET A   1)        0.19        5.66
          (HETATM   13 1HT3 HET A   1)        0.18        5.84
          (HETATM    2  C   HET A   1)        0.12        5.96
          (HETATM    3  C   HET A   1)        0.11        6.06

   Difference between data-set and GEO_REF:    6.06 = total,  0.3788 = Average,  0.4340 = RMS, in Angstroms

    The rotated-translated reference geometry will be written to: 'M:\Individual JSmol paths\C2H4-C4H6 Diels-Alder - Copy\C2H4+C4H6-cyclohexene Step 1_10p0_second.new'

     ===================== shared-memory parallel CPU Section ======================
     **                                                                           **
     **  MOPAC calculations will run in shared-memory parallel CPUs               **
     **                                                                           **
     **  Number of Threads =  4                                                   **
     **                                                                           **
     **                                                                           **
     **  For information on this work, see:                                       **
     **                                                                           **
     **  Maia, J.D.C., et al., J. Chem. Theory Comput. 2012, 8, 3072-3081.        **
     **        DOI: 10.1021/ct3004645.                                            **
     **                                                                           **
     ===================== shared-memory parallel CPU Section ======================
      


 General Reference for PM7:
 "Optimization of Parameters for Semiempirical Methods VI: More Modifications to the 
 NDDO Approximations and Re-optimization of Parameters", J. J. P. Stewart, J. Mol. Mod., 1:32, 19 (2013)
 http://www.springerlink.com/openurl.asp?genre=article&id=doi:10.1007/s00894-012-1667-x

           Empirical Formula: C6 H10  =    16 atoms



      MOLECULAR POINT GROUP   :   C1  


      RHF CALCULATION, NO. OF DOUBLY OCCUPIED LEVELS =   17



  CARTESIAN GEOMETRY OF FIRST SYSTEM


   1    C         -0.68108      -1.20286      -0.44401
   2    C          0.80509      -1.21153      -0.56194
   3    C          1.46364      -0.05025      -0.53031
   4    C          0.69535       1.21856      -0.37021
   5    C         -0.34144       1.06162       0.77571
   6    C         -1.10561      -0.28126       0.73373
   7    H         -1.13481      -0.82928      -1.39027
   8    H         -1.06882      -2.23450      -0.33807
   9    H          1.38135       2.07191      -0.20381
  10    H          0.15963       1.46562      -1.31433
  11    H          1.28930      -2.17386      -0.63064
  12    H          2.53873       0.02911      -0.56743
  13    H         -0.94358      -0.82888       1.68261
  14    H         -2.19469      -0.10017       0.67437
  15    H          0.18953       1.15708       1.74255
  16    H         -1.05259       1.90869       0.74206


  CARTESIAN GEOMETRY OF SECOND SYSTEM


   1    C         -0.63126      -1.37285      -0.95563
   2    C          0.59716      -1.17310      -0.46201
   3    C          1.30686       0.09259      -0.43406
   4    C          0.85637       1.28770      -0.83917
   5    C         -0.69346       1.14355       1.40643
   6    C         -1.34293      -0.01940       1.37930
   7    H         -1.21569      -0.59206      -1.40814
   8    H         -1.15092      -2.31988      -0.88033
   9    H          1.42299       2.19163      -0.70969
  10    H         -0.10338       1.43372      -1.31495
  11    H          1.17097      -2.03607      -0.10934
  12    H          2.31070       0.05987      -0.01241
  13    H         -0.95305      -0.90902       1.83528
  14    H         -2.30534      -0.14639       0.90740
  15    H          0.28651       1.24324       1.86034
  16    H         -1.08148       2.05238       0.98291


   "DISTANCE":     1.819509


  REACTION COORDINATE VECTOR


   1    C         -0.04982       0.16999       0.51162
   2    C          0.20793      -0.03843      -0.09993
   3    C          0.15678      -0.14284      -0.09625
   4    C         -0.16102      -0.06915       0.46896
   5    C          0.35202      -0.08193      -0.63072
   6    C          0.23732      -0.26186      -0.64556
   7    H          0.08088      -0.23723       0.01787
   8    H          0.08210       0.08538       0.54226
   9    H         -0.04163      -0.11972       0.50588
  10    H          0.26301       0.03191       0.00062
  11    H          0.11834      -0.13779      -0.52130
  12    H          0.22803      -0.03077      -0.55502
  13    H          0.00947       0.08014      -0.15267
  14    H          0.11065       0.04622      -0.23303
  15    H         -0.09698      -0.08616      -0.11778
  16    H          0.02888      -0.14369      -0.24085
 *+*+*+*+*+*+*+*+*+*+*+*+*+*+*+*+*+*+*+*+*+*+*+*+*+*+*+*+*+*+*+*+*+*+*+*+*+*+*+*+
            BAR SHORTENED BY       0.000 PERCENT
 GRADIENT CRITERION IN FLEPO =     1.000


          FOR POINT   1 SECOND STRUCTURE
 DISTANCE A - B      1.819509
 HEAT                9.507878
 GRADIENT NORM       8.886492
 DIRECTION COSINE   -0.060951
geo_dat="C2H4+C4H6-cyclohexene Step 1_10p0_first.mop" geo_ref="C2H4+C4H6-cyclohexene Step 1_10p0_second.mop" saddle geo-ok bar=0.005
 Locate and refine the transition state for the C2H4 plus C4H6 => Cyclohexene Dies-Alder reaction
 (Geometry data for reactant and products are in other files.)
  C(HETATM    1  C   HET A   1)   0.00000000 +1    0.0000000 +1    0.0000000 +1
  C(HETATM    2  C   HET A   1)   1.49573492 +1    0.0000000 +1    0.0000000 +1     1     0     0
  C(HETATM    3  C   HET A   1)   1.33800603 +1  118.3578433 +1    0.0000000 +1     2     1     0
  C(HETATM    4  C   HET A   1)   1.49463464 +1  118.4864705 +1   -0.0034233 +1     3     2     1
  C(HETATM    5  C   HET A   1)   1.54347343 +1  109.5136617 +1   48.1248014 +1     4     3     2
  C(HETATM    6  C   HET A   1)   1.54199610 +1  113.1856167 +1  -45.4667994 +1     5     4     3
  H(HETATM    7 1HT1 HET A   1)   1.11090587 +1  109.7992810 +1   72.4077593 +1     1     2     3
  H(HETATM    8 2HT1 HET A   1)   1.10522780 +1  111.8499030 +1 -170.6441500 +1     1     2     3
  H(HETATM    9 1HT2 HET A   1)   1.10493113 +1  111.9850837 +1  170.6738329 +1     4     3     2
  H(HETATM   10 2HT2 HET A   1)   1.11055329 +1  109.7317092 +1  -72.2833950 +1     4     3     2
  H(HETATM   11 1HT  HET A   1)   1.08066742 +1  117.6628855 +1  178.4426258 +1     2     1     3
  H(HETATM   12 2HT  HET A   1)   1.07948977 +1  123.9914390 +1  178.8106838 +1     3     2     1
  H(HETATM   13 1HT3 HET A   1)   1.10678608 +1  109.3008411 +1  121.3103820 +1     6     5     4
  H(HETATM   14 2HT3 HET A   1)   1.10342051 +1  110.0175128 +1 -122.7334502 +1     6     5     4
  H(HETATM   15 1HT4 HET A   1)   1.10704735 +1  108.5342022 +1   76.1692688 +1     5     4     3
  H(HETATM   16 2HT4 HET A   1)   1.10426267 +1  109.4075265 +1 -168.7294007 +1     5     4     3
 
 TIME=     0.05
  REACTANTS AND PRODUCTS SWAPPED AROUND
 *+*+*+*+*+*+*+*+*+*+*+*+*+*+*+*+*+*+*+*+*+*+*+*+*+*+*+*+*+*+*+*+*+*+*+*+*+*+*+*+
            BAR SHORTENED BY       0.500 PERCENT
 GRADIENT CRITERION IN FLEPO =     5.886


          FOR POINT   2 FIRST  STRUCTURE
 DISTANCE A - B      1.810411
 HEAT               52.689587
 GRADIENT NORM      14.764806
 DIRECTION COSINE    0.298434
geo_dat="C2H4+C4H6-cyclohexene Step 1_10p0_first.mop" geo_ref="C2H4+C4H6-cyclohexene Step 1_10p0_second.mop" saddle geo-ok bar=0.005
 Locate and refine the transition state for the C2H4 plus C4H6 => Cyclohexene Dies-Alder reaction
 (Geometry data for reactant and products are in other files.)
  C(HETATM    1  C   HET A   1)   0.00000000 +1    0.0000000 +1    0.0000000 +1
  C(HETATM    2  C   HET A   1)   1.33853047 +1    0.0000000 +1    0.0000000 +1     1     0     0
  C(HETATM    3  C   HET A   1)   1.45371873 +1  125.4558269 +1    0.0000000 +1     2     1     0
  C(HETATM    4  C   HET A   1)   1.33634890 +1  124.1274490 +1   -4.1991470 +1     3     2     1
  C(HETATM    5  C   HET A   1)   2.82806115 +1   88.9188361 +1   72.2185586 +1     4     3     2
  C(HETATM    6  C   HET A   1)   1.33232928 +1  106.9166040 +1  -54.3526569 +1     5     4     3
  H(HETATM    7 1HT1 HET A   1)   1.08078919 +1  124.7765389 +1    8.1385574 +1     1     2     3
  H(HETATM    8 2HT1 HET A   1)   1.08572440 +1  122.2258155 +1 -171.4038783 +1     1     2     3
  H(HETATM    9 1HT2 HET A   1)   1.07778351 +1  123.9918897 +1  174.2897331 +1     4     3     2
  H(HETATM   10 2HT2 HET A   1)   1.08312652 +1  123.9012069 +1   -5.6106801 +1     4     3     2
  H(HETATM   11 1HT  HET A   1)   1.09344060 +1  119.2101815 +1  176.0022772 +1     2     1     3
  H(HETATM   12 2HT  HET A   1)   1.09355011 +1  114.7619698 +1  173.1866198 +1     3     2     1
  H(HETATM   13 1HT3 HET A   1)   1.08047780 +1  122.9928005 +1   94.8743130 +1     6     5     4
  H(HETATM   14 2HT3 HET A   1)   1.07755249 +1  122.9777177 +1  -85.4203547 +1     6     5     4
  H(HETATM   15 1HT4 HET A   1)   1.07310477 +1   83.2832530 +1   69.3164416 +1     5     4     3
  H(HETATM   16 2HT4 HET A   1)   1.07841914 +1   77.1016345 +1 -174.6237490 +1     5     4     3
 
 TIME=     0.06
  REACTANTS AND PRODUCTS SWAPPED AROUND
 *+*+*+*+*+*+*+*+*+*+*+*+*+*+*+*+*+*+*+*+*+*+*+*+*+*+*+*+*+*+*+*+*+*+*+*+*+*+*+*+
            BAR SHORTENED BY       0.500 PERCENT
 GRADIENT CRITERION IN FLEPO =    10.000


          FOR POINT   3 SECOND STRUCTURE
 DISTANCE A - B      1.801359
 HEAT                9.354679
 GRADIENT NORM       6.909213
 DIRECTION COSINE    0.244749
geo_dat="C2H4+C4H6-cyclohexene Step 1_10p0_first.mop" geo_ref="C2H4+C4H6-cyclohexene Step 1_10p0_second.mop" saddle geo-ok bar=0.005
 Locate and refine the transition state for the C2H4 plus C4H6 => Cyclohexene Dies-Alder reaction
 (Geometry data for reactant and products are in other files.)
  C(HETATM    1  C   HET A   1)   0.00000000 +1    0.0000000 +1    0.0000000 +1
  C(HETATM    2  C   HET A   1)   1.49452917 +1    0.0000000 +1    0.0000000 +1     1     0     0
  C(HETATM    3  C   HET A   1)   1.33857818 +1  118.3931744 +1    0.0000000 +1     2     1     0
  C(HETATM    4  C   HET A   1)   1.49338971 +1  118.5249001 +1   -0.0212580 +1     3     2     1
  C(HETATM    5  C   HET A   1)   1.54977434 +1  109.4302765 +1   48.2688802 +1     4     3     2
  C(HETATM    6  C   HET A   1)   1.54094702 +1  113.1315798 +1  -45.5442690 +1     5     4     3
  H(HETATM    7 1HT1 HET A   1)   1.10957170 +1  109.9558745 +1   72.1974185 +1     1     2     3
  H(HETATM    8 2HT1 HET A   1)   1.10509254 +1  111.9024717 +1 -170.6537163 +1     1     2     3
  H(HETATM    9 1HT2 HET A   1)   1.10473519 +1  112.0496153 +1  170.7055972 +1     4     3     2
  H(HETATM   10 2HT2 HET A   1)   1.10941503 +1  109.8781433 +1  -72.0480897 +1     4     3     2
  H(HETATM   11 1HT  HET A   1)   1.08037494 +1  117.6549307 +1  178.4027532 +1     2     1     3
  H(HETATM   12 2HT  HET A   1)   1.07899447 +1  123.9563964 +1  178.7558430 +1     3     2     1
  H(HETATM   13 1HT3 HET A   1)   1.10584217 +1  109.3787716 +1  121.2292863 +1     6     5     4
  H(HETATM   14 2HT3 HET A   1)   1.10251482 +1  110.0910570 +1 -122.5503346 +1     6     5     4
  H(HETATM   15 1HT4 HET A   1)   1.10604472 +1  108.4506616 +1   76.1025711 +1     5     4     3
  H(HETATM   16 2HT4 HET A   1)   1.10335299 +1  109.2540436 +1 -168.7497693 +1     5     4     3
 
 *+*+*+*+*+*+*+*+*+*+*+*+*+*+*+*+*+*+*+*+*+*+*+*+*+*+*+*+*+*+*+*+*+*+*+*+*+*+*+*+
            BAR SHORTENED BY       0.500 PERCENT
 GRADIENT CRITERION IN FLEPO =     3.909


          FOR POINT   4 SECOND STRUCTURE
 DISTANCE A - B      1.792353
 HEAT                9.264900
 GRADIENT NORM       7.748085
 DIRECTION COSINE    0.392858
geo_dat="C2H4+C4H6-cyclohexene Step 1_10p0_first.mop" geo_ref="C2H4+C4H6-cyclohexene Step 1_10p0_second.mop" saddle geo-ok bar=0.005
 Locate and refine the transition state for the C2H4 plus C4H6 => Cyclohexene Dies-Alder reaction
 (Geometry data for reactant and products are in other files.)
  C(HETATM    1  C   HET A   1)   0.00000000 +1    0.0000000 +1    0.0000000 +1
  C(HETATM    2  C   HET A   1)   1.49539931 +1    0.0000000 +1    0.0000000 +1     1     0     0
  C(HETATM    3  C   HET A   1)   1.33759890 +1  118.3425969 +1    0.0000000 +1     2     1     0
  C(HETATM    4  C   HET A   1)   1.49679198 +1  118.4225234 +1   -0.0764538 +1     3     2     1
  C(HETATM    5  C   HET A   1)   1.54543951 +1  109.5056770 +1   48.3138666 +1     4     3     2
  C(HETATM    6  C   HET A   1)   1.54426133 +1  113.1420443 +1  -45.5981164 +1     5     4     3
  H(HETATM    7 1HT1 HET A   1)   1.11218359 +1  109.8184327 +1   72.0432376 +1     1     2     3
  H(HETATM    8 2HT1 HET A   1)   1.10292337 +1  111.7778945 +1 -171.3170701 +1     1     2     3
  H(HETATM    9 1HT2 HET A   1)   1.10535634 +1  111.8101689 +1  171.0154370 +1     4     3     2
  H(HETATM   10 2HT2 HET A   1)   1.10970087 +1  109.6651691 +1  -72.1091875 +1     4     3     2
  H(HETATM   11 1HT  HET A   1)   1.07997428 +1  117.5197703 +1  178.1875226 +1     2     1     3
  H(HETATM   12 2HT  HET A   1)   1.08011468 +1  123.8820122 +1  178.1853924 +1     3     2     1
  H(HETATM   13 1HT3 HET A   1)   1.10714175 +1  109.5654384 +1  121.3561325 +1     6     5     4
  H(HETATM   14 2HT3 HET A   1)   1.10374456 +1  110.1144381 +1 -122.6025210 +1     6     5     4
  H(HETATM   15 1HT4 HET A   1)   1.10824832 +1  108.7791803 +1   76.0441593 +1     5     4     3
  H(HETATM   16 2HT4 HET A   1)   1.10407055 +1  109.4602750 +1 -168.8882310 +1     5     4     3
 
 *+*+*+*+*+*+*+*+*+*+*+*+*+*+*+*+*+*+*+*+*+*+*+*+*+*+*+*+*+*+*+*+*+*+*+*+*+*+*+*+
            BAR SHORTENED BY       0.500 PERCENT
 GRADIENT CRITERION IN FLEPO =     4.748


          FOR POINT   5 SECOND STRUCTURE
 DISTANCE A - B      1.783391
 HEAT                9.213579
 GRADIENT NORM       9.676632
 DIRECTION COSINE    0.575224
geo_dat="C2H4+C4H6-cyclohexene Step 1_10p0_first.mop" geo_ref="C2H4+C4H6-cyclohexene Step 1_10p0_second.mop" saddle geo-ok bar=0.005
 Locate and refine the transition state for the C2H4 plus C4H6 => Cyclohexene Dies-Alder reaction
 (Geometry data for reactant and products are in other files.)
  C(HETATM    1  C   HET A   1)   0.00000000 +1    0.0000000 +1    0.0000000 +1
  C(HETATM    2  C   HET A   1)   1.49486276 +1    0.0000000 +1    0.0000000 +1     1     0     0
  C(HETATM    3  C   HET A   1)   1.33812040 +1  118.3482754 +1    0.0000000 +1     2     1     0
  C(HETATM    4  C   HET A   1)   1.49342513 +1  118.3640801 +1   -0.4693160 +1     3     2     1
  C(HETATM    5  C   HET A   1)   1.54644107 +1  109.4304346 +1   48.9383239 +1     4     3     2
  C(HETATM    6  C   HET A   1)   1.54516632 +1  109.4530827 +1  -48.0632908 +1     1     2     3
  H(HETATM    7 1HT1 HET A   1)   1.11073902 +1  109.7683553 +1   72.0341710 +1     1     2     3
  H(HETATM    8 2HT1 HET A   1)   1.10562869 +1  111.7352254 +1 -171.3870402 +1     1     2     3
  H(HETATM    9 1HT2 HET A   1)   1.10635939 +1  111.8528418 +1  171.5756428 +1     4     3     2
  H(HETATM   10 2HT2 HET A   1)   1.11186524 +1  109.8340108 +1  -71.7050864 +1     4     3     2
  H(HETATM   11 1HT  HET A   1)   1.08411269 +1  117.6015311 +1  178.0245432 +1     2     1     3
  H(HETATM   12 2HT  HET A   1)   1.08317924 +1  123.9159988 +1  178.5198154 +1     3     2     1
  H(HETATM   13 1HT3 HET A   1)   1.10673615 +1  108.8129100 +1  -76.3860760 +1     6     1     2
  H(HETATM   14 2HT3 HET A   1)   1.10656769 +1  109.3932278 +1  168.6409765 +1     6     1     2
  H(HETATM   15 1HT4 HET A   1)   1.10982487 +1  109.0772773 +1   75.7628456 +1     5     4     3
  H(HETATM   16 2HT4 HET A   1)   1.10557033 +1  109.4585760 +1 -169.0144144 +1     5     4     3
 
 TIME=     0.03
  REACTANTS AND PRODUCTS SWAPPED AROUND
 *+*+*+*+*+*+*+*+*+*+*+*+*+*+*+*+*+*+*+*+*+*+*+*+*+*+*+*+*+*+*+*+*+*+*+*+*+*+*+*+
            BAR SHORTENED BY       0.000 PERCENT
 GRADIENT CRITERION IN FLEPO =     6.677


          FOR POINT   6 FIRST  STRUCTURE
 DISTANCE A - B      1.783391
 HEAT               52.284494
 GRADIENT NORM      12.537870
 DIRECTION COSINE    0.243806
geo_dat="C2H4+C4H6-cyclohexene Step 1_10p0_first.mop" geo_ref="C2H4+C4H6-cyclohexene Step 1_10p0_second.mop" saddle geo-ok bar=0.005
 Locate and refine the transition state for the C2H4 plus C4H6 => Cyclohexene Dies-Alder reaction
 (Geometry data for reactant and products are in other files.)
  C(HETATM    1  C   HET A   1)   0.00000000 +1    0.0000000 +1    0.0000000 +1
  C(HETATM    2  C   HET A   1)   1.33906931 +1    0.0000000 +1    0.0000000 +1     1     0     0
  C(HETATM    3  C   HET A   1)   1.45837309 +1  125.3775538 +1    0.0000000 +1     2     1     0
  C(HETATM    4  C   HET A   1)   1.33755209 +1  124.0920060 +1   -3.4274021 +1     3     2     1
  C(HETATM    5  C   HET A   1)   2.82627011 +1   89.0516715 +1   71.6410432 +1     4     3     2
  C(HETATM    6  C   HET A   1)   1.32792103 +1  107.1193440 +1  -54.2637648 +1     5     4     3
  H(HETATM    7 1HT1 HET A   1)   1.07748369 +1  124.6425630 +1    7.5911918 +1     1     2     3
  H(HETATM    8 2HT1 HET A   1)   1.07963535 +1  122.2997899 +1 -172.4289077 +1     1     2     3
  H(HETATM    9 1HT2 HET A   1)   1.08474038 +1  122.8688617 +1  174.2337572 +1     4     3     2
  H(HETATM   10 2HT2 HET A   1)   1.07761041 +1  123.8210244 +1   -6.2078683 +1     4     3     2
  H(HETATM   11 1HT  HET A   1)   1.09410457 +1  119.4119185 +1  176.7730022 +1     2     1     3
  H(HETATM   12 2HT  HET A   1)   1.09275664 +1  115.2223746 +1  173.2861391 +1     3     2     1
  H(HETATM   13 1HT3 HET A   1)   1.07918039 +1  123.5087242 +1   94.6203732 +1     6     5     4
  H(HETATM   14 2HT3 HET A   1)   1.08055430 +1  123.0747537 +1  -85.4836623 +1     6     5     4
  H(HETATM   15 1HT4 HET A   1)   1.07856727 +1   83.4077547 +1   69.4003495 +1     5     4     3
  H(HETATM   16 2HT4 HET A   1)   1.08014995 +1   77.1441927 +1 -175.1194874 +1     5     4     3
 
 TIME=     0.02
  REACTANTS AND PRODUCTS SWAPPED AROUND
 *+*+*+*+*+*+*+*+*+*+*+*+*+*+*+*+*+*+*+*+*+*+*+*+*+*+*+*+*+*+*+*+*+*+*+*+*+*+*+*+
            BAR SHORTENED BY       0.500 PERCENT
 GRADIENT CRITERION IN FLEPO =     9.538


          FOR POINT   7 SECOND STRUCTURE
 DISTANCE A - B      1.774474
 HEAT                9.178545
 GRADIENT NORM       8.236219
 DIRECTION COSINE    0.006991
geo_dat="C2H4+C4H6-cyclohexene Step 1_10p0_first.mop" geo_ref="C2H4+C4H6-cyclohexene Step 1_10p0_second.mop" saddle geo-ok bar=0.005
 Locate and refine the transition state for the C2H4 plus C4H6 => Cyclohexene Dies-Alder reaction
 (Geometry data for reactant and products are in other files.)
  C(HETATM    1  C   HET A   1)   0.00000000 +1    0.0000000 +1    0.0000000 +1
  C(HETATM    2  C   HET A   1)   1.49366236 +1    0.0000000 +1    0.0000000 +1     1     0     0
  C(HETATM    3  C   HET A   1)   1.33871758 +1  118.3842627 +1    0.0000000 +1     2     1     0
  C(HETATM    4  C   HET A   1)   1.49220851 +1  118.4014360 +1   -0.4823207 +1     3     2     1
  C(HETATM    5  C   HET A   1)   1.55273101 +1  109.3464972 +1   49.0736919 +1     4     3     2
  C(HETATM    6  C   HET A   1)   1.54518015 +1  112.7897106 +1  -46.0273901 +1     5     4     3
  H(HETATM    7 1HT1 HET A   1)   1.10941240 +1  109.9235864 +1   71.8221006 +1     1     2     3
  H(HETATM    8 2HT1 HET A   1)   1.10546233 +1  111.7889459 +1 -171.3982373 +1     1     2     3
  H(HETATM    9 1HT2 HET A   1)   1.10620639 +1  111.9133253 +1  171.6003097 +1     4     3     2
  H(HETATM   10 2HT2 HET A   1)   1.11069968 +1  109.9783751 +1  -71.4748841 +1     4     3     2
  H(HETATM   11 1HT  HET A   1)   1.08381762 +1  117.5951396 +1  177.9904676 +1     2     1     3
  H(HETATM   12 2HT  HET A   1)   1.08268160 +1  123.8846334 +1  178.4672554 +1     3     2     1
  H(HETATM   13 1HT3 HET A   1)   1.10577132 +1  109.4983703 +1  121.6348073 +1     6     5     4
  H(HETATM   14 2HT3 HET A   1)   1.10565655 +1  110.0562621 +1 -122.4636912 +1     6     5     4
  H(HETATM   15 1HT4 HET A   1)   1.10882831 +1  108.9896692 +1   75.7007020 +1     5     4     3
  H(HETATM   16 2HT4 HET A   1)   1.10466120 +1  109.3043462 +1 -169.0362377 +1     5     4     3
 
 *+*+*+*+*+*+*+*+*+*+*+*+*+*+*+*+*+*+*+*+*+*+*+*+*+*+*+*+*+*+*+*+*+*+*+*+*+*+*+*+
            BAR SHORTENED BY       0.500 PERCENT
 GRADIENT CRITERION IN FLEPO =     5.236


          FOR POINT   8 SECOND STRUCTURE
 DISTANCE A - B      1.765602
 HEAT                9.088369
 GRADIENT NORM       7.332631
 DIRECTION COSINE    0.132658
geo_dat="C2H4+C4H6-cyclohexene Step 1_10p0_first.mop" geo_ref="C2H4+C4H6-cyclohexene Step 1_10p0_second.mop" saddle geo-ok bar=0.005
 Locate and refine the transition state for the C2H4 plus C4H6 => Cyclohexene Dies-Alder reaction
 (Geometry data for reactant and products are in other files.)
  C(HETATM    1  C   HET A   1)   0.00000000 +1    0.0000000 +1    0.0000000 +1
  C(HETATM    2  C   HET A   1)   1.49578334 +1    0.0000000 +1    0.0000000 +1     1     0     0
  C(HETATM    3  C   HET A   1)   1.33832233 +1  118.1710607 +1    0.0000000 +1     2     1     0
  C(HETATM    4  C   HET A   1)   1.49563456 +1  118.3038829 +1    0.0428567 +1     3     2     1
  C(HETATM    5  C   HET A   1)   1.54737809 +1  109.5096238 +1   48.6355062 +1     4     3     2
  C(HETATM    6  C   HET A   1)   1.54550632 +1  113.0591733 +1  -45.8333746 +1     5     4     3
  H(HETATM    7 1HT1 HET A   1)   1.10870051 +1  110.1156229 +1   71.7276724 +1     1     2     3
  H(HETATM    8 2HT1 HET A   1)   1.10188993 +1  111.6321802 +1 -171.9505782 +1     1     2     3
  H(HETATM    9 1HT2 HET A   1)   1.10493340 +1  111.7550271 +1  171.9119446 +1     4     3     2
  H(HETATM   10 2HT2 HET A   1)   1.11371714 +1  109.6921717 +1  -71.4179310 +1     4     3     2
  H(HETATM   11 1HT  HET A   1)   1.07941955 +1  117.7704563 +1  178.1933329 +1     2     1     3
  H(HETATM   12 2HT  HET A   1)   1.08011021 +1  123.8962601 +1  178.1040022 +1     3     2     1
  H(HETATM   13 1HT3 HET A   1)   1.10711118 +1  109.7329768 +1  121.4642374 +1     6     5     4
  H(HETATM   14 2HT3 HET A   1)   1.10378725 +1  110.2267824 +1 -122.6034791 +1     6     5     4
  H(HETATM   15 1HT4 HET A   1)   1.11049050 +1  108.8854513 +1   75.9266297 +1     5     4     3
  H(HETATM   16 2HT4 HET A   1)   1.10491607 +1  109.5208447 +1 -169.2556247 +1     5     4     3
 
 *+*+*+*+*+*+*+*+*+*+*+*+*+*+*+*+*+*+*+*+*+*+*+*+*+*+*+*+*+*+*+*+*+*+*+*+*+*+*+*+
            BAR SHORTENED BY       0.500 PERCENT
 GRADIENT CRITERION IN FLEPO =     4.333


          FOR POINT   9 SECOND STRUCTURE
 DISTANCE A - B      1.756774
 HEAT                9.021643
 GRADIENT NORM       9.424901
 DIRECTION COSINE    0.355592
geo_dat="C2H4+C4H6-cyclohexene Step 1_10p0_first.mop" geo_ref="C2H4+C4H6-cyclohexene Step 1_10p0_second.mop" saddle geo-ok bar=0.005
 Locate and refine the transition state for the C2H4 plus C4H6 => Cyclohexene Dies-Alder reaction
 (Geometry data for reactant and products are in other files.)
  C(HETATM    1  C   HET A   1)   0.00000000 +1    0.0000000 +1    0.0000000 +1
  C(HETATM    2  C   HET A   1)   1.49402044 +1    0.0000000 +1    0.0000000 +1     1     0     0
  C(HETATM    3  C   HET A   1)   1.34059092 +1  118.3837315 +1    0.0000000 +1     2     1     0
  C(HETATM    4  C   HET A   1)   1.49626125 +1  118.0619776 +1   -0.0871235 +1     3     2     1
  C(HETATM    5  C   HET A   1)   1.54828510 +1  109.3772386 +1   48.9868219 +1     4     3     2
  C(HETATM    6  C   HET A   1)   1.54538669 +1  112.8971654 +1  -46.1137739 +1     5     4     3
  H(HETATM    7 1HT1 HET A   1)   1.10969676 +1  110.0198464 +1   71.5361186 +1     1     2     3
  H(HETATM    8 2HT1 HET A   1)   1.10376412 +1  111.5160094 +1 -172.1600379 +1     1     2     3
  H(HETATM    9 1HT2 HET A   1)   1.09925588 +1  112.1597866 +1  172.3860709 +1     4     3     2
  H(HETATM   10 2HT2 HET A   1)   1.10729988 +1  109.8956573 +1  -70.8333606 +1     4     3     2
  H(HETATM   11 1HT  HET A   1)   1.08151643 +1  117.8628287 +1  178.2841134 +1     2     1     3
  H(HETATM   12 2HT  HET A   1)   1.08032282 +1  124.1967016 +1  178.3378195 +1     3     2     1
  H(HETATM   13 1HT3 HET A   1)   1.10719339 +1  109.4769078 +1  121.5312948 +1     6     5     4
  H(HETATM   14 2HT3 HET A   1)   1.10426276 +1  110.2187397 +1 -122.6749671 +1     6     5     4
  H(HETATM   15 1HT4 HET A   1)   1.10688511 +1  108.8627187 +1   75.7347224 +1     5     4     3
  H(HETATM   16 2HT4 HET A   1)   1.10416130 +1  109.4077833 +1 -169.3663444 +1     5     4     3
 
 TIME=     0.03
  REACTANTS AND PRODUCTS SWAPPED AROUND
 *+*+*+*+*+*+*+*+*+*+*+*+*+*+*+*+*+*+*+*+*+*+*+*+*+*+*+*+*+*+*+*+*+*+*+*+*+*+*+*+
            BAR SHORTENED BY       0.000 PERCENT
 GRADIENT CRITERION IN FLEPO =     6.425


          FOR POINT  10 FIRST  STRUCTURE
 DISTANCE A - B      1.756774
 HEAT               51.939074
 GRADIENT NORM      11.364145
 DIRECTION COSINE    0.139604
geo_dat="C2H4+C4H6-cyclohexene Step 1_10p0_first.mop" geo_ref="C2H4+C4H6-cyclohexene Step 1_10p0_second.mop" saddle geo-ok bar=0.005
 Locate and refine the transition state for the C2H4 plus C4H6 => Cyclohexene Dies-Alder reaction
 (Geometry data for reactant and products are in other files.)
  C(HETATM    1  C   HET A   1)   0.00000000 +1    0.0000000 +1    0.0000000 +1
  C(HETATM    2  C   HET A   1)   1.33479772 +1    0.0000000 +1    0.0000000 +1     1     0     0
  C(HETATM    3  C   HET A   1)   1.45703512 +1  125.2029933 +1    0.0000000 +1     2     1     0
  C(HETATM    4  C   HET A   1)   1.33843470 +1  124.4994207 +1   -3.1774020 +1     3     2     1
  C(HETATM    5  C   HET A   1)   2.82227901 +1   89.1037226 +1   71.4145673 +1     4     3     2
  C(HETATM    6  C   HET A   1)   1.33265952 +1  107.3646754 +1  -53.9212186 +1     5     4     3
  H(HETATM    7 1HT1 HET A   1)   1.08068558 +1  124.6337365 +1    7.3139029 +1     1     2     3
  H(HETATM    8 2HT1 HET A   1)   1.07860895 +1  122.6425430 +1 -172.7266908 +1     1     2     3
  H(HETATM    9 1HT2 HET A   1)   1.07877682 +1  123.2574644 +1  174.2474755 +1     4     3     2
  H(HETATM   10 2HT2 HET A   1)   1.08052235 +1  123.7235576 +1   -6.2212328 +1     4     3     2
  H(HETATM   11 1HT  HET A   1)   1.09248406 +1  119.6666380 +1  176.8458326 +1     2     1     3
  H(HETATM   12 2HT  HET A   1)   1.09473789 +1  115.0659956 +1  173.5485952 +1     3     2     1
  H(HETATM   13 1HT3 HET A   1)   1.07816167 +1  123.6679884 +1   94.1882843 +1     6     5     4
  H(HETATM   14 2HT3 HET A   1)   1.07793298 +1  123.1590565 +1  -85.2782848 +1     6     5     4
  H(HETATM   15 1HT4 HET A   1)   1.08002981 +1   83.9206606 +1   69.4521889 +1     5     4     3
  H(HETATM   16 2HT4 HET A   1)   1.07862942 +1   77.3400599 +1 -175.0392585 +1     5     4     3
 
 TIME=     0.00
  REACTANTS AND PRODUCTS SWAPPED AROUND
 *+*+*+*+*+*+*+*+*+*+*+*+*+*+*+*+*+*+*+*+*+*+*+*+*+*+*+*+*+*+*+*+*+*+*+*+*+*+*+*+
            BAR SHORTENED BY       0.500 PERCENT
 GRADIENT CRITERION IN FLEPO =     8.364


          FOR POINT  11 SECOND STRUCTURE
 DISTANCE A - B      1.747990
 HEAT                8.955674
 GRADIENT NORM       7.853149
 DIRECTION COSINE    0.188256
geo_dat="C2H4+C4H6-cyclohexene Step 1_10p0_first.mop" geo_ref="C2H4+C4H6-cyclohexene Step 1_10p0_second.mop" saddle geo-ok bar=0.005
 Locate and refine the transition state for the C2H4 plus C4H6 => Cyclohexene Dies-Alder reaction
 (Geometry data for reactant and products are in other files.)
  C(HETATM    1  C   HET A   1)   0.00000000 +1    0.0000000 +1    0.0000000 +1
  C(HETATM    2  C   HET A   1)   1.49540023 +1    0.0000000 +1    0.0000000 +1     1     0     0
  C(HETATM    3  C   HET A   1)   1.33800694 +1  118.1046424 +1    0.0000000 +1     2     1     0
  C(HETATM    4  C   HET A   1)   1.49617795 +1  118.0441368 +1   -0.0415917 +1     3     2     1
  C(HETATM    5  C   HET A   1)   1.54806693 +1  109.4843877 +1   49.1315169 +1     4     3     2
  C(HETATM    6  C   HET A   1)   1.54650265 +1  112.7915864 +1  -46.2683537 +1     5     4     3
  H(HETATM    7 1HT1 HET A   1)   1.10842019 +1  110.1789953 +1   71.7233231 +1     1     2     3
  H(HETATM    8 2HT1 HET A   1)   1.10920896 +1  111.6324191 +1 -172.3426098 +1     1     2     3
  H(HETATM    9 1HT2 HET A   1)   1.10510770 +1  111.9485766 +1  172.7030012 +1     4     3     2
  H(HETATM   10 2HT2 HET A   1)   1.10953181 +1  109.6320061 +1  -70.7676606 +1     4     3     2
  H(HETATM   11 1HT  HET A   1)   1.08029656 +1  117.9501636 +1  178.0546245 +1     2     1     3
  H(HETATM   12 2HT  HET A   1)   1.08012929 +1  124.0956168 +1  178.0525708 +1     3     2     1
  H(HETATM   13 1HT3 HET A   1)   1.10659556 +1  109.5166215 +1  121.6339648 +1     6     5     4
  H(HETATM   14 2HT3 HET A   1)   1.10431447 +1  110.1112720 +1 -122.6293026 +1     6     5     4
  H(HETATM   15 1HT4 HET A   1)   1.10760965 +1  108.8766609 +1   75.6573716 +1     5     4     3
  H(HETATM   16 2HT4 HET A   1)   1.10431029 +1  109.4028131 +1 -169.4631257 +1     5     4     3
 
 *+*+*+*+*+*+*+*+*+*+*+*+*+*+*+*+*+*+*+*+*+*+*+*+*+*+*+*+*+*+*+*+*+*+*+*+*+*+*+*+
            BAR SHORTENED BY       0.500 PERCENT
 GRADIENT CRITERION IN FLEPO =     4.853


          FOR POINT  12 SECOND STRUCTURE
 DISTANCE A - B      1.739250
 HEAT                8.896773
 GRADIENT NORM       8.517644
 DIRECTION COSINE    0.381570
geo_dat="C2H4+C4H6-cyclohexene Step 1_10p0_first.mop" geo_ref="C2H4+C4H6-cyclohexene Step 1_10p0_second.mop" saddle geo-ok bar=0.005
 Locate and refine the transition state for the C2H4 plus C4H6 => Cyclohexene Dies-Alder reaction
 (Geometry data for reactant and products are in other files.)
  C(HETATM    1  C   HET A   1)   0.00000000 +1    0.0000000 +1    0.0000000 +1
  C(HETATM    2  C   HET A   1)   1.49855908 +1    0.0000000 +1    0.0000000 +1     1     0     0
  C(HETATM    3  C   HET A   1)   1.33732828 +1  118.0703565 +1    0.0000000 +1     2     1     0
  C(HETATM    4  C   HET A   1)   1.49698614 +1  118.0555274 +1   -0.5577869 +1     3     2     1
  C(HETATM    5  C   HET A   1)   1.54753146 +1  109.1332523 +1   49.9626460 +1     4     3     2
  C(HETATM    6  C   HET A   1)   1.54562569 +1  112.6605875 +1  -46.9164057 +1     5     4     3
  H(HETATM    7 1HT1 HET A   1)   1.10942537 +1  110.0660816 +1   71.4308240 +1     1     2     3
  H(HETATM    8 2HT1 HET A   1)   1.10374022 +1  111.5564379 +1 -172.2962903 +1     1     2     3
  H(HETATM    9 1HT2 HET A   1)   1.10863613 +1  111.5160663 +1  173.1719406 +1     4     3     2
  H(HETATM   10 2HT2 HET A   1)   1.10895169 +1  109.9903288 +1  -70.3758505 +1     4     3     2
  H(HETATM   11 1HT  HET A   1)   1.07775387 +1  117.6528244 +1  178.0352616 +1     2     1     3
  H(HETATM   12 2HT  HET A   1)   1.07989993 +1  124.0485633 +1  178.4285599 +1     3     2     1
  H(HETATM   13 1HT3 HET A   1)   1.10672182 +1  109.4119937 +1  121.7679373 +1     6     5     4
  H(HETATM   14 2HT3 HET A   1)   1.10263077 +1  110.1423221 +1 -122.4588168 +1     6     5     4
  H(HETATM   15 1HT4 HET A   1)   1.10576332 +1  109.0308890 +1   75.0525871 +1     5     4     3
  H(HETATM   16 2HT4 HET A   1)   1.10356207 +1  109.1947179 +1 -169.8947695 +1     5     4     3
 
 *+*+*+*+*+*+*+*+*+*+*+*+*+*+*+*+*+*+*+*+*+*+*+*+*+*+*+*+*+*+*+*+*+*+*+*+*+*+*+*+
            BAR SHORTENED BY       0.500 PERCENT
 GRADIENT CRITERION IN FLEPO =     5.518


          FOR POINT  13 SECOND STRUCTURE
 DISTANCE A - B      1.730553
 HEAT                8.829898
 GRADIENT NORM       4.887130
 DIRECTION COSINE    0.335763
geo_dat="C2H4+C4H6-cyclohexene Step 1_10p0_first.mop" geo_ref="C2H4+C4H6-cyclohexene Step 1_10p0_second.mop" saddle geo-ok bar=0.005
 Locate and refine the transition state for the C2H4 plus C4H6 => Cyclohexene Dies-Alder reaction
 (Geometry data for reactant and products are in other files.)
  C(HETATM    1  C   HET A   1)   0.00000000 +1    0.0000000 +1    0.0000000 +1
  C(HETATM    2  C   HET A   1)   1.49541350 +1    0.0000000 +1    0.0000000 +1     1     0     0
  C(HETATM    3  C   HET A   1)   1.33794494 +1  118.0906231 +1    0.0000000 +1     2     1     0
  C(HETATM    4  C   HET A   1)   1.49523131 +1  118.1682843 +1   -0.2980781 +1     3     2     1
  C(HETATM    5  C   HET A   1)   1.54955249 +1  109.1535576 +1   49.5942951 +1     4     3     2
  C(HETATM    6  C   HET A   1)   1.54636252 +1  112.7423680 +1  -46.6495577 +1     5     4     3
  H(HETATM    7 1HT1 HET A   1)   1.11319834 +1  110.0906125 +1   70.9525069 +1     1     2     3
  H(HETATM    8 2HT1 HET A   1)   1.10347276 +1  111.8471026 +1 -172.7849045 +1     1     2     3
  H(HETATM    9 1HT2 HET A   1)   1.10393854 +1  111.7402964 +1  173.1283812 +1     4     3     2
  H(HETATM   10 2HT2 HET A   1)   1.11103628 +1  109.7326312 +1  -70.2386528 +1     4     3     2
  H(HETATM   11 1HT  HET A   1)   1.08031242 +1  117.7440681 +1  177.9030998 +1     2     1     3
  H(HETATM   12 2HT  HET A   1)   1.08058046 +1  124.0931627 +1  177.8394468 +1     3     2     1
  H(HETATM   13 1HT3 HET A   1)   1.10712890 +1  109.5737730 +1  121.6647065 +1     6     5     4
  H(HETATM   14 2HT3 HET A   1)   1.10342292 +1  110.1642276 +1 -122.5463906 +1     6     5     4
  H(HETATM   15 1HT4 HET A   1)   1.10798642 +1  108.9508043 +1   75.2210122 +1     5     4     3
  H(HETATM   16 2HT4 HET A   1)   1.10423469 +1  109.3817968 +1 -169.7975403 +1     5     4     3
 
 TIME=     0.05
  REACTANTS AND PRODUCTS SWAPPED AROUND
 *+*+*+*+*+*+*+*+*+*+*+*+*+*+*+*+*+*+*+*+*+*+*+*+*+*+*+*+*+*+*+*+*+*+*+*+*+*+*+*+
            BAR SHORTENED BY       0.000 PERCENT
 GRADIENT CRITERION IN FLEPO =     1.887
           THERE HAVE BEEN 3 ATTEMPTS TO REDUCE THE GRADIENT.
           DURING THESE ATTEMPTS THE ENERGY DROPPED BY LESS THAN 0.3 KCAL/MOLE
           FURTHER CALCULATION IS NOT JUSTIFIED AT THIS TIME.
           TO CONTINUE, START AGAIN WITH THE WORD "PRECISE"


          FOR POINT  14 FIRST  STRUCTURE
 DISTANCE A - B      1.730553
 HEAT               51.475353
 GRADIENT NORM       8.728667
 DIRECTION COSINE    0.471943
geo_dat="C2H4+C4H6-cyclohexene Step 1_10p0_first.mop" geo_ref="C2H4+C4H6-cyclohexene Step 1_10p0_second.mop" saddle geo-ok bar=0.005
 Locate and refine the transition state for the C2H4 plus C4H6 => Cyclohexene Dies-Alder reaction
 (Geometry data for reactant and products are in other files.)
  C(HETATM    1  C   HET A   1)   0.00000000 +1    0.0000000 +1    0.0000000 +1
  C(HETATM    2  C   HET A   1)   1.33754618 +1    0.0000000 +1    0.0000000 +1     1     0     0
  C(HETATM    3  C   HET A   1)   1.45930898 +1  125.1066196 +1    0.0000000 +1     2     1     0
  C(HETATM    4  C   HET A   1)   1.33902476 +1  125.0463712 +1   -2.5908854 +1     3     2     1
  C(HETATM    5  C   HET A   1)   2.83029792 +1   89.3736496 +1   70.4853493 +1     4     3     2
  C(HETATM    6  C   HET A   1)   1.33089797 +1  107.3573491 +1  -53.2233992 +1     5     4     3
  H(HETATM    7 1HT1 HET A   1)   1.07913860 +1  123.9587051 +1    5.4749013 +1     1     2     3
  H(HETATM    8 2HT1 HET A   1)   1.07877612 +1  123.2380659 +1 -174.6788383 +1     1     2     3
  H(HETATM    9 1HT2 HET A   1)   1.07775278 +1  123.1592639 +1  174.7266580 +1     4     3     2
  H(HETATM   10 2HT2 HET A   1)   1.07567813 +1  123.8918177 +1   -5.1017873 +1     4     3     2
  H(HETATM   11 1HT  HET A   1)   1.09679396 +1  120.5324120 +1  177.6749898 +1     2     1     3
  H(HETATM   12 2HT  HET A   1)   1.09240681 +1  114.5380633 +1  174.5598559 +1     3     2     1
  H(HETATM   13 1HT3 HET A   1)   1.07914091 +1  123.1287257 +1   93.0355065 +1     6     5     4
  H(HETATM   14 2HT3 HET A   1)   1.07991797 +1  123.7465077 +1  -86.5101579 +1     6     5     4
  H(HETATM   15 1HT4 HET A   1)   1.08045937 +1   83.1617297 +1   69.4131094 +1     5     4     3
  H(HETATM   16 2HT4 HET A   1)   1.07978939 +1   77.2890891 +1 -175.1187358 +1     5     4     3
 
 TIME=     0.03
  REACTANTS AND PRODUCTS SWAPPED AROUND
 *+*+*+*+*+*+*+*+*+*+*+*+*+*+*+*+*+*+*+*+*+*+*+*+*+*+*+*+*+*+*+*+*+*+*+*+*+*+*+*+
            BAR SHORTENED BY       0.500 PERCENT
 GRADIENT CRITERION IN FLEPO =     5.729


          FOR POINT  15 SECOND STRUCTURE
 DISTANCE A - B      1.721901
 HEAT                8.797039
 GRADIENT NORM      10.541615
 DIRECTION COSINE   -0.099763
geo_dat="C2H4+C4H6-cyclohexene Step 1_10p0_first.mop" geo_ref="C2H4+C4H6-cyclohexene Step 1_10p0_second.mop" saddle geo-ok bar=0.005
 Locate and refine the transition state for the C2H4 plus C4H6 => Cyclohexene Dies-Alder reaction
 (Geometry data for reactant and products are in other files.)
  C(HETATM    1  C   HET A   1)   0.00000000 +1    0.0000000 +1    0.0000000 +1
  C(HETATM    2  C   HET A   1)   1.49406025 +1    0.0000000 +1    0.0000000 +1     1     0     0
  C(HETATM    3  C   HET A   1)   1.34117474 +1  118.2533279 +1    0.0000000 +1     2     1     0
  C(HETATM    4  C   HET A   1)   1.49717848 +1  117.7984034 +1   -0.3301485 +1     3     2     1
  C(HETATM    5  C   HET A   1)   1.54899611 +1  109.2261871 +1   49.7326197 +1     4     3     2
  C(HETATM    6  C   HET A   1)   1.54635468 +1  112.6652599 +1  -46.8244633 +1     5     4     3
  H(HETATM    7 1HT1 HET A   1)   1.11298595 +1  109.6973683 +1   70.6250776 +1     1     2     3
  H(HETATM    8 2HT1 HET A   1)   1.10376722 +1  111.6582002 +1 -173.1626965 +1     1     2     3
  H(HETATM    9 1HT2 HET A   1)   1.10406404 +1  111.6571100 +1  173.3751860 +1     4     3     2
  H(HETATM   10 2HT2 HET A   1)   1.10600793 +1  109.8968475 +1  -70.1762326 +1     4     3     2
  H(HETATM   11 1HT  HET A   1)   1.08063753 +1  118.2249587 +1  177.6334163 +1     2     1     3
  H(HETATM   12 2HT  HET A   1)   1.07912464 +1  124.2422416 +1  177.4663326 +1     3     2     1
  H(HETATM   13 1HT3 HET A   1)   1.10686113 +1  109.6510655 +1  121.7062466 +1     6     5     4
  H(HETATM   14 2HT3 HET A   1)   1.10376441 +1  110.2396603 +1 -122.4503823 +1     6     5     4
  H(HETATM   15 1HT4 HET A   1)   1.10605695 +1  109.1128304 +1   75.0905741 +1     5     4     3
  H(HETATM   16 2HT4 HET A   1)   1.10426522 +1  109.3133831 +1 -169.9117926 +1     5     4     3
 
 TIME=     0.00
  REACTANTS AND PRODUCTS SWAPPED AROUND
 *+*+*+*+*+*+*+*+*+*+*+*+*+*+*+*+*+*+*+*+*+*+*+*+*+*+*+*+*+*+*+*+*+*+*+*+*+*+*+*+
            BAR SHORTENED BY       0.500 PERCENT
 GRADIENT CRITERION IN FLEPO =     7.542


          FOR POINT  16 FIRST  STRUCTURE
 DISTANCE A - B      1.713291
 HEAT               51.325095
 GRADIENT NORM       6.364023
 DIRECTION COSINE    0.205960
geo_dat="C2H4+C4H6-cyclohexene Step 1_10p0_first.mop" geo_ref="C2H4+C4H6-cyclohexene Step 1_10p0_second.mop" saddle geo-ok bar=0.005
 Locate and refine the transition state for the C2H4 plus C4H6 => Cyclohexene Dies-Alder reaction
 (Geometry data for reactant and products are in other files.)
  C(HETATM    1  C   HET A   1)   0.00000000 +1    0.0000000 +1    0.0000000 +1
  C(HETATM    2  C   HET A   1)   1.33812172 +1    0.0000000 +1    0.0000000 +1     1     0     0
  C(HETATM    3  C   HET A   1)   1.45820944 +1  124.9622049 +1    0.0000000 +1     2     1     0
  C(HETATM    4  C   HET A   1)   1.33769780 +1  125.1671245 +1   -2.7819596 +1     3     2     1
  C(HETATM    5  C   HET A   1)   2.82357210 +1   89.5086521 +1   70.4673826 +1     4     3     2
  C(HETATM    6  C   HET A   1)   1.33114268 +1  107.3816676 +1  -53.1566604 +1     5     4     3
  H(HETATM    7 1HT1 HET A   1)   1.07863328 +1  124.0646761 +1    5.7822226 +1     1     2     3
  H(HETATM    8 2HT1 HET A   1)   1.07859359 +1  123.1494344 +1 -174.5037539 +1     1     2     3
  H(HETATM    9 1HT2 HET A   1)   1.07916980 +1  123.1373238 +1  174.8837348 +1     4     3     2
  H(HETATM   10 2HT2 HET A   1)   1.07766919 +1  123.9961301 +1   -5.3655765 +1     4     3     2
  H(HETATM   11 1HT  HET A   1)   1.09297298 +1  120.3740165 +1  177.3426175 +1     2     1     3
  H(HETATM   12 2HT  HET A   1)   1.09223864 +1  114.6242175 +1  174.6889789 +1     3     2     1
  H(HETATM   13 1HT3 HET A   1)   1.07646829 +1  123.6356474 +1   93.4732942 +1     6     5     4
  H(HETATM   14 2HT3 HET A   1)   1.07863398 +1  123.7213234 +1  -86.7553038 +1     6     5     4
  H(HETATM   15 1HT4 HET A   1)   1.08003329 +1   83.0950791 +1   70.3850161 +1     5     4     3
  H(HETATM   16 2HT4 HET A   1)   1.07877645 +1   77.5664825 +1 -175.0114576 +1     5     4     3
 
 TIME=     0.02
  REACTANTS AND PRODUCTS SWAPPED AROUND
 *+*+*+*+*+*+*+*+*+*+*+*+*+*+*+*+*+*+*+*+*+*+*+*+*+*+*+*+*+*+*+*+*+*+*+*+*+*+*+*+
            BAR SHORTENED BY       0.500 PERCENT
 GRADIENT CRITERION IN FLEPO =     3.364


          FOR POINT  17 SECOND STRUCTURE
 DISTANCE A - B      1.704725
 HEAT                8.663395
 GRADIENT NORM       7.443652
 DIRECTION COSINE    0.217692
geo_dat="C2H4+C4H6-cyclohexene Step 1_10p0_first.mop" geo_ref="C2H4+C4H6-cyclohexene Step 1_10p0_second.mop" saddle geo-ok bar=0.005
 Locate and refine the transition state for the C2H4 plus C4H6 => Cyclohexene Dies-Alder reaction
 (Geometry data for reactant and products are in other files.)
  C(HETATM    1  C   HET A   1)   0.00000000 +1    0.0000000 +1    0.0000000 +1
  C(HETATM    2  C   HET A   1)   1.49629902 +1    0.0000000 +1    0.0000000 +1     1     0     0
  C(HETATM    3  C   HET A   1)   1.33686860 +1  118.1950228 +1    0.0000000 +1     2     1     0
  C(HETATM    4  C   HET A   1)   1.49451600 +1  118.0184042 +1   -0.2746558 +1     3     2     1
  C(HETATM    5  C   HET A   1)   1.55057155 +1  109.1810934 +1   49.8332484 +1     4     3     2
  C(HETATM    6  C   HET A   1)   1.54951174 +1  112.6189185 +1  -46.7683766 +1     5     4     3
  H(HETATM    7 1HT1 HET A   1)   1.11328740 +1  110.2694354 +1   70.1219908 +1     1     2     3
  H(HETATM    8 2HT1 HET A   1)   1.10218347 +1  111.8899753 +1 -173.1435733 +1     1     2     3
  H(HETATM    9 1HT2 HET A   1)   1.10390334 +1  112.0676148 +1  173.6680763 +1     4     3     2
  H(HETATM   10 2HT2 HET A   1)   1.11080353 +1  110.1189322 +1  -69.8929961 +1     4     3     2
  H(HETATM   11 1HT  HET A   1)   1.08059664 +1  117.8878935 +1  177.7199272 +1     2     1     3
  H(HETATM   12 2HT  HET A   1)   1.07952546 +1  124.1408237 +1  177.6673140 +1     3     2     1
  H(HETATM   13 1HT3 HET A   1)   1.10854052 +1  109.6413979 +1  121.5649994 +1     6     5     4
  H(HETATM   14 2HT3 HET A   1)   1.10537182 +1  109.7445860 +1 -122.6359161 +1     6     5     4
  H(HETATM   15 1HT4 HET A   1)   1.10825421 +1  109.0375968 +1   75.1043550 +1     5     4     3
  H(HETATM   16 2HT4 HET A   1)   1.10551666 +1  109.5487632 +1 -169.8749544 +1     5     4     3
 
 *+*+*+*+*+*+*+*+*+*+*+*+*+*+*+*+*+*+*+*+*+*+*+*+*+*+*+*+*+*+*+*+*+*+*+*+*+*+*+*+
            BAR SHORTENED BY       0.500 PERCENT
 GRADIENT CRITERION IN FLEPO =     4.444


          FOR POINT  18 SECOND STRUCTURE
 DISTANCE A - B      1.696201
 HEAT                8.629024
 GRADIENT NORM       7.510148
 DIRECTION COSINE    0.200945
geo_dat="C2H4+C4H6-cyclohexene Step 1_10p0_first.mop" geo_ref="C2H4+C4H6-cyclohexene Step 1_10p0_second.mop" saddle geo-ok bar=0.005
 Locate and refine the transition state for the C2H4 plus C4H6 => Cyclohexene Dies-Alder reaction
 (Geometry data for reactant and products are in other files.)
  C(HETATM    1  C   HET A   1)   0.00000000 +1    0.0000000 +1    0.0000000 +1
  C(HETATM    2  C   HET A   1)   1.49606388 +1    0.0000000 +1    0.0000000 +1     1     0     0
  C(HETATM    3  C   HET A   1)   1.33919353 +1  118.0049635 +1    0.0000000 +1     2     1     0
  C(HETATM    4  C   HET A   1)   1.49564024 +1  118.1176642 +1    0.0052125 +1     3     2     1
  C(HETATM    5  C   HET A   1)   1.55171516 +1  109.0058632 +1   49.5873256 +1     4     3     2
  C(HETATM    6  C   HET A   1)   1.54615719 +1  112.7560575 +1  -46.8317199 +1     5     4     3
  H(HETATM    7 1HT1 HET A   1)   1.11636838 +1  110.0678423 +1   69.4294628 +1     1     2     3
  H(HETATM    8 2HT1 HET A   1)   1.10661145 +1  111.8226027 +1 -173.8441521 +1     1     2     3
  H(HETATM    9 1HT2 HET A   1)   1.10405933 +1  111.9476637 +1  173.6326713 +1     4     3     2
  H(HETATM   10 2HT2 HET A   1)   1.11239023 +1  109.8066608 +1  -69.8759228 +1     4     3     2
  H(HETATM   11 1HT  HET A   1)   1.07867509 +1  118.0964761 +1  177.9368303 +1     2     1     3
  H(HETATM   12 2HT  HET A   1)   1.08200740 +1  123.9209775 +1  177.3050974 +1     3     2     1
  H(HETATM   13 1HT3 HET A   1)   1.10588557 +1  109.8007872 +1  121.7105311 +1     6     5     4
  H(HETATM   14 2HT3 HET A   1)   1.10581912 +1  110.1387635 +1 -122.5587064 +1     6     5     4
  H(HETATM   15 1HT4 HET A   1)   1.10477220 +1  109.0875315 +1   75.2507140 +1     5     4     3
  H(HETATM   16 2HT4 HET A   1)   1.10393314 +1  109.5851087 +1 -170.0458801 +1     5     4     3
 
 *+*+*+*+*+*+*+*+*+*+*+*+*+*+*+*+*+*+*+*+*+*+*+*+*+*+*+*+*+*+*+*+*+*+*+*+*+*+*+*+
            BAR SHORTENED BY       0.500 PERCENT
 GRADIENT CRITERION IN FLEPO =     4.510


          FOR POINT  19 SECOND STRUCTURE
 DISTANCE A - B      1.687720
 HEAT                8.586356
 GRADIENT NORM       6.726583
 DIRECTION COSINE   -0.209875
geo_dat="C2H4+C4H6-cyclohexene Step 1_10p0_first.mop" geo_ref="C2H4+C4H6-cyclohexene Step 1_10p0_second.mop" saddle geo-ok bar=0.005
 Locate and refine the transition state for the C2H4 plus C4H6 => Cyclohexene Dies-Alder reaction
 (Geometry data for reactant and products are in other files.)
  C(HETATM    1  C   HET A   1)   0.00000000 +1    0.0000000 +1    0.0000000 +1
  C(HETATM    2  C   HET A   1)   1.49628451 +1    0.0000000 +1    0.0000000 +1     1     0     0
  C(HETATM    3  C   HET A   1)   1.33840362 +1  118.1380187 +1    0.0000000 +1     2     1     0
  C(HETATM    4  C   HET A   1)   1.49719181 +1  117.8610134 +1   -0.2851876 +1     3     2     1
  C(HETATM    5  C   HET A   1)   1.54976161 +1  108.9296621 +1   50.2837767 +1     4     3     2
  C(HETATM    6  C   HET A   1)   1.54932440 +1  112.6083916 +1  -47.2611907 +1     5     4     3
  H(HETATM    7 1HT1 HET A   1)   1.10838859 +1  110.0984656 +1   69.4717818 +1     1     2     3
  H(HETATM    8 2HT1 HET A   1)   1.10314332 +1  111.5729745 +1 -173.6506048 +1     1     2     3
  H(HETATM    9 1HT2 HET A   1)   1.10726700 +1  111.7430517 +1  174.1406914 +1     4     3     2
  H(HETATM   10 2HT2 HET A   1)   1.10819654 +1  109.9949563 +1  -69.4354588 +1     4     3     2
  H(HETATM   11 1HT  HET A   1)   1.08115925 +1  118.0413713 +1  177.6363114 +1     2     1     3
  H(HETATM   12 2HT  HET A   1)   1.07818964 +1  124.1614144 +1  177.6078444 +1     3     2     1
  H(HETATM   13 1HT3 HET A   1)   1.10763473 +1  109.7028400 +1  121.6468540 +1     6     5     4
  H(HETATM   14 2HT3 HET A   1)   1.10229767 +1  110.2065943 +1 -122.4643548 +1     6     5     4
  H(HETATM   15 1HT4 HET A   1)   1.10687215 +1  109.2191327 +1   74.6593849 +1     5     4     3
  H(HETATM   16 2HT4 HET A   1)   1.10483834 +1  109.6009240 +1 -170.3225451 +1     5     4     3
 
 TIME=     0.05
  REACTANTS AND PRODUCTS SWAPPED AROUND
 *+*+*+*+*+*+*+*+*+*+*+*+*+*+*+*+*+*+*+*+*+*+*+*+*+*+*+*+*+*+*+*+*+*+*+*+*+*+*+*+
            BAR SHORTENED BY       0.000 PERCENT
 GRADIENT CRITERION IN FLEPO =     3.727


          FOR POINT  20 FIRST  STRUCTURE
 DISTANCE A - B      1.687720
 HEAT               51.009726
 GRADIENT NORM       6.777911
 DIRECTION COSINE   -0.060715
geo_dat="C2H4+C4H6-cyclohexene Step 1_10p0_first.mop" geo_ref="C2H4+C4H6-cyclohexene Step 1_10p0_second.mop" saddle geo-ok bar=0.005
 Locate and refine the transition state for the C2H4 plus C4H6 => Cyclohexene Dies-Alder reaction
 (Geometry data for reactant and products are in other files.)
  C(HETATM    1  C   HET A   1)   0.00000000 +1    0.0000000 +1    0.0000000 +1
  C(HETATM    2  C   HET A   1)   1.33841933 +1    0.0000000 +1    0.0000000 +1     1     0     0
  C(HETATM    3  C   HET A   1)   1.45939715 +1  125.0162559 +1    0.0000000 +1     2     1     0
  C(HETATM    4  C   HET A   1)   1.33809059 +1  124.9493601 +1   -2.7011818 +1     3     2     1
  C(HETATM    5  C   HET A   1)   2.82597378 +1   89.7945933 +1   70.3026192 +1     4     3     2
  C(HETATM    6  C   HET A   1)   1.33088885 +1  107.4532088 +1  -53.2093724 +1     5     4     3
  H(HETATM    7 1HT1 HET A   1)   1.07716700 +1  124.0990755 +1    5.5953252 +1     1     2     3
  H(HETATM    8 2HT1 HET A   1)   1.07844893 +1  122.9027454 +1 -174.5369146 +1     1     2     3
  H(HETATM    9 1HT2 HET A   1)   1.07848327 +1  122.9181223 +1  175.0071650 +1     4     3     2
  H(HETATM   10 2HT2 HET A   1)   1.07774954 +1  124.0771591 +1   -5.1523055 +1     4     3     2
  H(HETATM   11 1HT  HET A   1)   1.09514416 +1  120.0413498 +1  177.2263041 +1     2     1     3
  H(HETATM   12 2HT  HET A   1)   1.09341016 +1  114.6633609 +1  174.7328955 +1     3     2     1
  H(HETATM   13 1HT3 HET A   1)   1.08086709 +1  123.5109323 +1   93.0157948 +1     6     5     4
  H(HETATM   14 2HT3 HET A   1)   1.07788654 +1  123.5474418 +1  -86.5877704 +1     6     5     4
  H(HETATM   15 1HT4 HET A   1)   1.07929332 +1   82.9049028 +1   70.0185196 +1     5     4     3
  H(HETATM   16 2HT4 HET A   1)   1.08053188 +1   77.5978643 +1 -174.7613855 +1     5     4     3
 
 TIME=     0.02
  REACTANTS AND PRODUCTS SWAPPED AROUND
 *+*+*+*+*+*+*+*+*+*+*+*+*+*+*+*+*+*+*+*+*+*+*+*+*+*+*+*+*+*+*+*+*+*+*+*+*+*+*+*+
            BAR SHORTENED BY       0.500 PERCENT
 GRADIENT CRITERION IN FLEPO =     3.778


          FOR POINT  21 SECOND STRUCTURE
 DISTANCE A - B      1.679282
 HEAT                8.522260
 GRADIENT NORM       3.938272
 DIRECTION COSINE    0.120775
geo_dat="C2H4+C4H6-cyclohexene Step 1_10p0_first.mop" geo_ref="C2H4+C4H6-cyclohexene Step 1_10p0_second.mop" saddle geo-ok bar=0.005
 Locate and refine the transition state for the C2H4 plus C4H6 => Cyclohexene Dies-Alder reaction
 (Geometry data for reactant and products are in other files.)
  C(HETATM    1  C   HET A   1)   0.00000000 +1    0.0000000 +1    0.0000000 +1
  C(HETATM    2  C   HET A   1)   1.49538100 +1    0.0000000 +1    0.0000000 +1     1     0     0
  C(HETATM    3  C   HET A   1)   1.33839143 +1  118.0006474 +1    0.0000000 +1     2     1     0
  C(HETATM    4  C   HET A   1)   1.49608109 +1  117.8660084 +1   -0.1833588 +1     3     2     1
  C(HETATM    5  C   HET A   1)   1.55209652 +1  108.8796494 +1   50.2802325 +1     4     3     2
  C(HETATM    6  C   HET A   1)   1.54720493 +1  112.6131292 +1  -47.3162272 +1     5     4     3
  H(HETATM    7 1HT1 HET A   1)   1.11110913 +1  110.2291740 +1   69.3367503 +1     1     2     3
  H(HETATM    8 2HT1 HET A   1)   1.10190885 +1  111.8694567 +1 -174.0416604 +1     1     2     3
  H(HETATM    9 1HT2 HET A   1)   1.10399071 +1  111.8211451 +1  174.2089005 +1     4     3     2
  H(HETATM   10 2HT2 HET A   1)   1.11034258 +1  109.9764220 +1  -69.2006738 +1     4     3     2
  H(HETATM   11 1HT  HET A   1)   1.07923370 +1  118.0256726 +1  177.5459473 +1     2     1     3
  H(HETATM   12 2HT  HET A   1)   1.07958074 +1  124.1650255 +1  177.2444982 +1     3     2     1
  H(HETATM   13 1HT3 HET A   1)   1.10665681 +1  109.7354420 +1  121.5084201 +1     6     5     4
  H(HETATM   14 2HT3 HET A   1)   1.10342929 +1  110.3116452 +1 -122.4893881 +1     6     5     4
  H(HETATM   15 1HT4 HET A   1)   1.10583371 +1  109.0460458 +1   74.5588760 +1     5     4     3
  H(HETATM   16 2HT4 HET A   1)   1.10336185 +1  109.4922925 +1 -170.4183496 +1     5     4     3
 
 *+*+*+*+*+*+*+*+*+*+*+*+*+*+*+*+*+*+*+*+*+*+*+*+*+*+*+*+*+*+*+*+*+*+*+*+*+*+*+*+
            BAR SHORTENED BY       0.500 PERCENT
 GRADIENT CRITERION IN FLEPO =     3.778


          FOR POINT  22 SECOND STRUCTURE
 DISTANCE A - B      1.670885
 HEAT                8.504746
 GRADIENT NORM       5.989737
 DIRECTION COSINE    0.567854
geo_dat="C2H4+C4H6-cyclohexene Step 1_10p0_first.mop" geo_ref="C2H4+C4H6-cyclohexene Step 1_10p0_second.mop" saddle geo-ok bar=0.005
 Locate and refine the transition state for the C2H4 plus C4H6 => Cyclohexene Dies-Alder reaction
 (Geometry data for reactant and products are in other files.)
  C(HETATM    1  C   HET A   1)   0.00000000 +1    0.0000000 +1    0.0000000 +1
  C(HETATM    2  C   HET A   1)   1.49534663 +1    0.0000000 +1    0.0000000 +1     1     0     0
  C(HETATM    3  C   HET A   1)   1.33828788 +1  117.9354704 +1    0.0000000 +1     2     1     0
  C(HETATM    4  C   HET A   1)   1.49741159 +1  117.7415841 +1   -0.4378677 +1     3     2     1
  C(HETATM    5  C   HET A   1)   1.55218044 +1  108.7688346 +1   50.7633241 +1     4     3     2
  C(HETATM    6  C   HET A   1)   1.54762993 +1  112.4674812 +1  -47.7197264 +1     5     4     3
  H(HETATM    7 1HT1 HET A   1)   1.11456573 +1  110.2125650 +1   69.0835254 +1     1     2     3
  H(HETATM    8 2HT1 HET A   1)   1.10425532 +1  111.8427697 +1 -174.3611733 +1     1     2     3
  H(HETATM    9 1HT2 HET A   1)   1.10515625 +1  111.5982208 +1  174.5268041 +1     4     3     2
  H(HETATM   10 2HT2 HET A   1)   1.10817316 +1  110.0777503 +1  -69.0592430 +1     4     3     2
  H(HETATM   11 1HT  HET A   1)   1.07947330 +1  117.9415930 +1  177.4615302 +1     2     1     3
  H(HETATM   12 2HT  HET A   1)   1.07995558 +1  124.0346546 +1  177.2461910 +1     3     2     1
  H(HETATM   13 1HT3 HET A   1)   1.10624075 +1  109.7817237 +1  121.6915928 +1     6     5     4
  H(HETATM   14 2HT3 HET A   1)   1.10388944 +1  110.3061867 +1 -122.3763771 +1     6     5     4
  H(HETATM   15 1HT4 HET A   1)   1.10639767 +1  109.0963606 +1   74.2708154 +1     5     4     3
  H(HETATM   16 2HT4 HET A   1)   1.10405358 +1  109.3377970 +1 -170.7273343 +1     5     4     3
 
 *+*+*+*+*+*+*+*+*+*+*+*+*+*+*+*+*+*+*+*+*+*+*+*+*+*+*+*+*+*+*+*+*+*+*+*+*+*+*+*+
            BAR SHORTENED BY       0.500 PERCENT
 GRADIENT CRITERION IN FLEPO =     2.990


          FOR POINT  23 SECOND STRUCTURE
 DISTANCE A - B      1.662531
 HEAT                8.467636
 GRADIENT NORM       4.913906
 DIRECTION COSINE    0.488783
geo_dat="C2H4+C4H6-cyclohexene Step 1_10p0_first.mop" geo_ref="C2H4+C4H6-cyclohexene Step 1_10p0_second.mop" saddle geo-ok bar=0.005
 Locate and refine the transition state for the C2H4 plus C4H6 => Cyclohexene Dies-Alder reaction
 (Geometry data for reactant and products are in other files.)
  C(HETATM    1  C   HET A   1)   0.00000000 +1    0.0000000 +1    0.0000000 +1
  C(HETATM    2  C   HET A   1)   1.49741097 +1    0.0000000 +1    0.0000000 +1     1     0     0
  C(HETATM    3  C   HET A   1)   1.33804550 +1  117.7512460 +1    0.0000000 +1     2     1     0
  C(HETATM    4  C   HET A   1)   1.49623832 +1  117.8238284 +1   -0.3431810 +1     3     2     1
  C(HETATM    5  C   HET A   1)   1.55434498 +1  108.7455628 +1   50.7428459 +1     4     3     2
  C(HETATM    6  C   HET A   1)   1.54696740 +1  112.4868691 +1  -47.6576484 +1     5     4     3
  H(HETATM    7 1HT1 HET A   1)   1.11201651 +1  110.1944960 +1   68.7901965 +1     1     2     3
  H(HETATM    8 2HT1 HET A   1)   1.10393197 +1  111.8239353 +1 -174.5497799 +1     1     2     3
  H(HETATM    9 1HT2 HET A   1)   1.10301056 +1  112.1734322 +1  174.7173258 +1     4     3     2
  H(HETATM   10 2HT2 HET A   1)   1.11006670 +1  109.9972714 +1  -68.7639075 +1     4     3     2
  H(HETATM   11 1HT  HET A   1)   1.07889116 +1  118.1112364 +1  176.9497164 +1     2     1     3
  H(HETATM   12 2HT  HET A   1)   1.07994157 +1  124.3083377 +1  177.0550180 +1     3     2     1
  H(HETATM   13 1HT3 HET A   1)   1.10603519 +1  109.8108591 +1  121.5511244 +1     6     5     4
  H(HETATM   14 2HT3 HET A   1)   1.10310419 +1  110.3195282 +1 -122.4880119 +1     6     5     4
  H(HETATM   15 1HT4 HET A   1)   1.10661660 +1  108.9874656 +1   74.3112954 +1     5     4     3
  H(HETATM   16 2HT4 HET A   1)   1.10359833 +1  109.3744762 +1 -170.7827446 +1     5     4     3
 
 TIME=     0.06
  REACTANTS AND PRODUCTS SWAPPED AROUND
 *+*+*+*+*+*+*+*+*+*+*+*+*+*+*+*+*+*+*+*+*+*+*+*+*+*+*+*+*+*+*+*+*+*+*+*+*+*+*+*+
            BAR SHORTENED BY       0.000 PERCENT
 GRADIENT CRITERION IN FLEPO =     1.914
           THERE HAVE BEEN 3 ATTEMPTS TO REDUCE THE GRADIENT.
           DURING THESE ATTEMPTS THE ENERGY DROPPED BY LESS THAN 0.3 KCAL/MOLE
           FURTHER CALCULATION IS NOT JUSTIFIED AT THIS TIME.
           TO CONTINUE, START AGAIN WITH THE WORD "PRECISE"


          FOR POINT  24 FIRST  STRUCTURE
 DISTANCE A - B      1.662531
 HEAT               50.714835
 GRADIENT NORM      10.563620
 DIRECTION COSINE   -0.248332
geo_dat="C2H4+C4H6-cyclohexene Step 1_10p0_first.mop" geo_ref="C2H4+C4H6-cyclohexene Step 1_10p0_second.mop" saddle geo-ok bar=0.005
 Locate and refine the transition state for the C2H4 plus C4H6 => Cyclohexene Dies-Alder reaction
 (Geometry data for reactant and products are in other files.)
  C(HETATM    1  C   HET A   1)   0.00000000 +1    0.0000000 +1    0.0000000 +1
  C(HETATM    2  C   HET A   1)   1.33803164 +1    0.0000000 +1    0.0000000 +1     1     0     0
  C(HETATM    3  C   HET A   1)   1.45541516 +1  125.0098316 +1    0.0000000 +1     2     1     0
  C(HETATM    4  C   HET A   1)   1.34023358 +1  125.0458489 +1   -2.6056475 +1     3     2     1
  C(HETATM    5  C   HET A   1)   2.82976408 +1   89.9448092 +1   70.0554384 +1     4     3     2
  C(HETATM    6  C   HET A   1)   1.33026426 +1  107.4069706 +1  -52.9425074 +1     5     4     3
  H(HETATM    7 1HT1 HET A   1)   1.07694505 +1  124.0550753 +1    4.8377675 +1     1     2     3
  H(HETATM    8 2HT1 HET A   1)   1.07767225 +1  123.1233423 +1 -175.1669059 +1     1     2     3
  H(HETATM    9 1HT2 HET A   1)   1.07970208 +1  123.0327733 +1  175.0130103 +1     4     3     2
  H(HETATM   10 2HT2 HET A   1)   1.07495311 +1  123.6372810 +1   -4.4278686 +1     4     3     2
  H(HETATM   11 1HT  HET A   1)   1.09399492 +1  120.0305569 +1  177.4601444 +1     2     1     3
  H(HETATM   12 2HT  HET A   1)   1.09454571 +1  114.8449721 +1  175.6717641 +1     3     2     1
  H(HETATM   13 1HT3 HET A   1)   1.08059865 +1  123.4662695 +1   92.7210025 +1     6     5     4
  H(HETATM   14 2HT3 HET A   1)   1.07737204 +1  123.5721950 +1  -86.9163485 +1     6     5     4
  H(HETATM   15 1HT4 HET A   1)   1.08200581 +1   82.5848144 +1   69.8425267 +1     5     4     3
  H(HETATM   16 2HT4 HET A   1)   1.08065863 +1   78.0732475 +1 -174.5129906 +1     5     4     3
 
 TIME=     0.03
  REACTANTS AND PRODUCTS SWAPPED AROUND
 *+*+*+*+*+*+*+*+*+*+*+*+*+*+*+*+*+*+*+*+*+*+*+*+*+*+*+*+*+*+*+*+*+*+*+*+*+*+*+*+
            BAR SHORTENED BY       0.500 PERCENT
 GRADIENT CRITERION IN FLEPO =     7.564


          FOR POINT  25 SECOND STRUCTURE
 DISTANCE A - B      1.654218
 HEAT                8.501138
 GRADIENT NORM       9.616038
 DIRECTION COSINE   -0.339917
geo_dat="C2H4+C4H6-cyclohexene Step 1_10p0_first.mop" geo_ref="C2H4+C4H6-cyclohexene Step 1_10p0_second.mop" saddle geo-ok bar=0.005
 Locate and refine the transition state for the C2H4 plus C4H6 => Cyclohexene Dies-Alder reaction
 (Geometry data for reactant and products are in other files.)
  C(HETATM    1  C   HET A   1)   0.00000000 +1    0.0000000 +1    0.0000000 +1
  C(HETATM    2  C   HET A   1)   1.49623569 +1    0.0000000 +1    0.0000000 +1     1     0     0
  C(HETATM    3  C   HET A   1)   1.33863051 +1  117.7878207 +1    0.0000000 +1     2     1     0
  C(HETATM    4  C   HET A   1)   1.49506284 +1  117.8655057 +1   -0.3520528 +1     3     2     1
  C(HETATM    5  C   HET A   1)   1.56065279 +1  108.6695576 +1   50.8511032 +1     4     3     2
  C(HETATM    6  C   HET A   1)   1.54588380 +1  112.4422478 +1  -47.7061108 +1     5     4     3
  H(HETATM    7 1HT1 HET A   1)   1.11065412 +1  110.3454710 +1   68.5780741 +1     1     2     3
  H(HETATM    8 2HT1 HET A   1)   1.10377560 +1  111.8807003 +1 -174.5591558 +1     1     2     3
  H(HETATM    9 1HT2 HET A   1)   1.10286664 +1  112.2337153 +1  174.7267116 +1     4     3     2
  H(HETATM   10 2HT2 HET A   1)   1.10885169 +1  110.1415642 +1  -68.5426491 +1     4     3     2
  H(HETATM   11 1HT  HET A   1)   1.07868050 +1  118.1095223 +1  176.9249472 +1     2     1     3
  H(HETATM   12 2HT  HET A   1)   1.07963231 +1  124.2690503 +1  177.0209614 +1     3     2     1
  H(HETATM   13 1HT3 HET A   1)   1.10510385 +1  109.8888328 +1  121.4490855 +1     6     5     4
  H(HETATM   14 2HT3 HET A   1)   1.10217999 +1  110.3956719 +1 -122.3245160 +1     6     5     4
  H(HETATM   15 1HT4 HET A   1)   1.10569956 +1  108.8873762 +1   74.2627130 +1     5     4     3
  H(HETATM   16 2HT4 HET A   1)   1.10269805 +1  109.2295178 +1 -170.7934891 +1     5     4     3
 
 TIME=     0.02
  REACTANTS AND PRODUCTS SWAPPED AROUND
 *+*+*+*+*+*+*+*+*+*+*+*+*+*+*+*+*+*+*+*+*+*+*+*+*+*+*+*+*+*+*+*+*+*+*+*+*+*+*+*+
            BAR SHORTENED BY       0.500 PERCENT
 GRADIENT CRITERION IN FLEPO =     6.616


          FOR POINT  26 FIRST  STRUCTURE
 DISTANCE A - B      1.645947
 HEAT               50.582140
 GRADIENT NORM      10.351034
 DIRECTION COSINE   -0.249715
geo_dat="C2H4+C4H6-cyclohexene Step 1_10p0_first.mop" geo_ref="C2H4+C4H6-cyclohexene Step 1_10p0_second.mop" saddle geo-ok bar=0.005
 Locate and refine the transition state for the C2H4 plus C4H6 => Cyclohexene Dies-Alder reaction
 (Geometry data for reactant and products are in other files.)
  C(HETATM    1  C   HET A   1)   0.00000000 +1    0.0000000 +1    0.0000000 +1
  C(HETATM    2  C   HET A   1)   1.33573064 +1    0.0000000 +1    0.0000000 +1     1     0     0
  C(HETATM    3  C   HET A   1)   1.46092784 +1  125.0870048 +1    0.0000000 +1     2     1     0
  C(HETATM    4  C   HET A   1)   1.33722746 +1  124.8042702 +1   -2.1696482 +1     3     2     1
  C(HETATM    5  C   HET A   1)   2.82329789 +1   90.3501752 +1   69.7287109 +1     4     3     2
  C(HETATM    6  C   HET A   1)   1.33009011 +1  107.4375865 +1  -52.7523209 +1     5     4     3
  H(HETATM    7 1HT1 HET A   1)   1.08015442 +1  124.1185973 +1    4.7083638 +1     1     2     3
  H(HETATM    8 2HT1 HET A   1)   1.07933981 +1  123.1215746 +1 -174.8820972 +1     1     2     3
  H(HETATM    9 1HT2 HET A   1)   1.07762748 +1  123.1245070 +1  175.1012705 +1     4     3     2
  H(HETATM   10 2HT2 HET A   1)   1.07948824 +1  123.9584635 +1   -5.1546569 +1     4     3     2
  H(HETATM   11 1HT  HET A   1)   1.09188661 +1  120.0733038 +1  178.4427253 +1     2     1     3
  H(HETATM   12 2HT  HET A   1)   1.09158609 +1  114.9682919 +1  175.7812696 +1     3     2     1
  H(HETATM   13 1HT3 HET A   1)   1.07863727 +1  123.6371001 +1   92.4439108 +1     6     5     4
  H(HETATM   14 2HT3 HET A   1)   1.08167480 +1  123.4791988 +1  -87.1094792 +1     6     5     4
  H(HETATM   15 1HT4 HET A   1)   1.08009402 +1   82.5915638 +1   69.8215083 +1     5     4     3
  H(HETATM   16 2HT4 HET A   1)   1.07449148 +1   78.3090411 +1 -174.6313208 +1     5     4     3
 
 TIME=     0.02
  REACTANTS AND PRODUCTS SWAPPED AROUND
 *+*+*+*+*+*+*+*+*+*+*+*+*+*+*+*+*+*+*+*+*+*+*+*+*+*+*+*+*+*+*+*+*+*+*+*+*+*+*+*+
            BAR SHORTENED BY       0.500 PERCENT
 GRADIENT CRITERION IN FLEPO =     7.351


          FOR POINT  27 SECOND STRUCTURE
 DISTANCE A - B      1.637717
 HEAT                8.416239
 GRADIENT NORM       8.295739
 DIRECTION COSINE   -0.171764
geo_dat="C2H4+C4H6-cyclohexene Step 1_10p0_first.mop" geo_ref="C2H4+C4H6-cyclohexene Step 1_10p0_second.mop" saddle geo-ok bar=0.005
 Locate and refine the transition state for the C2H4 plus C4H6 => Cyclohexene Dies-Alder reaction
 (Geometry data for reactant and products are in other files.)
  C(HETATM    1  C   HET A   1)   0.00000000 +1    0.0000000 +1    0.0000000 +1
  C(HETATM    2  C   HET A   1)   1.49520438 +1    0.0000000 +1    0.0000000 +1     1     0     0
  C(HETATM    3  C   HET A   1)   1.33855374 +1  117.7220490 +1    0.0000000 +1     2     1     0
  C(HETATM    4  C   HET A   1)   1.49721379 +1  117.7710701 +1   -0.3164464 +1     3     2     1
  C(HETATM    5  C   HET A   1)   1.55740533 +1  108.5917044 +1   51.1358045 +1     4     3     2
  C(HETATM    6  C   HET A   1)   1.54825771 +1  112.3270470 +1  -47.9637544 +1     5     4     3
  H(HETATM    7 1HT1 HET A   1)   1.10950190 +1  110.5192190 +1   68.3832578 +1     1     2     3
  H(HETATM    8 2HT1 HET A   1)   1.10384599 +1  111.6469718 +1 -174.8907874 +1     1     2     3
  H(HETATM    9 1HT2 HET A   1)   1.10763919 +1  111.6857228 +1  175.0034659 +1     4     3     2
  H(HETATM   10 2HT2 HET A   1)   1.10751665 +1  109.9862338 +1  -68.6039660 +1     4     3     2
  H(HETATM   11 1HT  HET A   1)   1.08302433 +1  118.2572011 +1  176.9428899 +1     2     1     3
  H(HETATM   12 2HT  HET A   1)   1.08004857 +1  123.9970438 +1  176.9088082 +1     3     2     1
  H(HETATM   13 1HT3 HET A   1)   1.10663419 +1  110.0463035 +1  121.7728765 +1     6     5     4
  H(HETATM   14 2HT3 HET A   1)   1.10462584 +1  110.4515592 +1 -122.2196155 +1     6     5     4
  H(HETATM   15 1HT4 HET A   1)   1.10756342 +1  109.0814833 +1   74.0497773 +1     5     4     3
  H(HETATM   16 2HT4 HET A   1)   1.10414734 +1  109.2279306 +1 -170.9427390 +1     5     4     3
 
 TIME=     0.02
  REACTANTS AND PRODUCTS SWAPPED AROUND
 *+*+*+*+*+*+*+*+*+*+*+*+*+*+*+*+*+*+*+*+*+*+*+*+*+*+*+*+*+*+*+*+*+*+*+*+*+*+*+*+
            BAR SHORTENED BY       0.500 PERCENT
 GRADIENT CRITERION IN FLEPO =     5.296


          FOR POINT  28 FIRST  STRUCTURE
 DISTANCE A - B      1.629529
 HEAT               50.454760
 GRADIENT NORM       8.448478
 DIRECTION COSINE   -0.413307
geo_dat="C2H4+C4H6-cyclohexene Step 1_10p0_first.mop" geo_ref="C2H4+C4H6-cyclohexene Step 1_10p0_second.mop" saddle geo-ok bar=0.005
 Locate and refine the transition state for the C2H4 plus C4H6 => Cyclohexene Dies-Alder reaction
 (Geometry data for reactant and products are in other files.)
  C(HETATM    1  C   HET A   1)   0.00000000 +1    0.0000000 +1    0.0000000 +1
  C(HETATM    2  C   HET A   1)   1.33649911 +1    0.0000000 +1    0.0000000 +1     1     0     0
  C(HETATM    3  C   HET A   1)   1.45867160 +1  125.0848319 +1    0.0000000 +1     2     1     0
  C(HETATM    4  C   HET A   1)   1.33962027 +1  124.7348906 +1   -2.6245228 +1     3     2     1
  C(HETATM    5  C   HET A   1)   2.82010161 +1   90.2831932 +1   69.8923741 +1     4     3     2
  C(HETATM    6  C   HET A   1)   1.33133751 +1  107.4135695 +1  -52.8779040 +1     5     4     3
  H(HETATM    7 1HT1 HET A   1)   1.07838067 +1  124.1435819 +1    5.3638752 +1     1     2     3
  H(HETATM    8 2HT1 HET A   1)   1.07900769 +1  123.0612140 +1 -174.8028656 +1     1     2     3
  H(HETATM    9 1HT2 HET A   1)   1.07874589 +1  122.9399021 +1  174.9160760 +1     4     3     2
  H(HETATM   10 2HT2 HET A   1)   1.07626114 +1  124.0275027 +1   -4.9044312 +1     4     3     2
  H(HETATM   11 1HT  HET A   1)   1.09265913 +1  120.0320938 +1  177.9671231 +1     2     1     3
  H(HETATM   12 2HT  HET A   1)   1.09198537 +1  115.0134762 +1  175.5808603 +1     3     2     1
  H(HETATM   13 1HT3 HET A   1)   1.07844543 +1  123.5072326 +1   92.7097365 +1     6     5     4
  H(HETATM   14 2HT3 HET A   1)   1.07989984 +1  123.4757591 +1  -87.2741042 +1     6     5     4
  H(HETATM   15 1HT4 HET A   1)   1.07898041 +1   82.7602353 +1   69.7938424 +1     5     4     3
  H(HETATM   16 2HT4 HET A   1)   1.07526674 +1   78.4407214 +1 -174.6715295 +1     5     4     3
 
 TIME=     0.02
  REACTANTS AND PRODUCTS SWAPPED AROUND
 *+*+*+*+*+*+*+*+*+*+*+*+*+*+*+*+*+*+*+*+*+*+*+*+*+*+*+*+*+*+*+*+*+*+*+*+*+*+*+*+
            BAR SHORTENED BY       0.500 PERCENT
 GRADIENT CRITERION IN FLEPO =     5.448


          FOR POINT  29 SECOND STRUCTURE
 DISTANCE A - B      1.621381
 HEAT                8.301918
 GRADIENT NORM       7.775194
 DIRECTION COSINE   -0.191519
geo_dat="C2H4+C4H6-cyclohexene Step 1_10p0_first.mop" geo_ref="C2H4+C4H6-cyclohexene Step 1_10p0_second.mop" saddle geo-ok bar=0.005
 Locate and refine the transition state for the C2H4 plus C4H6 => Cyclohexene Dies-Alder reaction
 (Geometry data for reactant and products are in other files.)
  C(HETATM    1  C   HET A   1)   0.00000000 +1    0.0000000 +1    0.0000000 +1
  C(HETATM    2  C   HET A   1)   1.49477559 +1    0.0000000 +1    0.0000000 +1     1     0     0
  C(HETATM    3  C   HET A   1)   1.33824636 +1  117.5384030 +1    0.0000000 +1     2     1     0
  C(HETATM    4  C   HET A   1)   1.49517292 +1  117.7311570 +1   -0.1034169 +1     3     2     1
  C(HETATM    5  C   HET A   1)   1.55872883 +1  108.5810817 +1   50.9020962 +1     4     3     2
  C(HETATM    6  C   HET A   1)   1.54594480 +1  112.4188542 +1  -47.8479167 +1     5     4     3
  H(HETATM    7 1HT1 HET A   1)   1.11370800 +1  110.4494023 +1   68.0522274 +1     1     2     3
  H(HETATM    8 2HT1 HET A   1)   1.10335907 +1  111.5963689 +1 -175.8400618 +1     1     2     3
  H(HETATM    9 1HT2 HET A   1)   1.10596047 +1  111.7859507 +1  175.1679554 +1     4     3     2
  H(HETATM   10 2HT2 HET A   1)   1.11073515 +1  110.2163190 +1  -68.5001435 +1     4     3     2
  H(HETATM   11 1HT  HET A   1)   1.07751588 +1  118.4800999 +1  177.4126400 +1     2     1     3
  H(HETATM   12 2HT  HET A   1)   1.07952205 +1  124.2079780 +1  176.5583347 +1     3     2     1
  H(HETATM   13 1HT3 HET A   1)   1.10439483 +1  110.2399251 +1  121.4935125 +1     6     5     4
  H(HETATM   14 2HT3 HET A   1)   1.10458174 +1  110.5199991 +1 -122.6167499 +1     6     5     4
  H(HETATM   15 1HT4 HET A   1)   1.10597912 +1  109.0335808 +1   74.0546033 +1     5     4     3
  H(HETATM   16 2HT4 HET A   1)   1.10255456 +1  109.4287078 +1 -171.1747555 +1     5     4     3
 
 TIME=     0.02
  REACTANTS AND PRODUCTS SWAPPED AROUND
 *+*+*+*+*+*+*+*+*+*+*+*+*+*+*+*+*+*+*+*+*+*+*+*+*+*+*+*+*+*+*+*+*+*+*+*+*+*+*+*+
            BAR SHORTENED BY       0.500 PERCENT
 GRADIENT CRITERION IN FLEPO =     4.775


          FOR POINT  30 FIRST  STRUCTURE
 DISTANCE A - B      1.613274
 HEAT               50.339536
 GRADIENT NORM       7.719726
 DIRECTION COSINE   -0.193243
geo_dat="C2H4+C4H6-cyclohexene Step 1_10p0_first.mop" geo_ref="C2H4+C4H6-cyclohexene Step 1_10p0_second.mop" saddle geo-ok bar=0.005
 Locate and refine the transition state for the C2H4 plus C4H6 => Cyclohexene Dies-Alder reaction
 (Geometry data for reactant and products are in other files.)
  C(HETATM    1  C   HET A   1)   0.00000000 +1    0.0000000 +1    0.0000000 +1
  C(HETATM    2  C   HET A   1)   1.33775231 +1    0.0000000 +1    0.0000000 +1     1     0     0
  C(HETATM    3  C   HET A   1)   1.45894774 +1  124.9296297 +1    0.0000000 +1     2     1     0
  C(HETATM    4  C   HET A   1)   1.33755181 +1  124.8599092 +1   -2.5787270 +1     3     2     1
  C(HETATM    5  C   HET A   1)   2.81663569 +1   90.4456600 +1   69.7315367 +1     4     3     2
  C(HETATM    6  C   HET A   1)   1.33010272 +1  107.3507309 +1  -52.8131640 +1     5     4     3
  H(HETATM    7 1HT1 HET A   1)   1.07845233 +1  124.1727540 +1    5.6243932 +1     1     2     3
  H(HETATM    8 2HT1 HET A   1)   1.07840263 +1  122.9576731 +1 -174.7055354 +1     1     2     3
  H(HETATM    9 1HT2 HET A   1)   1.07882331 +1  123.0288457 +1  174.8974217 +1     4     3     2
  H(HETATM   10 2HT2 HET A   1)   1.07803361 +1  124.0501380 +1   -5.3246749 +1     4     3     2
  H(HETATM   11 1HT  HET A   1)   1.09432816 +1  120.1687948 +1  177.7265448 +1     2     1     3
  H(HETATM   12 2HT  HET A   1)   1.09368319 +1  114.8542008 +1  175.4865279 +1     3     2     1
  H(HETATM   13 1HT3 HET A   1)   1.07930123 +1  123.4297440 +1   92.7966208 +1     6     5     4
  H(HETATM   14 2HT3 HET A   1)   1.07908267 +1  123.5396304 +1  -87.4964796 +1     6     5     4
  H(HETATM   15 1HT4 HET A   1)   1.07272243 +1   81.9633298 +1   69.9821872 +1     5     4     3
  H(HETATM   16 2HT4 HET A   1)   1.07880592 +1   78.4621938 +1 -174.5714568 +1     5     4     3
 
 TIME=     0.02
  REACTANTS AND PRODUCTS SWAPPED AROUND
 *+*+*+*+*+*+*+*+*+*+*+*+*+*+*+*+*+*+*+*+*+*+*+*+*+*+*+*+*+*+*+*+*+*+*+*+*+*+*+*+
            BAR SHORTENED BY       0.500 PERCENT
 GRADIENT CRITERION IN FLEPO =     4.720


          FOR POINT  31 SECOND STRUCTURE
 DISTANCE A - B      1.605208
 HEAT                8.175406
 GRADIENT NORM       9.782032
 DIRECTION COSINE   -0.354635
geo_dat="C2H4+C4H6-cyclohexene Step 1_10p0_first.mop" geo_ref="C2H4+C4H6-cyclohexene Step 1_10p0_second.mop" saddle geo-ok bar=0.005
 Locate and refine the transition state for the C2H4 plus C4H6 => Cyclohexene Dies-Alder reaction
 (Geometry data for reactant and products are in other files.)
  C(HETATM    1  C   HET A   1)   0.00000000 +1    0.0000000 +1    0.0000000 +1
  C(HETATM    2  C   HET A   1)   1.49237770 +1    0.0000000 +1    0.0000000 +1     1     0     0
  C(HETATM    3  C   HET A   1)   1.34065527 +1  117.5447155 +1    0.0000000 +1     2     1     0
  C(HETATM    4  C   HET A   1)   1.49662110 +1  117.4724779 +1   -0.2028587 +1     3     2     1
  C(HETATM    5  C   HET A   1)   1.55495009 +1  108.5200802 +1   51.5562412 +1     4     3     2
  C(HETATM    6  C   HET A   1)   1.54728476 +1  112.1842911 +1  -48.4686162 +1     5     4     3
  H(HETATM    7 1HT1 HET A   1)   1.11415855 +1  110.4637129 +1   67.3878490 +1     1     2     3
  H(HETATM    8 2HT1 HET A   1)   1.10261051 +1  112.0038971 +1 -175.7986908 +1     1     2     3
  H(HETATM    9 1HT2 HET A   1)   1.10444720 +1  111.5083373 +1  175.4858960 +1     4     3     2
  H(HETATM   10 2HT2 HET A   1)   1.10664294 +1  110.5569801 +1  -67.7183334 +1     4     3     2
  H(HETATM   11 1HT  HET A   1)   1.07964004 +1  118.5710843 +1  177.3092646 +1     2     1     3
[...]
     34         12  H    CARTESIAN X     2.449740     0.112509  KCAL/ANGSTROM
     35         12  H    CARTESIAN Y     0.024184    -0.065324  KCAL/ANGSTROM
     36         12  H    CARTESIAN Z    -0.163081     0.159794  KCAL/ANGSTROM
     37         13  H    CARTESIAN X    -0.943597    -0.028742  KCAL/ANGSTROM
     38         13  H    CARTESIAN Y    -0.948906     0.309551  KCAL/ANGSTROM
     39         13  H    CARTESIAN Z     1.687734    -0.211004  KCAL/ANGSTROM
     40         14  H    CARTESIAN X    -2.278183     0.248543  KCAL/ANGSTROM
     41         14  H    CARTESIAN Y    -0.171700    -0.212199  KCAL/ANGSTROM
     42         14  H    CARTESIAN Z     0.742981    -0.178053  KCAL/ANGSTROM
     43         15  H    CARTESIAN X     0.265857     0.122172  KCAL/ANGSTROM
     44         15  H    CARTESIAN Y     1.224715     0.080856  KCAL/ANGSTROM
     45         15  H    CARTESIAN Z     1.780686     0.018612  KCAL/ANGSTROM
     46         16  H    CARTESIAN X    -1.056884    -0.033416  KCAL/ANGSTROM
     47         16  H    CARTESIAN Y     2.007737     0.385708  KCAL/ANGSTROM
     48         16  H    CARTESIAN Z     0.821352    -0.419725  KCAL/ANGSTROM




   ATOM                 CHEMICAL                   X               Y               Z
  NUMBER                 SYMBOL               (ANGSTROMS)     (ANGSTROMS)     (ANGSTROMS)
 
     1       C(HETATM    1  C   HET A   1)   -0.66956082  *  -1.19422418  *  -0.67470563  *
     2       C(HETATM    2  C   HET A   1)    0.70117882  *  -1.17498830  *  -0.50903458  *
     3       C(HETATM    3  C   HET A   1)    1.39885535  *   0.03908814  *  -0.44912372  *
     4       C(HETATM    4  C   HET A   1)    0.72991351  *   1.24271475  *  -0.55799906  *
     5       C(HETATM    5  C   HET A   1)   -0.56984760  *   1.08521545  *   1.10806177  *
     6       C(HETATM    6  C   HET A   1)   -1.24577642  *  -0.12269012  *   1.05925982  *
     7       H(HETATM    7 1HT1 HET A   1)   -1.19059757  *  -0.44720297  *  -1.26091685  *
     8       H(HETATM    8 2HT1 HET A   1)   -1.22955775  *  -2.11342202  *  -0.56973448  *
     9       H(HETATM    9 1HT2 HET A   1)    1.23419535  *   2.17904807  *  -0.35988310  *
    10       H(HETATM   10 2HT2 HET A   1)   -0.15032993  *   1.35866673  *  -1.17746569  *
    11       H(HETATM   11 1HT  HET A   1)    1.23396948  *  -2.09501415  *  -0.27264875  *
    12       H(HETATM   12 2HT  HET A   1)    2.44974000  *   0.02418428  *  -0.16308053  *
    13       H(HETATM   13 1HT3 HET A   1)   -0.94359741  *  -0.94890615  *   1.68773417  *
    14       H(HETATM   14 2HT3 HET A   1)   -2.27818263  *  -0.17170018  *   0.74298075  *
    15       H(HETATM   15 1HT4 HET A   1)    0.26585709  *   1.22471489  *   1.78068626  *
    16       H(HETATM   16 2HT4 HET A   1)   -1.05688376  *   2.00773719  *   0.82135183  *

                             CARTESIAN COORDINATES

   1    C       -0.669560823    -1.194224176    -0.674705626
   2    C        0.701178815    -1.174988300    -0.509034584
   3    C        1.398855347     0.039088135    -0.449123720
   4    C        0.729913512     1.242714755    -0.557999059
   5    C       -0.569847602     1.085215450     1.108061771
   6    C       -1.245776424    -0.122690123     1.059259822
   7    H       -1.190597572    -0.447202974    -1.260916850
   8    H       -1.229557746    -2.113422024    -0.569734484
   9    H        1.234195347     2.179048074    -0.359883098
  10    H       -0.150329926     1.358666729    -1.177465687
  11    H        1.233969480    -2.095014145    -0.272648749
  12    H        2.449739996     0.024184275    -0.163080529
  13    H       -0.943597405    -0.948906153     1.687734168
  14    H       -2.278182631    -0.171700183     0.742980754
  15    H        0.265857089     1.224714886     1.780686265
  16    H       -1.056883763     2.007737190     0.821351835


           Empirical Formula: C6 H10  =    16 atoms



      MOLECULAR POINT GROUP   :   Cs  


                  EIGENVALUES  
 -29.29856 -25.90743 -25.10732 -21.70419 -20.19372 -17.60901 -17.05822 -16.17208
 -14.56197 -14.05928 -13.68057 -12.80720 -12.55943 -12.02713 -11.70938  -9.03248
  -8.99666   0.31884   0.66565   2.52577   5.00786   5.18865   5.60908   5.62315
   5.79614   5.91929   6.23643   6.27614   6.41266   6.46765   6.47632   6.58702
   6.62040   6.74004


              NET ATOMIC CHARGES AND DIPOLE CONTRIBUTIONS

  ATOM NO.                 TYPE                        CHARGE      No. of ELECS.   s-Pop       p-Pop       
    1          C(HETATM    1  C   HET A   1)          -0.254954        4.2550     1.10099     3.15396
    2          C(HETATM    2  C   HET A   1)          -0.169518        4.1695     1.07758     3.09193
    3          C(HETATM    3  C   HET A   1)          -0.170421        4.1704     1.07765     3.09277
    4          C(HETATM    4  C   HET A   1)          -0.254569        4.2546     1.10112     3.15345
    5          C(HETATM    5  C   HET A   1)          -0.280387        4.2804     1.09652     3.18387
    6          C(HETATM    6  C   HET A   1)          -0.279018        4.2790     1.09637     3.18265
    7          H(HETATM    7 1HT1 HET A   1)           0.146702        0.8533     0.85330
    8          H(HETATM    8 2HT1 HET A   1)           0.134529        0.8655     0.86547
    9          H(HETATM    9 1HT2 HET A   1)           0.134534        0.8655     0.86547
   10          H(HETATM   10 2HT2 HET A   1)           0.146613        0.8534     0.85339
   11          H(HETATM   11 1HT  HET A   1)           0.143162        0.8568     0.85684
   12          H(HETATM   12 2HT  HET A   1)           0.143261        0.8567     0.85674
   13          H(HETATM   13 1HT3 HET A   1)           0.142522        0.8575     0.85748
   14          H(HETATM   14 2HT3 HET A   1)           0.137486        0.8625     0.86251
   15          H(HETATM   15 1HT4 HET A   1)           0.142824        0.8572     0.85718
   16          H(HETATM   16 2HT4 HET A   1)           0.137235        0.8628     0.86277
 DIPOLE           X         Y         Z       TOTAL
 POINT-CHG.    -0.424     0.231     0.170     0.512
 HYBRID        -0.081     0.044     0.019     0.094
 SUM           -0.505     0.275     0.189     0.605


          ATOMIC ORBITAL ELECTRON POPULATIONS

                   Atom                  s        px        py        pz   
   C(HETATM    1  C   HET A   1)   1.10099   1.02945   1.11205   1.01247
   C(HETATM    2  C   HET A   1)   1.07758   1.00429   1.04957   1.03807
   C(HETATM    3  C   HET A   1)   1.07765   1.06663   0.98614   1.04000
   C(HETATM    4  C   HET A   1)   1.10112   1.07669   1.05678   1.01997
   C(HETATM    5  C   HET A   1)   1.09652   1.07626   1.05402   1.05358
   C(HETATM    6  C   HET A   1)   1.09637   1.08736   1.04621   1.04908
   H(HETATM    7 1HT1 HET A   1)   0.85330
   H(HETATM    8 2HT1 HET A   1)   0.86547
   H(HETATM    9 1HT2 HET A   1)   0.86547
   H(HETATM   10 2HT2 HET A   1)   0.85339
   H(HETATM   11 1HT  HET A   1)   0.85684
   H(HETATM   12 2HT  HET A   1)   0.85674
   H(HETATM   13 1HT3 HET A   1)   0.85748
   H(HETATM   14 2HT3 HET A   1)   0.86251
   H(HETATM   15 1HT4 HET A   1)   0.85718
   H(HETATM   16 2HT4 HET A   1)   0.86277
 BEST ESTIMATE GEOMETRY OF THE TRANSITION STATE


           C1=   0.505     C2=   0.495

 -------------------------------------------------------------------------------
geo_dat="C2H4+C4H6-cyclohexene Step 1_10p0_first.mop" geo_ref="C2H4+C4H6-cyclohexene Step 1_10p0_second.mop" saddle geo-ok bar=0.005
 Locate and refine the transition state for the C2H4 plus C4H6 => Cyclohexene Dies-Alder reaction
 (Geometry data for reactant and products are in other files.)


     GRADIENTS WERE INITIALLY ACCEPTABLY SMALL                
     SCF FIELD WAS ACHIEVED                                   


                              PM7 CALCULATION
                                                       MOPAC2012 (Version: 15.309W)
                                                       Thu Nov 05 10:00:28 2015
                                                       No. of days left = 365




          FINAL H.O.F PLUS STRESS =         60.24175 KCAL/MOL =     252.05149 KJ/MOL
          FINAL STRESS            =          0.00035 KCAL/MOL =       0.00146 KJ/MOL
          FINAL HEAT OF FORMATION =         60.24140 KCAL/MOL =     252.05004 KJ/MOL
          TOTAL DISTORTION        =          0.03218 Angstroms
          AVERAGE DISTORTION      =          0.00201 Angstroms per atom (all atoms)
          RMS DISTORTION          =          0.00269 Angstroms per atom (all atoms)


          TOTAL ENERGY            =       -869.24527 EV
          ELECTRONIC ENERGY       =      -3878.59668 EV  POINT GROUP:     Cs  
          CORE-CORE REPULSION     =       3009.35141 EV
          COSMO AREA              =        134.07 SQUARE ANGSTROMS
          COSMO VOLUME            =        128.37 CUBIC ANGSTROMS

          GRADIENT NORM           =          2.70285
          IONIZATION POTENTIAL    =          9.014751 EV
          HOMO LUMO ENERGIES (EV) =         -9.015  0.301
          NO. OF FILLED LEVELS    =         17
          MOLECULAR WEIGHT        =         82.145

          MOLECULAR DIMENSIONS (Angstroms)

            Atom       Atom       Distance
            H     9    H     8     4.95415
            H    16    H    11     4.14916
            H    10    H    13     2.98743


          SCF CALCULATIONS        =          1
 
          WALL-CLOCK TIME         =          7.785 SECONDS
          COMPUTATION TIME        =         30.935 SECONDS



       FINAL  POINT  AND  DERIVATIVES

   PARAMETER     ATOM    TYPE            VALUE       GRADIENT
      1          1  C    CARTESIAN X    -0.667946     0.651989  KCAL/ANGSTROM
      2          1  C    CARTESIAN Y    -1.196499    -0.054107  KCAL/ANGSTROM
      3          1  C    CARTESIAN Z    -0.678677    -0.815827  KCAL/ANGSTROM
      4          2  C    CARTESIAN X     0.700329    -0.329525  KCAL/ANGSTROM
      5          2  C    CARTESIAN Y    -1.176032    -0.706651  KCAL/ANGSTROM
      6          2  C    CARTESIAN Z    -0.509352     0.368171  KCAL/ANGSTROM
      7          3  C    CARTESIAN X     1.399051     0.381374  KCAL/ANGSTROM
      8          3  C    CARTESIAN Y     0.040270     0.701443  KCAL/ANGSTROM
      9          3  C    CARTESIAN Z    -0.449578    -0.196174  KCAL/ANGSTROM
     10          4  C    CARTESIAN X     0.733062     0.759046  KCAL/ANGSTROM
     11          4  C    CARTESIAN Y     1.242195    -0.673794  KCAL/ANGSTROM
     12          4  C    CARTESIAN Z    -0.561376    -0.565564  KCAL/ANGSTROM
     13          5  C    CARTESIAN X    -0.573499    -0.859112  KCAL/ANGSTROM
     14          5  C    CARTESIAN Y     1.084740    -0.237694  KCAL/ANGSTROM
     15          5  C    CARTESIAN Z     1.111796     0.715888  KCAL/ANGSTROM
     16          6  C    CARTESIAN X    -1.247572    -0.213834  KCAL/ANGSTROM
     17          6  C    CARTESIAN Y    -0.120652     0.271526  KCAL/ANGSTROM
     18          6  C    CARTESIAN Z     1.063514     0.929463  KCAL/ANGSTROM
     19          7  H    CARTESIAN X    -1.190881    -0.249414  KCAL/ANGSTROM
     20          7  H    CARTESIAN Y    -0.446945     0.157204  KCAL/ANGSTROM
     21          7  H    CARTESIAN Z    -1.260245     0.113848  KCAL/ANGSTROM
     22          8  H    CARTESIAN X    -1.229688    -0.084769  KCAL/ANGSTROM
     23          8  H    CARTESIAN Y    -2.114083    -0.479744  KCAL/ANGSTROM
     24          8  H    CARTESIAN Z    -0.570623    -0.123018  KCAL/ANGSTROM
     25          9  H    CARTESIAN X     1.234692     0.292709  KCAL/ANGSTROM
     26          9  H    CARTESIAN Y     2.178533     0.103887  KCAL/ANGSTROM
     27          9  H    CARTESIAN Z    -0.361072    -0.045506  KCAL/ANGSTROM
     28         10  H    CARTESIAN X    -0.150901    -0.291821  KCAL/ANGSTROM
     29         10  H    CARTESIAN Y     1.358432     0.058462  KCAL/ANGSTROM
     30         10  H    CARTESIAN Z    -1.176626     0.277339  KCAL/ANGSTROM
     31         11  H    CARTESIAN X     1.234110     0.025779  KCAL/ANGSTROM
     32         11  H    CARTESIAN Y    -2.095146     0.067261  KCAL/ANGSTROM
     33         11  H    CARTESIAN Z    -0.272542    -0.331740  KCAL/ANGSTROM
     34         12  H    CARTESIAN X     2.449660     0.045217  KCAL/ANGSTROM
     35         12  H    CARTESIAN Y     0.023743     0.022319  KCAL/ANGSTROM
     36         12  H    CARTESIAN Z    -0.162935    -0.082985  KCAL/ANGSTROM
     37         13  H    CARTESIAN X    -0.942903     0.010186  KCAL/ANGSTROM
     38         13  H    CARTESIAN Y    -0.949258     0.519063  KCAL/ANGSTROM
     39         13  H    CARTESIAN Z     1.687369    -0.006872  KCAL/ANGSTROM
     40         14  H    CARTESIAN X    -2.278237     0.114522  KCAL/ANGSTROM
     41         14  H    CARTESIAN Y    -0.172104     0.022051  KCAL/ANGSTROM
     42         14  H    CARTESIAN Z     0.741569    -0.128768  KCAL/ANGSTROM
     43         15  H    CARTESIAN X     0.265550    -0.235715  KCAL/ANGSTROM
     44         15  H    CARTESIAN Y     1.224779     0.054960  KCAL/ANGSTROM
     45         15  H    CARTESIAN Z     1.779458     0.028584  KCAL/ANGSTROM
     46         16  H    CARTESIAN X    -1.056580    -0.009726  KCAL/ANGSTROM
     47         16  H    CARTESIAN Y     2.007522     0.196604  KCAL/ANGSTROM
     48         16  H    CARTESIAN Z     0.821033    -0.113780  KCAL/ANGSTROM




   ATOM                 CHEMICAL                   X               Y               Z
  NUMBER                 SYMBOL               (ANGSTROMS)     (ANGSTROMS)     (ANGSTROMS)
 
     1       C(HETATM    1  C   HET A   1)   -0.66794633  *  -1.19649946  *  -0.67867655  *
     2       C(HETATM    2  C   HET A   1)    0.70032904  *  -1.17603187  *  -0.50935192  *
     3       C(HETATM    3  C   HET A   1)    1.39905135  *   0.04026986  *  -0.44957810  *
     4       C(HETATM    4  C   HET A   1)    0.73306162  *   1.24219475  *  -0.56137577  *
     5       C(HETATM    5  C   HET A   1)   -0.57349910  *   1.08474005  *   1.11179591  *
     6       C(HETATM    6  C   HET A   1)   -1.24757234  *  -0.12065194  *   1.06351377  *
     7       H(HETATM    7 1HT1 HET A   1)   -1.19088095  *  -0.44694458  *  -1.26024451  *
     8       H(HETATM    8 2HT1 HET A   1)   -1.22968791  *  -2.11408334  *  -0.57062338  *
     9       H(HETATM    9 1HT2 HET A   1)    1.23469202  *   2.17853338  *  -0.36107237  *
    10       H(HETATM   10 2HT2 HET A   1)   -0.15090141  *   1.35843204  *  -1.17662634  *
    11       H(HETATM   11 1HT  HET A   1)    1.23411002  *  -2.09514552  *  -0.27254152  *
    12       H(HETATM   12 2HT  HET A   1)    2.44966011  *   0.02374254  *  -0.16293478  *
    13       H(HETATM   13 1HT3 HET A   1)   -0.94290281  *  -0.94925794  *   1.68736887  *
    14       H(HETATM   14 2HT3 HET A   1)   -2.27823723  *  -0.17210355  *   0.74156889  *
    15       H(HETATM   15 1HT4 HET A   1)    0.26554977  *   1.22477928  *   1.77945809  *
    16       H(HETATM   16 2HT4 HET A   1)   -1.05657956  *   2.00752233  *   0.82103259  *

                             CARTESIAN COORDINATES

   1    C       -0.667946329    -1.196499455    -0.678676546
   2    C        0.700329036    -1.176031872    -0.509351916
   3    C        1.399051352     0.040269859    -0.449578099
   4    C        0.733061616     1.242194755    -0.561375770
   5    C       -0.573499102     1.084740048     1.111795906
   6    C       -1.247572337    -0.120651936     1.063513769
   7    H       -1.190880945    -0.446944584    -1.260244514
   8    H       -1.229687914    -2.114083343    -0.570623381
   9    H        1.234692019     2.178533377    -0.361072371
  10    H       -0.150901414     1.358432040    -1.176626341
  11    H        1.234110024    -2.095145521    -0.272541522
  12    H        2.449660106     0.023742536    -0.162934776
  13    H       -0.942902813    -0.949257936     1.687368868
  14    H       -2.278237232    -0.172103554     0.741568885
  15    H        0.265549766     1.224779280     1.779458092
  16    H       -1.056579562     2.007522326     0.821032592


           Empirical Formula: C6 H10  =    16 atoms



      MOLECULAR POINT GROUP   :   Cs  


                  EIGENVALUES  
 -29.29566 -25.92737 -25.12105 -21.70216 -20.19416 -17.61912 -17.06199 -16.17366
 -14.57880 -14.06742 -13.69460 -12.79617 -12.55649 -12.02123 -11.71163  -9.02864
  -9.01475   0.30124   0.67677   2.51014   4.99529   5.19604   5.61136   5.64246
   5.79915   5.92230   6.23591   6.26978   6.41104   6.47412   6.47742   6.59469
   6.62460   6.73843


              NET ATOMIC CHARGES AND DIPOLE CONTRIBUTIONS

  ATOM NO.                 TYPE                        CHARGE      No. of ELECS.   s-Pop       p-Pop       
    1          C(HETATM    1  C   HET A   1)          -0.255402        4.2554     1.10119     3.15421
    2          C(HETATM    2  C   HET A   1)          -0.168866        4.1689     1.07767     3.09120
    3          C(HETATM    3  C   HET A   1)          -0.169623        4.1696     1.07764     3.09198
    4          C(HETATM    4  C   HET A   1)          -0.255144        4.2551     1.10117     3.15398
    5          C(HETATM    5  C   HET A   1)          -0.281128        4.2811     1.09639     3.18474
    6          C(HETATM    6  C   HET A   1)          -0.279607        4.2796     1.09639     3.18322
    7          H(HETATM    7 1HT1 HET A   1)           0.146810        0.8532     0.85319
    8          H(HETATM    8 2HT1 HET A   1)           0.134681        0.8653     0.86532
    9          H(HETATM    9 1HT2 HET A   1)           0.134612        0.8654     0.86539
   10          H(HETATM   10 2HT2 HET A   1)           0.146802        0.8532     0.85320
   11          H(HETATM   11 1HT  HET A   1)           0.143131        0.8569     0.85687
   12          H(HETATM   12 2HT  HET A   1)           0.143247        0.8568     0.85675
   13          H(HETATM   13 1HT3 HET A   1)           0.142651        0.8573     0.85735
   14          H(HETATM   14 2HT3 HET A   1)           0.137637        0.8624     0.86236
   15          H(HETATM   15 1HT4 HET A   1)           0.142912        0.8571     0.85709
   16          H(HETATM   16 2HT4 HET A   1)           0.137287        0.8627     0.86271
 DIPOLE           X         Y         Z       TOTAL
 POINT-CHG.    -0.413     0.224     0.159     0.496
 HYBRID        -0.080     0.045     0.018     0.093
 SUM           -0.493     0.268     0.177     0.589


          ATOMIC ORBITAL ELECTRON POPULATIONS

                   Atom                  s        px        py        pz   
   C(HETATM    1  C   HET A   1)   1.10119   1.02979   1.11292   1.01150
   C(HETATM    2  C   HET A   1)   1.07767   1.00447   1.04907   1.03766
   C(HETATM    3  C   HET A   1)   1.07764   1.06642   0.98605   1.03952
   C(HETATM    4  C   HET A   1)   1.10117   1.07788   1.05700   1.01910
   C(HETATM    5  C   HET A   1)   1.09639   1.07706   1.05418   1.05350
   C(HETATM    6  C   HET A   1)   1.09639   1.08716   1.04718   1.04888
   H(HETATM    7 1HT1 HET A   1)   0.85319
   H(HETATM    8 2HT1 HET A   1)   0.86532
   H(HETATM    9 1HT2 HET A   1)   0.86539
   H(HETATM   10 2HT2 HET A   1)   0.85320
   H(HETATM   11 1HT  HET A   1)   0.85687
   H(HETATM   12 2HT  HET A   1)   0.85675
   H(HETATM   13 1HT3 HET A   1)   0.85735
   H(HETATM   14 2HT3 HET A   1)   0.86236
   H(HETATM   15 1HT4 HET A   1)   0.85709
   H(HETATM   16 2HT4 HET A   1)   0.86271

 **********************
 *                    *
 * JOB ENDED NORMALLY *
 *                    *
 **********************



 TOTAL JOB TIME:             7.79 SECONDS

 == MOPAC DONE ==
