 *******************************************************************************
 ** Site#: 37037        For non-commercial use only           Version 21.158W **
 *******************************************************************************
 ** Cite this program as: MOPAC2016, Version: 21.158W, James J. P. Stewart,   **
 ** Stewart Computational Chemistry, web: HTTP://OpenMOPAC.net. Days left: 361**
 *******************************************************************************
 **                                                                           **
 **                                MOPAC2016                                  **
 **                                                                           **
 *******************************************************************************

                              PM7 CALCULATION RESULTS

 *******************************************************************************
 *  CALCULATION DONE:                                Fri Jun 11 08:40:06 2021  *
 *  GEO_DAT    - DATA SET GEOMETRY IS IN FILE "C2H4+C4H6-cyclohexene SADDLE.arc"
 *  TS         - USE EF ROUTINE FOR TS SEARCH
 *  T=         - A TIME OF 172800.0 SECONDS REQUESTED
 *  DUMP=N     - RESTART FILE WRITTEN EVERY 7200.0 SECONDS REQUESTED
 *  HTML       - WRITE HTML SCRIPT TO READ PDB FILE USING JSMOL
 *******************************************************************************
 geo_dat="C2H4+C4H6-cyclohexene SADDLE.arc" ts html
 Given a rough transition state, refine it using TS

   ATOM                 CHEMICAL                   X               Y               Z
  NUMBER                 SYMBOL               (ANGSTROMS)     (ANGSTROMS)     (ANGSTROMS)
 
     1       C(HETATM    1  C1  HET A   1)   -0.78543591  *  -1.17485571  *  -0.57864608  *
     2       C(HETATM    2  C2  HET A   1)    0.60795151  *  -1.17758532  *  -0.57474523  *
     3       C(HETATM    3  C3  HET A   1)    1.31573737  *   0.01911547  *  -0.57665002  *
     4       C(HETATM    4  C4  HET A   1)    0.64167475  *   1.23954723  *  -0.58348418  *
     5       C(HETATM    5  C5  HET A   1)   -0.41990574  *   1.08132388  *   1.19222458  *
     6       C(HETATM    6  C6  HET A   1)   -1.12223823  *  -0.13437187  *   1.20529592  *
     7       H(HETATM    7 1H1  HET A   1)   -1.35221268  *  -0.41559373  *  -1.10063005  *
     8       H(HETATM    8 2H1  HET A   1)   -1.33098623  *  -2.10411138  *  -0.47401415  *
     9       H(HETATM    9 1H4  HET A   1)    1.19233726  *   2.16682906  *  -0.49033107  *
    10       H(HETATM   10 2H4  HET A   1)   -0.29602741  *   1.36590067  *  -1.10850882  *
    11       H(HETATM   11  H2  HET A   1)    1.14636802  *  -2.10990364  *  -0.41499456  *
    12       H(HETATM   12  H3  HET A   1)    2.39276560  *  -0.00394275  *  -0.41837953  *
    13       H(HETATM   13 1H6  HET A   1)   -0.75942675  *  -0.96394169  *   1.79588239  *
    14       H(HETATM   14 2H6  HET A   1)   -2.18925762  *  -0.15362756  *   1.03571086  *
    15       H(HETATM   15 1H5  HET A   1)    0.47833973  *   1.19413597  *   1.78590309  *
    16       H(HETATM   16 2H5  HET A   1)   -0.94041722  *   2.01278401  *   1.01247574  *
 

 General Reference for PM7:
 "Optimization of Parameters for Semiempirical Methods VI: More Modifications to the 
 NDDO Approximations and Re-optimization of Parameters", J. J. P. Stewart, J. Mol. Mod., 1:32, 19 (2013)
 https://link.springer.com/article/10.1007/s00894-012-1667-x

           Empirical Formula: C6 H10  =    16 atoms



      MOLECULAR POINT GROUP   :   C1  


      RHF CALCULATION, NO. OF DOUBLY OCCUPIED LEVELS = 17


          Transition state refinement using EF

          HESSIAN CALCULATED NUMERICALLY

 CYCLE:     1 TIME:   0.182 TIME LEFT:  2.00D  GRAD.:    36.710 HEAT:  59.60425
 CYCLE:     2 TIME:   0.002 TIME LEFT:  2.00D  GRAD.:     6.110 HEAT:  60.24771
 CYCLE:     3 TIME:   0.012 TIME LEFT:  2.00D  GRAD.:     0.757 HEAT:  60.22806

     GRADIENT =  0.75700 IS LESS THAN CUTOFF =  1.00000



 -------------------------------------------------------------------------------
 ts html
 Given a rough transition state, refine it using TS



     GEOMETRY OPTIMISED USING EIGENVECTOR FOLLOWING (TS).     
     SCF FIELD WAS ACHIEVED                                   


                              PM7 CALCULATION
                                                       MOPAC2016 (Version: 21.158W)
                                                       Fri Jun 11 08:40:06 2021
                                                       No. of days remaining = 361




          FINAL HEAT OF FORMATION =         60.22806 KCAL/MOL =     251.99420 KJ/MOL


          TOTAL ENERGY            =       -869.24597 EV
          ELECTRONIC ENERGY       =      -3879.76022 EV  POINT GROUP:     Cs  
          CORE-CORE REPULSION     =       3010.51425 EV
          COSMO AREA              =        133.66 SQUARE ANGSTROMS
          COSMO VOLUME            =        128.03 CUBIC ANGSTROMS

          GRADIENT NORM           =          0.75700 = 0.18925 PER ATOM
          IONIZATION POTENTIAL    =          9.014891 EV
          HOMO LUMO ENERGIES (EV) =         -9.015  0.303
          NO. OF FILLED LEVELS    =         17
          MOLECULAR WEIGHT        =         82.1450

          MOLECULAR DIMENSIONS (Angstroms)

            Atom       Atom       Distance
            H     9    H     8     4.95231
            H    16    H    11     4.13904
            H    10    H    13     2.98939


          SCF CALCULATIONS        =         52
 
          WALL-CLOCK TIME         =          0.236 SECONDS
          COMPUTATION TIME        =          0.812 SECONDS




   ATOM                 CHEMICAL                   X               Y               Z
  NUMBER                 SYMBOL               (ANGSTROMS)     (ANGSTROMS)     (ANGSTROMS)
 
     1       C(HETATM    1  C1  HET A   1)   -0.77683178  *  -1.18047305  *  -0.58945826  *
     2       C(HETATM    2  C2  HET A   1)    0.60150747  *  -1.17836696  *  -0.57895242  *
     3       C(HETATM    3  C3  HET A   1)    1.31778131  *   0.02933227  *  -0.58606641  *
     4       C(HETATM    4  C4  HET A   1)    0.66003659  *   1.24034697  *  -0.60779920  *
     5       C(HETATM    5  C5  HET A   1)   -0.43595160  *   1.06840566  *   1.20921753  *
     6       C(HETATM    6  C6  HET A   1)   -1.12993702  *  -0.12578496  *   1.22408329  *
     7       H(HETATM    7 1H1  HET A   1)   -1.35128543  *  -0.41636298  *  -1.09845850  *
     8       H(HETATM    8 2H1  HET A   1)   -1.33607714  *  -2.09013022  *  -0.42386375  *
     9       H(HETATM    9 1H4  HET A   1)    1.19183084  *   2.16829409  *  -0.45309833  *
    10       H(HETATM   10 2H4  HET A   1)   -0.28657320  *   1.37529279  *  -1.11626027  *
    11       H(HETATM   11  H2  HET A   1)    1.14751859  *  -2.10518953  *  -0.40797398  *
    12       H(HETATM   12  H3  HET A   1)    2.39361900  *  -0.00336697  *  -0.41811774  *
    13       H(HETATM   13 1H6  HET A   1)   -0.76676395  *  -0.97126160  *   1.79286856  *
    14       H(HETATM   14 2H6  HET A   1)   -2.19273364  *  -0.15737653  *   1.02743141  *
    15       H(HETATM   15 1H5  HET A   1)    0.48195041  *   1.18471662  *   1.76996986  *
    16       H(HETATM   16 2H5  HET A   1)   -0.93593354  *   2.00292512  *   0.99539172  *

                             CARTESIAN COORDINATES

   1    C       -0.776831779    -1.180473055    -0.589458258
   2    C        0.601507465    -1.178366955    -0.578952422
   3    C        1.317781308     0.029332268    -0.586066410
   4    C        0.660036595     1.240346974    -0.607799204
   5    C       -0.435951597     1.068405663     1.209217528
   6    C       -1.129937020    -0.125784962     1.224083289
   7    H       -1.351285434    -0.416362977    -1.098458502
   8    H       -1.336077140    -2.090130221    -0.423863745
   9    H        1.191830843     2.168294092    -0.453098329
  10    H       -0.286573201     1.375292787    -1.116260269
  11    H        1.147518587    -2.105189525    -0.407973976
  12    H        2.393619004    -0.003366975    -0.418117739
  13    H       -0.766763948    -0.971261597     1.792868561
  14    H       -2.192733644    -0.157376534     1.027431407
  15    H        0.481950407     1.184716622     1.769969856
  16    H       -0.935933536     2.002925123     0.995391721


           Empirical Formula: C6 H10  =    16 atoms



      MOLECULAR POINT GROUP   :   Cs  


                  EIGENVALUES  
 -29.30837 -25.91768 -25.13142 -21.70811 -20.18398 -17.62592 -17.06729 -16.16822
 -14.57999 -14.06835 -13.70245 -12.79987 -12.54979 -12.02260 -11.70936  -9.03265
  -9.01489   0.30281   0.68310   2.50807   4.99404   5.19484   5.60982   5.64942
   5.80203   5.92069   6.23676   6.27022   6.41114   6.47511   6.47819   6.59226
   6.62462   6.73857


              NET ATOMIC CHARGES AND DIPOLE CONTRIBUTIONS

  ATOM NO.                 TYPE                        CHARGE      No. of ELECS.   s-Pop       p-Pop       
    1          C(HETATM    1  C1  HET A   1)          -0.254503        4.2545     1.10118     3.15332
    2          C(HETATM    2  C2  HET A   1)          -0.169391        4.1694     1.07765     3.09175
    3          C(HETATM    3  C3  HET A   1)          -0.169513        4.1695     1.07760     3.09191
    4          C(HETATM    4  C4  HET A   1)          -0.254826        4.2548     1.10110     3.15372
    5          C(HETATM    5  C5  HET A   1)          -0.281210        4.2812     1.09634     3.18487
    6          C(HETATM    6  C6  HET A   1)          -0.280267        4.2803     1.09642     3.18385
    7          H(HETATM    7 1H1  HET A   1)           0.146769        0.8532     0.85323
    8          H(HETATM    8 2H1  HET A   1)           0.134695        0.8653     0.86531
    9          H(HETATM    9 1H4  HET A   1)           0.134662        0.8653     0.86534
   10          H(HETATM   10 2H4  HET A   1)           0.146720        0.8533     0.85328
   11          H(HETATM   11  H2  HET A   1)           0.143209        0.8568     0.85679
   12          H(HETATM   12  H3  HET A   1)           0.143212        0.8568     0.85679
   13          H(HETATM   13 1H6  HET A   1)           0.142692        0.8573     0.85731
   14          H(HETATM   14 2H6  HET A   1)           0.137588        0.8624     0.86241
   15          H(HETATM   15 1H5  HET A   1)           0.142837        0.8572     0.85716
   16          H(HETATM   16 2H5  HET A   1)           0.137327        0.8627     0.86267

          NET CHARGE ON RESIDUES

      Residue         Charge  Anion or
                              Cation?
      HET A   1       +0.000
 


 DIPOLE           X         Y         Z       TOTAL
 POINT-CHG.    -0.384     0.226     0.214     0.494
 HYBRID        -0.077     0.047     0.029     0.095
 SUM           -0.461     0.273     0.243     0.589


          ATOMIC ORBITAL ELECTRON POPULATIONS

                   Atom                  s        px        py        pz   
   C(HETATM    1  C1  HET A   1)   1.10118   1.03524   1.11421   1.00387
   C(HETATM    2  C2  HET A   1)   1.07765   1.00704   1.05023   1.03448
   C(HETATM    3  C3  HET A   1)   1.07760   1.07110   0.98616   1.03465
   C(HETATM    4  C4  HET A   1)   1.10110   1.09405   1.05575   1.00392
   C(HETATM    5  C5  HET A   1)   1.09634   1.08991   1.05576   1.03920
   C(HETATM    6  C6  HET A   1)   1.09642   1.09601   1.04964   1.03820
   H(HETATM    7 1H1  HET A   1)   0.85323
   H(HETATM    8 2H1  HET A   1)   0.86531
   H(HETATM    9 1H4  HET A   1)   0.86534
   H(HETATM   10 2H4  HET A   1)   0.85328
   H(HETATM   11  H2  HET A   1)   0.85679
   H(HETATM   12  H3  HET A   1)   0.85679
   H(HETATM   13 1H6  HET A   1)   0.85731
   H(HETATM   14 2H6  HET A   1)   0.86241
   H(HETATM   15 1H5  HET A   1)   0.85716
   H(HETATM   16 2H5  HET A   1)   0.86267
 *******************************************************************************
 ** Site#: 37037        For non-commercial use only           Version 21.158W **
 *******************************************************************************
 ** Cite this program as: MOPAC2016, Version: 21.158W, James J. P. Stewart,   **
 ** Stewart Computational Chemistry, web: HTTP://OpenMOPAC.net. Days left: 361**
 *******************************************************************************
 **                                                                           **
 **                                MOPAC2016                                  **
 **                                                                           **
 *******************************************************************************

                              PM7 CALCULATION RESULTS

 *******************************************************************************
 *  CALCULATION DONE:                                Fri Jun 11 08:40:06 2021  *
 *  OLDGEO     - PREVIOUS GEOMETRY TO BE USED
 *  FORCE      - FORCE CALCULATION SPECIFIED
 *  T=         - A TIME OF 172800.0 SECONDS REQUESTED
 *  DUMP=N     - RESTART FILE WRITTEN EVERY 7200.0 SECONDS REQUESTED
 *******************************************************************************
oldgeo force
 Given a rough transition state, refine it using TS

   ATOM                 CHEMICAL                   X               Y               Z
  NUMBER                 SYMBOL               (ANGSTROMS)     (ANGSTROMS)     (ANGSTROMS)
 
     1       C(HETATM    1  C1  HET A   1)   -0.77683178  *  -1.18047305  *  -0.58945826  *
     2       C(HETATM    2  C2  HET A   1)    0.60150747  *  -1.17836696  *  -0.57895242  *
     3       C(HETATM    3  C3  HET A   1)    1.31778131  *   0.02933227  *  -0.58606641  *
     4       C(HETATM    4  C4  HET A   1)    0.66003659  *   1.24034697  *  -0.60779920  *
     5       C(HETATM    5  C5  HET A   1)   -0.43595160  *   1.06840566  *   1.20921753  *
     6       C(HETATM    6  C6  HET A   1)   -1.12993702  *  -0.12578496  *   1.22408329  *
     7       H(HETATM    7 1H1  HET A   1)   -1.35128543  *  -0.41636298  *  -1.09845850  *
     8       H(HETATM    8 2H1  HET A   1)   -1.33607714  *  -2.09013022  *  -0.42386375  *
     9       H(HETATM    9 1H4  HET A   1)    1.19183084  *   2.16829409  *  -0.45309833  *
    10       H(HETATM   10 2H4  HET A   1)   -0.28657320  *   1.37529279  *  -1.11626027  *
    11       H(HETATM   11  H2  HET A   1)    1.14751859  *  -2.10518953  *  -0.40797398  *
    12       H(HETATM   12  H3  HET A   1)    2.39361900  *  -0.00336697  *  -0.41811774  *
    13       H(HETATM   13 1H6  HET A   1)   -0.76676395  *  -0.97126160  *   1.79286856  *
    14       H(HETATM   14 2H6  HET A   1)   -2.19273364  *  -0.15737653  *   1.02743141  *
    15       H(HETATM   15 1H5  HET A   1)    0.48195041  *   1.18471662  *   1.76996986  *
    16       H(HETATM   16 2H5  HET A   1)   -0.93593354  *   2.00292512  *   0.99539172  *
 

 General Reference for PM7:
 "Optimization of Parameters for Semiempirical Methods VI: More Modifications to the 
 NDDO Approximations and Re-optimization of Parameters", J. J. P. Stewart, J. Mol. Mod., 1:32, 19 (2013)
 https://link.springer.com/article/10.1007/s00894-012-1667-x

           Empirical Formula: C6 H10  =    16 atoms



      MOLECULAR POINT GROUP   :   Cs  


      RHF CALCULATION, NO. OF DOUBLY OCCUPIED LEVELS = 17



          HEAT OF FORMATION =      60.228059 KCALS/MOLE


          CARTESIAN COORDINATE DERIVATIVES

   NUMBER  ATOM         X            Y            Z

     1       C     -0.123657     0.176163    -0.052777
     2       C      0.048396     0.082003    -0.194930
     3       C     -0.220360    -0.239526    -0.015374
     4       C     -0.031364    -0.161879    -0.047356
     5       C     -0.298290    -0.187637    -0.203412
     6       C      0.189447     0.026932    -0.013706
     7       H      0.128549     0.017822     0.029052
     8       H      0.032508    -0.047555     0.082571
     9       H      0.062906     0.012900     0.047163
    10       H      0.067233     0.054923     0.013865
    11       H      0.078655     0.022859     0.011156
    12       H      0.066124     0.030337     0.030209
    13       H      0.044057     0.013482     0.128225
    14       H     -0.071054     0.021389    -0.005051
    15       H      0.088630     0.097226     0.099741
    16       H     -0.061783     0.080556     0.090621
 


          GRADIENT NORM =   0.74763

          MOLECULAR WEIGHT =   82.14



          ROTATIONAL CONSTANTS IN CM(-1)

          A =    0.14662506   B =    0.12849021   C =    0.08195992



           PRINCIPAL MOMENTS OF INERTIA IN UNITS OF 10**(-40)*GRAM-CM**2

          A =      190.9140   B =      217.8592   C =      341.5423


          ORIENTATION OF MOLECULE IN FORCE CALCULATION

    NO.       ATOM         X         Y         Z

     1          C      -0.7976   -1.1635   -0.6264
     2          C       0.5808   -1.1635   -0.6264
     3          C       1.2988    0.0432   -0.6264
     4          C       0.6428    1.2553   -0.6305
     5          C      -0.4396    1.0660    1.1929
     6          C      -1.1353   -0.1273    1.2007
     7          H      -1.3748   -0.3933   -1.1230
     8          H      -1.3570   -2.0740   -0.4660
     9          H       1.1771    2.1808   -0.4702
    10          H      -0.3075    1.3969   -1.1303
    11          H       1.1266   -2.0928   -0.4693
    12          H       2.3758    0.0072   -0.4670
    13          H      -0.7691   -0.9791    1.7578
    14          H      -2.1996   -0.1553    1.0118
    15          H       0.4827    1.1751    1.7478
    16          H      -0.9398    2.0034    0.9927


    FIRST DERIVATIVES WILL BE USED IN THE CALCULATION OF SECOND DERIVATIVES

          ESTIMATED TIME TO COMPLETE CALCULATION =        0.75 SECONDS

    FOR POINT-GROUP Cs   THERE ARE   2 UNIQUE SYMMETRY FUNCTIONS.

 STEP:   1 TIME =     0.01 SECS, INTEGRAL =      0.01 TIME LEFT: 172799.99
 STEP:   2 TIME =     0.01 SECS, INTEGRAL =      0.02 TIME LEFT: 172799.98
 STEP:   3 TIME =     0.01 SECS, INTEGRAL =      0.03 TIME LEFT: 172799.97
 STEP:   4 TIME =     0.01 SECS, INTEGRAL =      0.04 TIME LEFT: 172799.96
 STEP:   5 TIME =     0.01 SECS, INTEGRAL =      0.05 TIME LEFT: 172799.95
 STEP:   6 TIME =     0.01 SECS, INTEGRAL =      0.06 TIME LEFT: 172799.94
 STEP:   7                       INTEGRAL =      0.06 TIME LEFT: 172799.94
 STEP:   8                       INTEGRAL =      0.06 TIME LEFT: 172799.94
 STEP:   9                       INTEGRAL =      0.06 TIME LEFT: 172799.94
 STEP:  10                       INTEGRAL =      0.06 TIME LEFT: 172799.94
 STEP:  11                       INTEGRAL =      0.06 TIME LEFT: 172799.94
 STEP:  12                       INTEGRAL =      0.06 TIME LEFT: 172799.94
 STEP:  13 TIME =     0.00 SECS, INTEGRAL =      0.06 TIME LEFT: 172799.94
 STEP:  14 TIME =     0.00 SECS, INTEGRAL =      0.06 TIME LEFT: 172799.94
 STEP:  15 TIME =     0.01 SECS, INTEGRAL =      0.07 TIME LEFT: 172799.93
 STEP:  16                       INTEGRAL =      0.07 TIME LEFT: 172799.93
 STEP:  17                       INTEGRAL =      0.07 TIME LEFT: 172799.93
 STEP:  18                       INTEGRAL =      0.07 TIME LEFT: 172799.93
 STEP:  19 TIME =     0.00 SECS, INTEGRAL =      0.07 TIME LEFT: 172799.93
 STEP:  20 TIME =     0.00 SECS, INTEGRAL =      0.08 TIME LEFT: 172799.92
 STEP:  21 TIME =     0.01 SECS, INTEGRAL =      0.09 TIME LEFT: 172799.91
 STEP:  22 TIME =     0.01 SECS, INTEGRAL =      0.10 TIME LEFT: 172799.90
 STEP:  23 TIME =     0.01 SECS, INTEGRAL =      0.11 TIME LEFT: 172799.89
 STEP:  24 TIME =     0.01 SECS, INTEGRAL =      0.12 TIME LEFT: 172799.88
 STEP:  25                       INTEGRAL =      0.12 TIME LEFT: 172799.88
 STEP:  26                       INTEGRAL =      0.12 TIME LEFT: 172799.88
 STEP:  27                       INTEGRAL =      0.12 TIME LEFT: 172799.88
 STEP:  28                       INTEGRAL =      0.12 TIME LEFT: 172799.88
 STEP:  29                       INTEGRAL =      0.12 TIME LEFT: 172799.88
 STEP:  30                       INTEGRAL =      0.12 TIME LEFT: 172799.88
 STEP:  31 TIME =     0.01 SECS, INTEGRAL =      0.12 TIME LEFT: 172799.88
 STEP:  32 TIME =     0.01 SECS, INTEGRAL =      0.13 TIME LEFT: 172799.87
 STEP:  33 TIME =     0.01 SECS, INTEGRAL =      0.14 TIME LEFT: 172799.86
 STEP:  34                       INTEGRAL =      0.14 TIME LEFT: 172799.86
 STEP:  35                       INTEGRAL =      0.14 TIME LEFT: 172799.86
 STEP:  36                       INTEGRAL =      0.14 TIME LEFT: 172799.86
 STEP:  37 TIME =     0.01 SECS, INTEGRAL =      0.16 TIME LEFT: 172799.84
 STEP:  38 TIME =     0.01 SECS, INTEGRAL =      0.16 TIME LEFT: 172799.84
 STEP:  39 TIME =     0.01 SECS, INTEGRAL =      0.17 TIME LEFT: 172799.83
 STEP:  40 TIME =     0.00 SECS, INTEGRAL =      0.17 TIME LEFT: 172799.83
 STEP:  41 TIME =     0.00 SECS, INTEGRAL =      0.18 TIME LEFT: 172799.82
 STEP:  42 TIME =     0.01 SECS, INTEGRAL =      0.19 TIME LEFT: 172799.81
 STEP:  43                       INTEGRAL =      0.19 TIME LEFT: 172799.81
 STEP:  44                       INTEGRAL =      0.19 TIME LEFT: 172799.81
 STEP:  45                       INTEGRAL =      0.19 TIME LEFT: 172799.81
 STEP:  46                       INTEGRAL =      0.19 TIME LEFT: 172799.81
 STEP:  47                       INTEGRAL =      0.19 TIME LEFT: 172799.81
 STEP:  48                       INTEGRAL =      0.19 TIME LEFT: 172799.81

(To convert to Hartree/Bohr^2, multiply by (10^(-21) x N x a0^2)/(4.184 x 627.51) =  0.0642)


           FORCE MATRIX IN MILLIDYNES/ANGSTROM


                  C  1       C  2       C  3       C  4       C  5       C  6
 ------------------------------------------------------------------------------
     C    1  13.309098
     C    2   7.135709  15.225879
     C    3   2.306244   5.530073  15.225879
     C    4   1.655225   2.308551   7.135709  13.309098
     C    5   1.998289   1.793364   2.089528   2.275579  12.741921
     C    6   2.273845   2.089958   1.792130   1.996260   7.015945  12.741921
     H    7   3.482284   0.805825   0.216606   0.192959   0.214438   0.497661
     H    8   3.538175   0.765547   0.104303   0.029357   0.047572   0.180656
     H    9   0.029644   0.104932   0.763445   3.538273   0.180943   0.048311
     H   10   0.197164   0.221356   0.806454   3.482670   0.502645   0.219097
     H   11   0.793058   3.453691   0.767062   0.112382   0.059769   0.072334
     H   12   0.117163   0.767601   3.453697   0.794692   0.077950   0.065015
     H   13   0.395497   0.138338   0.133394   0.146922   0.809336   3.523465
     H   14   0.432274   0.154612   0.143715   0.153356   0.810265   3.515239
     H   15   0.154212   0.140349   0.143082   0.399592   3.523367   0.809997
     H   16   0.153933   0.144458   0.157670   0.434524   3.514677   0.813646


                  H  7       H  8       H  9       H 10       H 11       H 12
 ------------------------------------------------------------------------------
     H    7   4.251718
     H    8   0.452904   4.296871
     H    9   0.006347   0.006316   4.296871
     H   10   0.029711   0.006556   0.452904   4.251718
     H   11   0.086002   0.045784   0.008647   0.008064   4.387667
     H   12   0.008488   0.008709   0.045883   0.085941   0.031245   4.387667
     H   13   0.011518   0.019106   0.004283   0.014942   0.004652   0.005949
     H   14   0.030826   0.019272   0.005056   0.014598   0.007211   0.006269
     H   15   0.015361   0.004459   0.019283   0.011700   0.005873   0.004369
     H   16   0.014348   0.005223   0.019234   0.030723   0.005978   0.006922


                  H 13       H 14       H 15       H 16
 ------------------------------------------------------
     H   13   4.290021
     H   14   0.448655   4.282244
     H   15   0.056879   0.080047   4.290021
     H   16   0.081219   0.058505   0.448655   4.282244


          HEAT OF FORMATION =      60.228059 KCALS/MOLE

          ZERO POINT ENERGY      82.849 KCAL/MOL

         NOTE: SYSTEM IS NOT A GROUND STATE, THEREFORE ZERO POINT
         ENERGY IS NOT MEANINGFULL. ZERO POINT ENERGY PRINTED
         DOES NOT INCLUDE THE  1 IMAGINARY FREQUENCIES


           NORMAL COORDINATE ANALYSIS (Total motion = 1 Angstrom)


   Root No.       1         2         3         4         5         6         7         8

                 1 A'      1 A"      2 A"      2 A'      3 A'      3 A"      4 A"      5 A"  

                -846.4     150.7     269.9     270.9     375.3     406.8     527.4     603.3
  
           1    0.0278    0.0142    0.0054   -0.0136    0.0282   -0.0027    0.0094   -0.0342
           2   -0.0463   -0.0218   -0.0486    0.0213    0.0682    0.0000   -0.0078   -0.0154
           3   -0.0778    0.0046   -0.0521   -0.0368   -0.0067   -0.0219   -0.0431   -0.0138
           4   -0.0248    0.0138    0.0015   -0.0140    0.0312   -0.0041    0.0044   -0.0305
           5   -0.0169    0.0009   -0.0257    0.0077   -0.0180   -0.0053    0.0009    0.0688
           6   -0.0028    0.0101   -0.0329    0.0472   -0.0101    0.0508    0.0215   -0.0033
           7    0.0031   -0.0058   -0.0233   -0.0132    0.0307   -0.0028   -0.0015    0.0750
           8    0.0298    0.0125   -0.0107    0.0088   -0.0188   -0.0065    0.0042    0.0062
           9   -0.0029   -0.0101    0.0333    0.0471   -0.0102   -0.0507   -0.0218    0.0031
          10    0.0539   -0.0259   -0.0453   -0.0250   -0.0465    0.0014   -0.0114    0.0029
          11   -0.0026    0.0020   -0.0182    0.0017   -0.0574   -0.0022    0.0048   -0.0373
          12   -0.0778   -0.0046    0.0521   -0.0369   -0.0064    0.0219    0.0431    0.0139
          13   -0.0501    0.0451    0.0196    0.0325   -0.0156   -0.0134    0.0231    0.0017
          14   -0.0099   -0.0214    0.0562   -0.0191    0.0092    0.0160   -0.0197    0.0002
          15    0.0819    0.0237    0.0067   -0.0082    0.0210    0.0266   -0.0704   -0.0038
          16   -0.0152   -0.0405    0.0402    0.0321   -0.0155    0.0203   -0.0279   -0.0006
          17    0.0491    0.0292    0.0439   -0.0196    0.0094   -0.0042    0.0110    0.0017
          18    0.0816   -0.0237   -0.0070   -0.0082    0.0210   -0.0267    0.0706    0.0038
          19   -0.0072    0.0049   -0.0103    0.0175    0.0809    0.0337    0.0253   -0.1371
          20    0.0250   -0.0418   -0.0390    0.0349    0.1192   -0.0137    0.0286   -0.1040
          21    0.0758   -0.0154   -0.0141   -0.0512    0.0069   -0.0858   -0.0001   -0.0170
          22   -0.0018    0.0278    0.0129   -0.0373   -0.0342   -0.0241   -0.0080    0.0709
          23   -0.0199   -0.0266   -0.0513    0.0301    0.1008    0.0165    0.0011   -0.0773
          24   -0.0379    0.0237   -0.0511   -0.0714   -0.0510   -0.0059   -0.0763    0.0347
          25    0.0167   -0.0367   -0.0513   -0.0442   -0.1052    0.0260    0.0049   -0.1019
          26    0.0109    0.0116   -0.0129    0.0181   -0.0184   -0.0133   -0.0061    0.0251
          27   -0.0376   -0.0237    0.0509   -0.0715   -0.0507    0.0059    0.0764   -0.0345
          28   -0.0250   -0.0390   -0.0294   -0.0222   -0.0660   -0.0278    0.0127   -0.0256
          29   -0.0051   -0.0156   -0.0278   -0.0322   -0.1281    0.0234    0.0360   -0.1701
          30    0.0760    0.0156    0.0140   -0.0510    0.0077    0.0857    0.0002    0.0179
          31    0.0114    0.0292    0.0179   -0.0291   -0.0028   -0.0107    0.0091   -0.0517
          32    0.0106    0.0128   -0.0219    0.0106   -0.0374    0.0098    0.0127    0.0522
          33    0.0445    0.0267   -0.0627    0.1100   -0.0387    0.1629    0.0779    0.0337
          34   -0.0037   -0.0028   -0.0278   -0.0228    0.0314    0.0133    0.0065    0.0705
          35   -0.0149    0.0317    0.0056    0.0209    0.0203   -0.0055    0.0137   -0.0206
          36    0.0448   -0.0269    0.0633    0.1097   -0.0390   -0.1627   -0.0786   -0.0338
          37    0.0115   -0.1315    0.0667    0.0487   -0.0149    0.0395   -0.0298    0.0060
          38   -0.0238   -0.0037    0.0366   -0.0280    0.0052   -0.0072    0.0185    0.0005
          39   -0.0479   -0.0167   -0.0392   -0.0309    0.0134   -0.0416    0.0750   -0.0025
          40    0.0101   -0.0316    0.0461    0.0275   -0.0147    0.0217   -0.0239   -0.0011
          41   -0.0234    0.1083    0.0204   -0.0179    0.0054   -0.0236    0.0092    0.0002
          42   -0.0477   -0.0776   -0.0245    0.0196    0.0177   -0.0365    0.0746    0.0096
          43    0.0262    0.0598    0.0007    0.0479   -0.0117   -0.0253    0.0307   -0.0025
          44    0.0008   -0.1172    0.0760   -0.0299    0.0108    0.0315   -0.0179    0.0056
          45   -0.0478    0.0171    0.0386   -0.0310    0.0134    0.0415   -0.0751    0.0025
          46    0.0253    0.1104   -0.0039    0.0290   -0.0118   -0.0311    0.0195    0.0007
          47    0.0021    0.0245    0.0503   -0.0157    0.0104    0.0080   -0.0171   -0.0009
          48   -0.0476    0.0772    0.0244    0.0195    0.0176    0.0364   -0.0741   -0.0097


   Root No.       9        10        11        12        13        14        15        16

                 4 A'      5 A'      6 A"      6 A'      7 A"      7 A'      8 A'      9 A'  

                 677.1     735.0     815.2     916.4     945.5     945.6     954.2     998.6
  
           1    0.0033    0.0031   -0.0045    0.0015   -0.0027    0.0050    0.0022    0.0120
           2   -0.0051    0.0111   -0.0116   -0.0002    0.0000   -0.0002    0.0107    0.0267
           3    0.0048   -0.0059    0.0142    0.0028   -0.0007    0.0182   -0.0071   -0.0064
           4    0.0051    0.0043   -0.0058    0.0012   -0.0045   -0.0052    0.0117   -0.0012
           5   -0.0034   -0.0013    0.0109   -0.0017    0.0029   -0.0040    0.0094    0.0078
           6    0.0044   -0.0196    0.0258   -0.0036   -0.0001   -0.0225   -0.0078    0.0127
           7    0.0055    0.0031    0.0123    0.0020    0.0047    0.0010   -0.0027   -0.0074
           8   -0.0028   -0.0032   -0.0001   -0.0002   -0.0027    0.0063   -0.0148   -0.0026
           9    0.0045   -0.0196   -0.0258   -0.0036    0.0005   -0.0226   -0.0077    0.0127
          10    0.0061   -0.0083   -0.0081    0.0009    0.0013    0.0026   -0.0084   -0.0177
          11   -0.0004   -0.0080   -0.0096   -0.0012   -0.0023   -0.0043   -0.0071   -0.0234
          12    0.0048   -0.0058   -0.0142    0.0028    0.0003    0.0182   -0.0070   -0.0063
          13   -0.0184   -0.0032   -0.0009    0.0101   -0.0194   -0.0015    0.0014   -0.0023
          14    0.0102    0.0001    0.0059   -0.0063    0.0131   -0.0044    0.0116   -0.0088
          15   -0.0111    0.0089    0.0115    0.0031   -0.0062   -0.0139    0.0090   -0.0051
          16   -0.0178   -0.0016    0.0055    0.0104    0.0208    0.0034   -0.0095    0.0066
          17    0.0112    0.0028    0.0020   -0.0059   -0.0107    0.0032   -0.0067    0.0063
          18   -0.0111    0.0088   -0.0116    0.0030    0.0065   -0.0138    0.0091   -0.0052
          19   -0.0045    0.0011   -0.0151   -0.0080    0.0109   -0.0133   -0.0577   -0.1001
          20    0.0010   -0.0581    0.0700    0.0068   -0.0018    0.0669   -0.0546   -0.0178
          21    0.0244   -0.1032    0.1455    0.0260   -0.0230    0.1337   -0.0225    0.0759
          22    0.0074    0.0050    0.0042    0.0010   -0.0065   -0.0147    0.1037    0.1057
          23   -0.0098    0.0372   -0.0525   -0.0009   -0.0001    0.0024   -0.0759   -0.0276
          24   -0.0064    0.1593   -0.1998   -0.0018   -0.0176   -0.0432   -0.1028    0.0753
          25    0.0121   -0.0298   -0.0475    0.0013    0.0032   -0.0092    0.1159    0.0751
          26   -0.0018   -0.0214   -0.0205   -0.0004   -0.0059    0.0114   -0.0552   -0.0792
          27   -0.0063    0.1595    0.2001   -0.0017    0.0185   -0.0430   -0.1029    0.0753
          28   -0.0030    0.0512    0.0683   -0.0098   -0.0056   -0.0648    0.0202   -0.0321
          29    0.0036    0.0263    0.0196    0.0039    0.0092   -0.0196    0.0767    0.0967
          30    0.0245   -0.1035   -0.1458    0.0261    0.0205    0.1342   -0.0229    0.0754
          31    0.0072   -0.0087    0.0017   -0.0002   -0.0096   -0.0038   -0.0127   -0.0230
          32   -0.0062    0.0146    0.0052    0.0035   -0.0039    0.0270    0.0035   -0.0132
          33   -0.0201    0.1285   -0.0269    0.0342   -0.0182    0.1686    0.0569   -0.0364
          34    0.0088   -0.0166    0.0039   -0.0030    0.0017   -0.0250   -0.0089    0.0005
          35   -0.0034    0.0013    0.0041   -0.0013   -0.0100   -0.0089    0.0098    0.0263
          36   -0.0201    0.1286    0.0270    0.0342    0.0151    0.1689    0.0569   -0.0366
          37    0.1296    0.0188   -0.0004   -0.1367   -0.0932    0.0245   -0.0263    0.0223
          38   -0.0329   -0.0024   -0.0077   -0.1190    0.0648    0.0127    0.0220   -0.0190
          39   -0.1609   -0.0103   -0.0222   -0.1027    0.1847   -0.0082    0.0620   -0.0529
          40   -0.0464   -0.0031    0.0048   -0.0089    0.0478    0.0077   -0.0202    0.0185
          41   -0.0153   -0.0046    0.0077    0.2064   -0.0324   -0.0331    0.0114   -0.0191
          42    0.1844    0.0236   -0.0174    0.0176   -0.1785   -0.0338    0.0755   -0.0750
          43    0.0904    0.0111   -0.0066    0.0387    0.1010    0.0020   -0.0317    0.0272
          44   -0.0989   -0.0155   -0.0039    0.1765   -0.0511   -0.0283    0.0129   -0.0107
          45   -0.1606   -0.0102    0.0222   -0.1036   -0.1845   -0.0108    0.0620   -0.0530
          46   -0.0084    0.0026    0.0045   -0.1854   -0.0513    0.0319   -0.0195    0.0254
          47    0.0489    0.0050    0.0080   -0.0909    0.0272    0.0093    0.0126   -0.0074
          48    0.1842    0.0236    0.0173    0.0186    0.1791   -0.0314    0.0755   -0.0751


   Root No.      17        18        19        20        21        22        23        24

                 8 A"      9 A"     10 A"     10 A'     11 A"     12 A"     11 A'     13 A"  

                1015.8    1081.6    1093.7    1131.8    1147.7    1176.1    1231.9    1302.6
  
           1   -0.0058    0.0123   -0.0042    0.0003   -0.0001   -0.0006   -0.0233   -0.0222
           2   -0.0070    0.0356    0.0044   -0.0062    0.0087    0.0023   -0.0054    0.0150
           3   -0.0066   -0.0136    0.0159   -0.0236    0.0197    0.0041    0.0029   -0.0024
           4   -0.0030    0.0057    0.0026    0.0021   -0.0017    0.0009    0.0131    0.0027
           5    0.0127   -0.0298   -0.0029   -0.0071   -0.0027   -0.0010   -0.0391   -0.0158
           6    0.0483    0.0206   -0.0103    0.0067   -0.0067   -0.0007   -0.0026    0.0022
           7    0.0125   -0.0289   -0.0038    0.0073   -0.0015   -0.0013    0.0406   -0.0152
           8    0.0032   -0.0093    0.0009    0.0016   -0.0028    0.0003    0.0072   -0.0051
           9   -0.0484   -0.0205    0.0102    0.0067    0.0067    0.0007   -0.0027   -0.0021
          10   -0.0033    0.0254    0.0058    0.0056    0.0076    0.0022   -0.0063    0.0238
          11   -0.0084    0.0279   -0.0017    0.0026    0.0040    0.0006    0.0231   -0.0123
          12    0.0066    0.0134   -0.0159   -0.0236   -0.0198   -0.0041    0.0029    0.0024
          13    0.0037   -0.0013   -0.0008    0.0056    0.0163   -0.0414   -0.0010    0.0010
          14   -0.0021    0.0007    0.0017   -0.0010   -0.0066    0.0249    0.0015   -0.0009
          15   -0.0031    0.0020    0.0134   -0.0147   -0.0257   -0.0271    0.0039   -0.0029
          16   -0.0036    0.0012    0.0019    0.0035   -0.0135    0.0417   -0.0018   -0.0013
          17    0.0022   -0.0008    0.0001   -0.0045    0.0113   -0.0243    0.0001    0.0005
          18    0.0031   -0.0020   -0.0133   -0.0147    0.0257    0.0271    0.0038    0.0029
          19    0.0449   -0.1241    0.0270   -0.0362    0.0182    0.0028   -0.0620   -0.1017
          20   -0.0259   -0.0594   -0.0578    0.0393   -0.0417   -0.0217   -0.0438   -0.0448
          21   -0.0975    0.0305   -0.1198    0.0939   -0.0789   -0.0349    0.0003    0.0029
          22   -0.0321    0.1559    0.0165   -0.0169    0.0257    0.0020   -0.0454   -0.0442
          23    0.0177   -0.0675   -0.0334    0.0252   -0.0253   -0.0041   -0.0007    0.0212
          24    0.0242    0.0043   -0.1168    0.0890   -0.0688   -0.0181   -0.0232   -0.0213
          25    0.0309   -0.1339   -0.0369   -0.0299   -0.0343   -0.0045   -0.0211    0.0399
          26   -0.0198    0.1046   -0.0009    0.0032    0.0108   -0.0001    0.0401   -0.0285
          27   -0.0242   -0.0044    0.1169    0.0891    0.0688    0.0181   -0.0232    0.0214
          28   -0.0439    0.0071   -0.0633   -0.0515   -0.0451   -0.0203    0.0089    0.0093
          29    0.0275   -0.1375   -0.0034    0.0134   -0.0036   -0.0077    0.0754   -0.1107
          30    0.0975   -0.0299    0.1200    0.0940    0.0790    0.0350    0.0000   -0.0024
          31    0.0194   -0.0400    0.0028   -0.0068   -0.0190    0.0000   -0.2051    0.2282
          32   -0.0198   -0.0619    0.0019   -0.0141   -0.0110   -0.0017   -0.1594    0.1203
          33   -0.2429   -0.0354    0.0128   -0.0091    0.0064   -0.0032    0.0136   -0.0050
          34   -0.0260   -0.0352    0.0003    0.0091   -0.0006   -0.0015    0.0418   -0.0037
          35    0.0087   -0.0646    0.0033    0.0126   -0.0220   -0.0008    0.2564    0.2580
          36    0.2429    0.0357   -0.0130   -0.0092   -0.0062    0.0032    0.0123    0.0038
          37    0.0140   -0.0108   -0.0147   -0.0402    0.0634   -0.1111    0.0091    0.0082
          38    0.0004    0.0067    0.0409    0.0500   -0.0326   -0.1325   -0.0064    0.0009
          39   -0.0087    0.0167    0.0660    0.0967   -0.0901   -0.0740   -0.0137   -0.0022
          40   -0.0043   -0.0006   -0.0194   -0.0193    0.0178    0.0269    0.0035    0.0032
          41   -0.0043   -0.0018    0.0208    0.0317   -0.0497    0.1848   -0.0061   -0.0036
          42    0.0172    0.0070    0.1040    0.1073   -0.1226   -0.0005   -0.0248   -0.0221
          43   -0.0063    0.0110    0.0428   -0.0628   -0.0587   -0.0629    0.0099   -0.0031
          44    0.0125   -0.0064    0.0063    0.0118    0.0405   -0.1606   -0.0051    0.0076
          45    0.0087   -0.0167   -0.0662    0.0968    0.0900    0.0750   -0.0136    0.0022
          46   -0.0018   -0.0012    0.0273   -0.0367   -0.0518    0.1493    0.0071   -0.0046
          47   -0.0059   -0.0014   -0.0076    0.0023   -0.0076    0.1121   -0.0003    0.0012
          48   -0.0171   -0.0069   -0.1040    0.1075    0.1228   -0.0004   -0.0247    0.0221


   Root No.      25        26        27        28        29        30        31        32

                12 A'     13 A'     14 A"     15 A"     14 A'     15 A'     16 A"     16 A'  

                1359.2    1361.4    1381.6    1384.9    1442.8    1503.9    1665.0    1666.6
  
           1   -0.0099    0.0046   -0.0198    0.0021    0.0475   -0.0115   -0.1052    0.0645
           2    0.0098   -0.0003    0.0022   -0.0006   -0.0051   -0.0157   -0.0043    0.0109
           3   -0.0011    0.0018   -0.0025   -0.0021    0.0069   -0.0180   -0.0050    0.0064
           4    0.0089   -0.0036   -0.0148    0.0032   -0.0058    0.0424    0.1259   -0.1002
           5   -0.0257    0.0052   -0.0043    0.0007    0.0404    0.0409    0.0020   -0.0621
           6    0.0028   -0.0010   -0.0013    0.0007   -0.0006    0.0006    0.0028    0.0006
           7    0.0268   -0.0063    0.0033   -0.0010   -0.0383   -0.0156   -0.0585    0.0065
           8    0.0045    0.0006   -0.0150    0.0031   -0.0142   -0.0566    0.1116    0.1179
           9    0.0027   -0.0010    0.0013   -0.0008   -0.0005    0.0009   -0.0032   -0.0001
          10   -0.0133    0.0026    0.0114   -0.0015    0.0272    0.0079    0.0467    0.0209
          11    0.0040   -0.0039   -0.0163    0.0015   -0.0392    0.0175   -0.0945   -0.0616
          12   -0.0011    0.0019    0.0025    0.0021    0.0070   -0.0183    0.0053    0.0065
          13   -0.0010   -0.0063   -0.0017   -0.0141   -0.0046    0.0327    0.0027    0.0528
          14    0.0002   -0.0102   -0.0010   -0.0253   -0.0113    0.0719    0.0020    0.0858
          15    0.0024    0.0007   -0.0002    0.0006   -0.0047    0.0169   -0.0044   -0.0052
          16   -0.0007    0.0059   -0.0001   -0.0154    0.0078   -0.0473    0.0004   -0.0500
          17    0.0009    0.0105   -0.0019   -0.0245    0.0095   -0.0632    0.0032   -0.0876
          18    0.0024    0.0006    0.0002   -0.0004   -0.0048    0.0174    0.0043   -0.0046
          19   -0.1332    0.0257    0.1278   -0.0128   -0.0666   -0.0227   -0.0151    0.0077
          20   -0.0836    0.0082    0.1051   -0.0058   -0.0899    0.0294    0.0577   -0.0456
          21    0.0078   -0.0107   -0.0143    0.0076   -0.0016    0.0656   -0.0003   -0.0219
          22   -0.0847    0.0184    0.1481   -0.0116   -0.1134   -0.0539   -0.0126    0.0372
          23    0.0441   -0.0096   -0.0933    0.0077    0.0895    0.0303   -0.0489    0.0056
          24   -0.0368   -0.0075    0.0483   -0.0034   -0.0442    0.0330    0.0167   -0.0026
          25   -0.0793    0.0174   -0.1530    0.0123   -0.1331   -0.0527   -0.0370    0.0123
          26    0.0531   -0.0117    0.0852   -0.0064    0.0565    0.0332   -0.0346   -0.0351
          27   -0.0368   -0.0074   -0.0483    0.0034   -0.0441    0.0327   -0.0164   -0.0027
          28    0.0097    0.0052    0.0312    0.0010    0.0470   -0.0368    0.0579    0.0432
          29    0.1570   -0.0265    0.1626   -0.0140    0.1015    0.0060    0.0144    0.0148
          30    0.0070   -0.0106    0.0134   -0.0075   -0.0023    0.0656    0.0000   -0.0222
          31    0.1240   -0.0261    0.0688   -0.0126   -0.0837   -0.0117   -0.0827   -0.0198
          32    0.0444   -0.0086    0.0460   -0.0085   -0.0151    0.0023   -0.0892   -0.0035
          33   -0.0018   -0.0009    0.0003    0.0001   -0.0094    0.0138    0.0139   -0.0154
          34    0.0203   -0.0049    0.0075   -0.0014   -0.0269   -0.0077   -0.0387   -0.0065
          35   -0.1302    0.0269    0.0824   -0.0151    0.0807    0.0096   -0.1154    0.0196
          36   -0.0012   -0.0010   -0.0008   -0.0000   -0.0098    0.0136   -0.0133   -0.0155
          37    0.0293    0.1647    0.0123    0.1862   -0.0191    0.0703   -0.0044    0.0374
          38    0.0132    0.1029    0.0051    0.0871    0.0053   -0.0335   -0.0026   -0.0249
          39    0.0019    0.0410    0.0024    0.0465    0.0091   -0.0256   -0.0043    0.0254
          40    0.0035    0.0124   -0.0005   -0.0078    0.0019   -0.0232    0.0032   -0.0435
          41    0.0253    0.1948    0.0182    0.1993   -0.0062    0.0177   -0.0122    0.0239
          42   -0.0199   -0.0409   -0.0031   -0.0608    0.0267   -0.0830   -0.0169   -0.0065
          43    0.0025   -0.0113   -0.0014   -0.0128   -0.0137    0.0629   -0.0001    0.0396
          44   -0.0321   -0.1938    0.0132    0.2049    0.0144   -0.0455   -0.0051   -0.0205
          45    0.0021    0.0420   -0.0025   -0.0475    0.0090   -0.0257    0.0044    0.0253
          46   -0.0205   -0.1651    0.0163    0.1789    0.0064   -0.0272   -0.0122   -0.0422
          47   -0.0153   -0.1043    0.0083    0.0888    0.0014    0.0114   -0.0029    0.0266
          48   -0.0197   -0.0398    0.0030    0.0599    0.0266   -0.0831    0.0170   -0.0066


   Root No.      33        34        35        36        37        38        39        40

                17 A"     17 A'     18 A"     18 A'     19 A"     19 A'     20 A"     20 A'  

                2692.5    2701.3    2702.6    2726.9    2756.9    2757.0    2761.5    2769.7
  
           1    0.0005   -0.0027    0.0022   -0.0001   -0.0039    0.0059   -0.0117    0.0034
           2   -0.0042    0.0215   -0.0195    0.0021   -0.0088    0.0039   -0.0023    0.0058
           3    0.0018   -0.0093    0.0083   -0.0009    0.0014    0.0008   -0.0027   -0.0010
           4   -0.0002    0.0024   -0.0018    0.0008    0.0091   -0.0017   -0.0025   -0.0100
           5    0.0004   -0.0016    0.0027   -0.0007   -0.0209    0.0036    0.0039    0.0148
           6   -0.0000   -0.0000   -0.0001    0.0000    0.0031   -0.0006   -0.0008   -0.0025
           7    0.0004    0.0025    0.0032    0.0010   -0.0228   -0.0037    0.0046   -0.0178
           8    0.0000   -0.0014   -0.0002   -0.0004   -0.0020   -0.0003   -0.0004    0.0017
           9    0.0000   -0.0000    0.0001   -0.0000   -0.0030   -0.0005    0.0008   -0.0025
          10   -0.0040   -0.0203   -0.0182   -0.0019   -0.0059   -0.0004    0.0036   -0.0035
          11   -0.0016   -0.0080   -0.0074   -0.0009   -0.0078   -0.0070   -0.0114   -0.0058
          12   -0.0018   -0.0092   -0.0082   -0.0009   -0.0013    0.0009    0.0027   -0.0009
          13    0.0185    0.0017   -0.0034   -0.0228   -0.0003    0.0018    0.0023   -0.0013
          14   -0.0095   -0.0016    0.0017    0.0106   -0.0001    0.0110    0.0059   -0.0054
          15    0.0098    0.0006   -0.0021   -0.0124   -0.0000    0.0025    0.0018   -0.0015
          16   -0.0172    0.0022    0.0032   -0.0202   -0.0001   -0.0089    0.0040    0.0041
          17    0.0116   -0.0008   -0.0021    0.0149   -0.0004   -0.0069    0.0048    0.0037
          18   -0.0097    0.0006    0.0021   -0.0125    0.0000    0.0025   -0.0019   -0.0015
          19   -0.0269    0.1296   -0.1138    0.0098    0.0003   -0.0248    0.0663   -0.0006
          20    0.0322   -0.1493    0.1330   -0.0104   -0.0097    0.0364   -0.0888    0.0074
          21   -0.0205    0.1014   -0.0896    0.0086    0.0042   -0.0222    0.0564   -0.0040
          22    0.0170   -0.0907    0.0836   -0.0108    0.0726   -0.0520    0.0761   -0.0459
          23    0.0225   -0.1243    0.1152   -0.0159    0.1095   -0.0808    0.1218   -0.0700
          24   -0.0035    0.0202   -0.0187    0.0027   -0.0198    0.0152   -0.0223    0.0124
          25    0.0116    0.0657    0.0612    0.0088    0.0624    0.0458    0.0705    0.0395
          26    0.0257    0.1393    0.1286    0.0171    0.1179    0.0834    0.1252    0.0739
          27    0.0034    0.0193    0.0178    0.0026    0.0193    0.0146    0.0215    0.0119
          28    0.0412    0.1934    0.1715    0.0138   -0.0095   -0.0438   -0.1099   -0.0068
          29   -0.0081   -0.0419   -0.0358   -0.0036   -0.0044    0.0044    0.0154   -0.0030
          30    0.0204    0.1010    0.0893    0.0085   -0.0046   -0.0220   -0.0561   -0.0039
          31    0.0048   -0.0271    0.0288   -0.0071   -0.1580    0.0249    0.0319    0.1172
          32   -0.0090    0.0495   -0.0515    0.0124    0.2675   -0.0429   -0.0526   -0.1995
          33    0.0015   -0.0074    0.0078   -0.0017   -0.0421    0.0067    0.0083    0.0312
          34   -0.0102   -0.0565   -0.0590   -0.0143    0.3116    0.0468   -0.0615    0.2313
          35   -0.0001    0.0001    0.0006    0.0003   -0.0105   -0.0014    0.0028   -0.0072
          36   -0.0015   -0.0073   -0.0077   -0.0017    0.0414    0.0063   -0.0082    0.0305
          37    0.0565   -0.0037   -0.0104    0.0665   -0.0019   -0.0423    0.0232    0.0223
          38   -0.1672    0.0124    0.0309   -0.1978    0.0046    0.0949   -0.0560   -0.0508
          39    0.1049   -0.0070   -0.0201    0.1227   -0.0032   -0.0626    0.0359    0.0339
          40    0.1788   -0.0216   -0.0327    0.1733    0.0047    0.1588   -0.0730   -0.0767
          41    0.0121   -0.0018   -0.0020    0.0154   -0.0001    0.0026   -0.0018   -0.0007
          42    0.0277   -0.0037   -0.0047    0.0269    0.0004    0.0289   -0.0137   -0.0136
          43   -0.1741   -0.0127    0.0322    0.2059    0.0029   -0.1038   -0.0603    0.0553
          44   -0.0310   -0.0027    0.0057    0.0369    0.0004   -0.0087   -0.0067    0.0049
          45   -0.1042   -0.0070    0.0200    0.1219    0.0020   -0.0622   -0.0357    0.0337
          46   -0.0751   -0.0088    0.0139    0.0695   -0.0009    0.0740    0.0334   -0.0361
          47    0.1626    0.0198   -0.0297   -0.1594    0.0014   -0.1406   -0.0649    0.0676
          48   -0.0283   -0.0038    0.0049    0.0274    0.0001    0.0295    0.0139   -0.0139


   Root No.      41        42

                21 A'     21 A"  

                2771.4    2775.3
  
           1    0.0116   -0.0065
           2    0.0018   -0.0007
           3    0.0024   -0.0007
           4    0.0054   -0.0015
           5   -0.0046    0.0024
           6    0.0010   -0.0003
           7    0.0066    0.0029
           8   -0.0025   -0.0002
           9    0.0010    0.0004
          10    0.0040    0.0025
          11   -0.0111   -0.0060
          12    0.0025    0.0007
          13   -0.0004   -0.0047
          14   -0.0047   -0.0126
          15   -0.0003   -0.0023
          16    0.0039   -0.0088
          17    0.0026   -0.0101
          18   -0.0003    0.0024
          19   -0.0697    0.0356
          20    0.0919   -0.0474
          21   -0.0592    0.0304
          22   -0.0766    0.0394
          23   -0.1226    0.0635
          24    0.0228   -0.0118
          25    0.0710    0.0370
          26    0.1261    0.0651
          27    0.0220    0.0113
          28   -0.1142   -0.0587
          29    0.0169    0.0084
          30   -0.0589   -0.0303
          31   -0.0452    0.0190
          32    0.0760   -0.0311
          33   -0.0120    0.0050
          34   -0.0884   -0.0364
          35    0.0033    0.0017
          36   -0.0118   -0.0048
          37    0.0153   -0.0461
          38   -0.0332    0.1101
          39    0.0223   -0.0705
          40   -0.0672    0.1567
          41   -0.0008    0.0034
          42   -0.0115    0.0282
          43    0.0365    0.1189
          44    0.0026    0.0126
          45    0.0222    0.0701
          46   -0.0315   -0.0721
          47    0.0592    0.1392
          48   -0.0117   -0.0287


           MASS-WEIGHTED COORDINATE ANALYSIS (NORMAL COORDINATES)


   Root No.       1         2         3         4         5         6         7         8

                 1 A'      1 A"      2 A"      2 A'      3 A'      3 A"      4 A"      5 A"  

                -846.4     150.7     269.9     270.9     375.3     406.8     527.4     603.3
  
           1    0.1371    0.1152    0.0344   -0.1044    0.1909   -0.0213    0.0644   -0.2264
           2   -0.2285   -0.1770   -0.3093    0.1632    0.4618    0.0002   -0.0536   -0.1018
           3   -0.3839    0.0376   -0.3317   -0.2828   -0.0454   -0.1759   -0.2956   -0.0913
           4   -0.1221    0.1118    0.0096   -0.1074    0.2113   -0.0330    0.0299   -0.2019
           5   -0.0835    0.0073   -0.1635    0.0593   -0.1220   -0.0428    0.0063    0.4561
           6   -0.0139    0.0816   -0.2095    0.3623   -0.0686    0.4074    0.1476   -0.0216
           7    0.0151   -0.0473   -0.1482   -0.1015    0.2080   -0.0225   -0.0102    0.4973
           8    0.1471    0.1013   -0.0684    0.0679   -0.1270   -0.0517    0.0291    0.0412
           9   -0.0142   -0.0820    0.2118    0.3614   -0.0688   -0.4062   -0.1496    0.0202
          10    0.2658   -0.2107   -0.2882   -0.1921   -0.3148    0.0113   -0.0780    0.0194
          11   -0.0126    0.0162   -0.1161    0.0127   -0.3888   -0.0180    0.0328   -0.2471
          12   -0.3836   -0.0371    0.3317   -0.2836   -0.0431    0.1759    0.2958    0.0924
          13   -0.2473    0.3661    0.1248    0.2493   -0.1059   -0.1076    0.1582    0.0114
          14   -0.0489   -0.1741    0.3581   -0.1468    0.0624    0.1286   -0.1353    0.0016
          15    0.4037    0.1927    0.0425   -0.0631    0.1420    0.2133   -0.4827   -0.0252
          16   -0.0747   -0.3287    0.2561    0.2465   -0.1048    0.1629   -0.1914   -0.0042
          17    0.2422    0.2372    0.2799   -0.1504    0.0636   -0.0335    0.0754    0.0110
          18    0.4023   -0.1928   -0.0448   -0.0631    0.1422   -0.2144    0.4845    0.0250
          19   -0.0103    0.0115   -0.0191    0.0389    0.1586    0.0782    0.0503   -0.2633
          20    0.0357   -0.0983   -0.0719    0.0777    0.2337   -0.0319    0.0568   -0.1997
          21    0.1083   -0.0362   -0.0260   -0.1139    0.0136   -0.1994   -0.0003   -0.0327
          22   -0.0025    0.0654    0.0237   -0.0830   -0.0671   -0.0560   -0.0159    0.1362
          23   -0.0284   -0.0626   -0.0946    0.0669    0.1976    0.0382    0.0022   -0.1485
          24   -0.0541    0.0559   -0.0943   -0.1588   -0.0999   -0.0138   -0.1516    0.0666
          25    0.0238   -0.0864   -0.0947   -0.0983   -0.2062    0.0605    0.0098   -0.1957
          26    0.0155    0.0272   -0.0238    0.0401   -0.0361   -0.0308   -0.0120    0.0481
          27   -0.0537   -0.0557    0.0938   -0.1590   -0.0994    0.0137    0.1517   -0.0662
          28   -0.0357   -0.0917   -0.0543   -0.0494   -0.1295   -0.0646    0.0253   -0.0491
          29   -0.0072   -0.0368   -0.0513   -0.0715   -0.2512    0.0543    0.0716   -0.3267
          30    0.1086    0.0367    0.0259   -0.1134    0.0151    0.1990    0.0004    0.0344
          31    0.0162    0.0687    0.0329   -0.0647   -0.0054   -0.0249    0.0180   -0.0993
          32    0.0152    0.0301   -0.0404    0.0236   -0.0733    0.0228    0.0252    0.1002
          33    0.0636    0.0629   -0.1157    0.2444   -0.0759    0.3783    0.1549    0.0648
          34   -0.0053   -0.0066   -0.0512   -0.0507    0.0615    0.0310    0.0129    0.1354
          35   -0.0213    0.0745    0.0104    0.0465    0.0398   -0.0129    0.0272   -0.0395
          36    0.0640   -0.0633    0.1169    0.2439   -0.0764   -0.3778   -0.1561   -0.0648
          37    0.0164   -0.3095    0.1231    0.1083   -0.0292    0.0917   -0.0591    0.0116
          38   -0.0340   -0.0086    0.0675   -0.0623    0.0101   -0.0168    0.0368    0.0009
          39   -0.0684   -0.0393   -0.0723   -0.0687    0.0264   -0.0966    0.1491   -0.0048
          40    0.0144   -0.0743    0.0851    0.0611   -0.0288    0.0505   -0.0475   -0.0022
          41   -0.0334    0.2549    0.0377   -0.0398    0.0105   -0.0549    0.0183    0.0005
          42   -0.0682   -0.1827   -0.0451    0.0435    0.0347   -0.0848    0.1483    0.0185
          43    0.0375    0.1407    0.0012    0.1064   -0.0229   -0.0588    0.0610   -0.0048
          44    0.0012   -0.2757    0.1403   -0.0665    0.0212    0.0732   -0.0355    0.0107
          45   -0.0683    0.0403    0.0712   -0.0690    0.0262    0.0964   -0.1491    0.0048
          46    0.0361    0.2599   -0.0071    0.0645   -0.0232   -0.0723    0.0388    0.0013
          47    0.0030    0.0577    0.0928   -0.0349    0.0204    0.0186   -0.0339   -0.0017
          48   -0.0680    0.1817    0.0451    0.0433    0.0346    0.0845   -0.1472   -0.0186


   Root No.       9        10        11        12        13        14        15        16

                 4 A'      5 A'      6 A"      6 A'      7 A"      7 A'      8 A'      9 A'  

                 677.1     735.0     815.2     916.4     945.5     945.6     954.2     998.6
  
           1    0.0269    0.0291   -0.0369    0.0122   -0.0218    0.0464    0.0229    0.1196
           2   -0.0417    0.1049   -0.0965   -0.0014    0.0002   -0.0017    0.1098    0.2651
           3    0.0391   -0.0557    0.1179    0.0226   -0.0053    0.1675   -0.0725   -0.0639
           4    0.0418    0.0406   -0.0482    0.0094   -0.0368   -0.0478    0.1200   -0.0120
           5   -0.0277   -0.0120    0.0899   -0.0136    0.0235   -0.0371    0.0968    0.0778
           6    0.0362   -0.1856    0.2142   -0.0296   -0.0009   -0.2075   -0.0802    0.1257
           7    0.0446    0.0295    0.1016    0.0164    0.0381    0.0096   -0.0278   -0.0738
           8   -0.0228   -0.0307   -0.0005   -0.0016   -0.0220    0.0581   -0.1518   -0.0262
           9    0.0365   -0.1855   -0.2141   -0.0294    0.0043   -0.2080   -0.0794    0.1257
          10    0.0496   -0.0783   -0.0672    0.0072    0.0103    0.0243   -0.0859   -0.1759
          11   -0.0031   -0.0760   -0.0793   -0.0097   -0.0184   -0.0396   -0.0729   -0.2325
          12    0.0395   -0.0549   -0.1174    0.0230    0.0027    0.1673   -0.0719   -0.0628
          13   -0.1500   -0.0307   -0.0074    0.0822   -0.1566   -0.0138    0.0139   -0.0232
          14    0.0830    0.0010    0.0488   -0.0515    0.1062   -0.0403    0.1187   -0.0872
          15   -0.0901    0.0838    0.0956    0.0249   -0.0505   -0.1281    0.0923   -0.0510
          16   -0.1451   -0.0154    0.0458    0.0845    0.1679    0.0313   -0.0972    0.0656
          17    0.0909    0.0266    0.0166   -0.0478   -0.0869    0.0297   -0.0689    0.0622
          18   -0.0906    0.0836   -0.0961    0.0246    0.0525   -0.1273    0.0930   -0.0512
          19   -0.0106    0.0030   -0.0362   -0.0189    0.0256   -0.0354   -0.1715   -0.2881
          20    0.0024   -0.1591    0.1681    0.0160   -0.0043    0.1785   -0.1623   -0.0512
          21    0.0577   -0.2829    0.3493    0.0612   -0.0538    0.3566   -0.0668    0.2183
          22    0.0175    0.0137    0.0102    0.0024   -0.0153   -0.0391    0.3083    0.3042
          23   -0.0231    0.1021   -0.1261   -0.0021   -0.0001    0.0064   -0.2255   -0.0795
          24   -0.0152    0.4366   -0.4798   -0.0041   -0.0414   -0.1152   -0.3057    0.2166
          25    0.0286   -0.0818   -0.1141    0.0030    0.0076   -0.0246    0.3446    0.2160
          26   -0.0043   -0.0587   -0.0491   -0.0011   -0.0137    0.0304   -0.1642   -0.2280
          27   -0.0150    0.4372    0.4804   -0.0039    0.0434   -0.1148   -0.3059    0.2168
          28   -0.0071    0.1403    0.1640   -0.0229   -0.0131   -0.1729    0.0601   -0.0925
          29    0.0085    0.0722    0.0470    0.0093    0.0215   -0.0523    0.2279    0.2784
          30    0.0578   -0.2836   -0.3501    0.0613    0.0480    0.3581   -0.0680    0.2171
          31    0.0169   -0.0238    0.0041   -0.0004   -0.0225   -0.0102   -0.0377   -0.0661
          32   -0.0147    0.0401    0.0126    0.0082   -0.0090    0.0720    0.0103   -0.0380
          33   -0.0475    0.3523   -0.0646    0.0804   -0.0425    0.4497    0.1691   -0.1047
          34    0.0209   -0.0456    0.0093   -0.0072    0.0040   -0.0668   -0.0266    0.0014
          35   -0.0079    0.0034    0.0099   -0.0031   -0.0235   -0.0237    0.0291    0.0757
          36   -0.0474    0.3525    0.0647    0.0805    0.0353    0.4505    0.1691   -0.1052
          37    0.3063    0.0517   -0.0009   -0.3214   -0.2183    0.0653   -0.0783    0.0643
          38   -0.0778   -0.0066   -0.0185   -0.2797    0.1520    0.0339    0.0654   -0.0546
          39   -0.3801   -0.0282   -0.0533   -0.2414    0.4328   -0.0220    0.1844   -0.1522
          40   -0.1097   -0.0085    0.0115   -0.0210    0.1120    0.0205   -0.0600    0.0532
          41   -0.0360   -0.0127    0.0184    0.4851   -0.0758   -0.0882    0.0338   -0.0550
          42    0.4356    0.0646   -0.0418    0.0413   -0.4184   -0.0902    0.2245   -0.2158
          43    0.2136    0.0304   -0.0158    0.0909    0.2366    0.0054   -0.0943    0.0784
          44   -0.2336   -0.0424   -0.0093    0.4148   -0.1199   -0.0755    0.0383   -0.0308
          45   -0.3794   -0.0280    0.0533   -0.2436   -0.4325   -0.0287    0.1844   -0.1524
          46   -0.0198    0.0072    0.0107   -0.4359   -0.1203    0.0851   -0.0579    0.0731
          47    0.1155    0.0138    0.0192   -0.2137    0.0636    0.0249    0.0376   -0.0213
          48    0.4352    0.0646    0.0416    0.0437    0.4198   -0.0839    0.2246   -0.2161


   Root No.      17        18        19        20        21        22        23        24

                 8 A"      9 A"     10 A"     10 A'     11 A"     12 A"     11 A'     13 A"  

                1015.8    1081.6    1093.7    1131.8    1147.7    1176.1    1231.9    1302.6
  
           1   -0.0434    0.0995   -0.0424    0.0033   -0.0011   -0.0042   -0.1761   -0.1763
           2   -0.0523    0.2881    0.0443   -0.0628    0.0842    0.0166   -0.0407    0.1193
           3   -0.0493   -0.1103    0.1604   -0.2385    0.1908    0.0306    0.0220   -0.0188
           4   -0.0223    0.0461    0.0258    0.0212   -0.0168    0.0066    0.0989    0.0218
           5    0.0954   -0.2407   -0.0293   -0.0721   -0.0257   -0.0074   -0.2952   -0.1253
           6    0.3619    0.1662   -0.1038    0.0674   -0.0650   -0.0049   -0.0199    0.0171
           7    0.0934   -0.2341   -0.0380    0.0737   -0.0142   -0.0097    0.3067   -0.1205
           8    0.0243   -0.0755    0.0093    0.0160   -0.0268    0.0023    0.0541   -0.0409
           9   -0.3623   -0.1655    0.1034    0.0672    0.0653    0.0049   -0.0207   -0.0166
          10   -0.0250    0.2054    0.0585    0.0563    0.0740    0.0165   -0.0478    0.1892
          11   -0.0629    0.2260   -0.0167    0.0260    0.0384    0.0042    0.1742   -0.0976
          12    0.0496    0.1087   -0.1604   -0.2386   -0.1912   -0.0306    0.0220    0.0187
          13    0.0275   -0.0103   -0.0076    0.0567    0.1577   -0.3056   -0.0073    0.0081
          14   -0.0156    0.0053    0.0172   -0.0101   -0.0638    0.1838    0.0114   -0.0071
          15   -0.0234    0.0161    0.1349   -0.1489   -0.2488   -0.2004    0.0292   -0.0233
          16   -0.0268    0.0099    0.0188    0.0354   -0.1309    0.3083   -0.0138   -0.0100
          17    0.0167   -0.0068    0.0006   -0.0456    0.1092   -0.1794    0.0010    0.0038
          18    0.0234   -0.0158   -0.1346   -0.1488    0.2485    0.2004    0.0289    0.0234
          19    0.0974   -0.2906    0.0788   -0.1057    0.0510    0.0061   -0.1356   -0.2343
          20   -0.0562   -0.1391   -0.1689    0.1150   -0.1169   -0.0465   -0.0957   -0.1032
          21   -0.2116    0.0715   -0.3500    0.2746   -0.2211   -0.0747    0.0007    0.0067
          22   -0.0697    0.3652    0.0483   -0.0493    0.0721    0.0043   -0.0994   -0.1018
          23    0.0385   -0.1581   -0.0976    0.0736   -0.0710   -0.0087   -0.0014    0.0490
          24    0.0525    0.0101   -0.3414    0.2602   -0.1929   -0.0388   -0.0508   -0.0492
          25    0.0670   -0.3137   -0.1079   -0.0874   -0.0963   -0.0097   -0.0462    0.0918
          26   -0.0430    0.2449   -0.0026    0.0093    0.0302   -0.0002    0.0876   -0.0657
          27   -0.0524   -0.0104    0.3417    0.2605    0.1930    0.0388   -0.0507    0.0492
          28   -0.0953    0.0167   -0.1851   -0.1507   -0.1263   -0.0435    0.0194    0.0215
          29    0.0597   -0.3221   -0.0099    0.0392   -0.0101   -0.0165    0.1650   -0.2551
          30    0.2116   -0.0699    0.3507    0.2749    0.2215    0.0750    0.0000   -0.0055
          31    0.0421   -0.0936    0.0082   -0.0200   -0.0532    0.0001   -0.4488    0.5258
          32   -0.0431   -0.1451    0.0055   -0.0412   -0.0308   -0.0037   -0.3487    0.2771
          33   -0.5271   -0.0829    0.0375   -0.0266    0.0179   -0.0069    0.0296   -0.0115
          34   -0.0564   -0.0824    0.0008    0.0265   -0.0016   -0.0033    0.0915   -0.0084
          35    0.0189   -0.1512    0.0096    0.0370   -0.0616   -0.0017    0.5609    0.5943
          36    0.5272    0.0836   -0.0379   -0.0268   -0.0175    0.0069    0.0268    0.0086
          37    0.0303   -0.0253   -0.0429   -0.1175    0.1777   -0.2378    0.0198    0.0188
          38    0.0009    0.0156    0.1194    0.1462   -0.0914   -0.2836   -0.0140    0.0020
          39   -0.0190    0.0390    0.1929    0.2827   -0.2526   -0.1584   -0.0299   -0.0051
          40   -0.0094   -0.0014   -0.0567   -0.0564    0.0499    0.0577    0.0077    0.0074
          41   -0.0094   -0.0041    0.0607    0.0927   -0.1394    0.3955   -0.0134   -0.0083
          42    0.0373    0.0164    0.3040    0.3138   -0.3438   -0.0012   -0.0543   -0.0509
          43   -0.0137    0.0259    0.1250   -0.1837   -0.1646   -0.1347    0.0217   -0.0072
          44    0.0271   -0.0150    0.0184    0.0345    0.1135   -0.3437   -0.0112    0.0175
          45    0.0189   -0.0390   -0.1933    0.2831    0.2524    0.1605   -0.0297    0.0051
          46   -0.0039   -0.0029    0.0797   -0.1074   -0.1454    0.3196    0.0155   -0.0107
          47   -0.0129   -0.0034   -0.0222    0.0067   -0.0212    0.2400   -0.0006    0.0028
          48   -0.0372   -0.0162   -0.3039    0.3142    0.3443   -0.0009   -0.0541    0.0509


   Root No.      25        26        27        28        29        30        31        32

                12 A'     13 A'     14 A"     15 A"     14 A'     15 A'     16 A"     16 A'  

                1359.2    1361.4    1381.6    1384.9    1442.8    1503.9    1665.0    1666.6
  
           1   -0.0941    0.0392   -0.1754    0.0161    0.3788   -0.0717   -0.4381    0.2667
           2    0.0931   -0.0026    0.0197   -0.0048   -0.0404   -0.0978   -0.0178    0.0452
           3   -0.0103    0.0152   -0.0220   -0.0166    0.0552   -0.1125   -0.0208    0.0264
           4    0.0844   -0.0306   -0.1314    0.0247   -0.0467    0.2646    0.5240   -0.4145
           5   -0.2439    0.0435   -0.0380    0.0051    0.3222    0.2551    0.0083   -0.2568
           6    0.0267   -0.0086   -0.0114    0.0058   -0.0049    0.0038    0.0117    0.0024
           7    0.2547   -0.0527    0.0295   -0.0074   -0.3053   -0.0976   -0.2436    0.0271
           8    0.0423    0.0053   -0.1335    0.0241   -0.1132   -0.3534    0.4644    0.4876
           9    0.0258   -0.0082    0.0119   -0.0060   -0.0036    0.0053   -0.0134   -0.0004
          10   -0.1263    0.0221    0.1013   -0.0120    0.2168    0.0496    0.1942    0.0865
          11    0.0378   -0.0333   -0.1444    0.0120   -0.3130    0.1095   -0.3932   -0.2549
          12   -0.0100    0.0159    0.0225    0.0165    0.0558   -0.1142    0.0222    0.0268
          13   -0.0100   -0.0533   -0.0147   -0.1098   -0.0367    0.2044    0.0112    0.2183
          14    0.0020   -0.0859   -0.0090   -0.1963   -0.0906    0.4491    0.0081    0.3549
          15    0.0228    0.0060   -0.0016    0.0049   -0.0376    0.1053   -0.0181   -0.0215
          16   -0.0065    0.0496   -0.0008   -0.1197    0.0620   -0.2955    0.0017   -0.2068
          17    0.0083    0.0883   -0.0173   -0.1905    0.0755   -0.3944    0.0135   -0.3624
          18    0.0227    0.0052    0.0017   -0.0035   -0.0380    0.1086    0.0181   -0.0188
          19   -0.3665    0.0628    0.3286   -0.0287   -0.1540   -0.0411   -0.0182    0.0092
          20   -0.2301    0.0201    0.2703   -0.0130   -0.2078    0.0531    0.0696   -0.0546
          21    0.0214   -0.0262   -0.0368    0.0170   -0.0038    0.1188   -0.0003   -0.0262
          22   -0.2332    0.0451    0.3809   -0.0261   -0.2623   -0.0975   -0.0152    0.0446
          23    0.1213   -0.0233   -0.2399    0.0174    0.2070    0.0548   -0.0590    0.0068
          24   -0.1014   -0.0184    0.1241   -0.0077   -0.1022    0.0598    0.0201   -0.0031
          25   -0.2182    0.0425   -0.3934    0.0277   -0.3077   -0.0954   -0.0446    0.0148
          26    0.1460   -0.0287    0.2190   -0.0145    0.1308    0.0600   -0.0417   -0.0421
          27   -0.1014   -0.0181   -0.1241    0.0077   -0.1021    0.0592   -0.0198   -0.0032
          28    0.0268    0.0126    0.0801    0.0023    0.1086   -0.0665    0.0698    0.0518
          29    0.4321   -0.0647    0.4181   -0.0315    0.2346    0.0109    0.0173    0.0177
          30    0.0192   -0.0258    0.0345   -0.0168   -0.0053    0.1187    0.0000   -0.0266
          31    0.3413   -0.0638    0.1769   -0.0284   -0.1936   -0.0212   -0.0998   -0.0237
          32    0.1223   -0.0211    0.1183   -0.0190   -0.0348    0.0042   -0.1075   -0.0041
          33   -0.0049   -0.0023    0.0008    0.0002   -0.0218    0.0249    0.0168   -0.0184
          34    0.0560   -0.0120    0.0192   -0.0031   -0.0622   -0.0139   -0.0467   -0.0078
          35   -0.3585    0.0657    0.2120   -0.0340    0.1866    0.0174   -0.1391    0.0235
          36   -0.0033   -0.0024   -0.0019   -0.0001   -0.0226    0.0246   -0.0161   -0.0186
          37    0.0807    0.4024    0.0316    0.4188   -0.0442    0.1272   -0.0053    0.0448
          38    0.0362    0.2514    0.0131    0.1958    0.0122   -0.0606   -0.0031   -0.0298
          39    0.0053    0.1001    0.0062    0.1047    0.0210   -0.0463   -0.0052    0.0305
          40    0.0097    0.0302   -0.0012   -0.0176    0.0045   -0.0419    0.0039   -0.0521
          41    0.0697    0.4759    0.0469    0.4483   -0.0143    0.0320   -0.0147    0.0286
          42   -0.0547   -0.0998   -0.0080   -0.1368    0.0617   -0.1501   -0.0204   -0.0078
          43    0.0069   -0.0276   -0.0036   -0.0288   -0.0318    0.1137   -0.0001    0.0474
          44   -0.0883   -0.4735    0.0339    0.4608    0.0332   -0.0824   -0.0062   -0.0246
          45    0.0058    0.1027   -0.0064   -0.1069    0.0208   -0.0465    0.0053    0.0303
          46   -0.0565   -0.4034    0.0418    0.4024    0.0148   -0.0492   -0.0147   -0.0506
          47   -0.0421   -0.2548    0.0214    0.1998    0.0032    0.0206   -0.0035    0.0318
          48   -0.0543   -0.0973    0.0078    0.1347    0.0616   -0.1504    0.0205   -0.0079


   Root No.      33        34        35        36        37        38        39        40

                17 A"     17 A'     18 A"     18 A'     19 A"     19 A'     20 A"     20 A'  

                2692.5    2701.3    2702.6    2726.9    2756.9    2757.0    2761.5    2769.7
  
           1    0.0046   -0.0226    0.0199   -0.0008   -0.0268    0.0601   -0.1240    0.0301
           2   -0.0355    0.1812   -0.1782    0.0163   -0.0609    0.0399   -0.0243    0.0514
           3    0.0149   -0.0782    0.0756   -0.0068    0.0096    0.0078   -0.0280   -0.0085
           4   -0.0017    0.0204   -0.0162    0.0064    0.0633   -0.0176   -0.0269   -0.0883
           5    0.0033   -0.0133    0.0252   -0.0052   -0.1447    0.0365    0.0408    0.1303
           6   -0.0003   -0.0002   -0.0012    0.0001    0.0213   -0.0057   -0.0082   -0.0221
           7    0.0037    0.0214    0.0297    0.0076   -0.1579   -0.0381    0.0487   -0.1568
           8    0.0002   -0.0114   -0.0021   -0.0029   -0.0139   -0.0027   -0.0040    0.0152
           9    0.0002   -0.0002    0.0010   -0.0000   -0.0207   -0.0048    0.0080   -0.0218
          10   -0.0334   -0.1704   -0.1662   -0.0149   -0.0407   -0.0043    0.0380   -0.0310
          11   -0.0130   -0.0673   -0.0681   -0.0071   -0.0538   -0.0714   -0.1203   -0.0510
          12   -0.0147   -0.0775   -0.0747   -0.0069   -0.0091    0.0092    0.0285   -0.0082
          13    0.1548    0.0144   -0.0309   -0.1761   -0.0020    0.0188    0.0245   -0.0113
          14   -0.0801   -0.0131    0.0159    0.0816   -0.0007    0.1126    0.0618   -0.0472
          15    0.0818    0.0054   -0.0192   -0.0961   -0.0000    0.0257    0.0194   -0.0132
          16   -0.1446    0.0185    0.0290   -0.1561   -0.0010   -0.0903    0.0427    0.0361
          17    0.0971   -0.0065   -0.0195    0.1150   -0.0030   -0.0699    0.0509    0.0322
          18   -0.0818    0.0055    0.0194   -0.0962    0.0002    0.0258   -0.0197   -0.0135
          19   -0.0653    0.3158   -0.3018    0.0219    0.0005   -0.0733    0.2026   -0.0016
          20    0.0783   -0.3637    0.3527   -0.0233   -0.0195    0.1076   -0.2716    0.0188
          21   -0.0498    0.2470   -0.2376    0.0192    0.0084   -0.0656    0.1723   -0.0101
          22    0.0412   -0.2211    0.2217   -0.0241    0.1457   -0.1537    0.2328   -0.1171
          23    0.0547   -0.3028    0.3055   -0.0356    0.2198   -0.2387    0.3723   -0.1787
          24   -0.0086    0.0492   -0.0495    0.0061   -0.0397    0.0448   -0.0683    0.0317
          25    0.0283    0.1601    0.1622    0.0196    0.1252    0.1353    0.2155    0.1007
          26    0.0624    0.3394    0.3411    0.0383    0.2366    0.2463    0.3829    0.1885
          27    0.0082    0.0470    0.0473    0.0058    0.0388    0.0432    0.0658    0.0304
          28    0.1001    0.4713    0.4547    0.0309   -0.0191   -0.1292   -0.3359   -0.0174
          29   -0.0196   -0.1020   -0.0949   -0.0080   -0.0088    0.0129    0.0470   -0.0077
          30    0.0496    0.2462    0.2367    0.0191   -0.0093   -0.0651   -0.1715   -0.0101
          31    0.0118   -0.0661    0.0765   -0.0159   -0.3171    0.0735    0.0976    0.2988
          32   -0.0219    0.1206   -0.1364    0.0278    0.5369   -0.1267   -0.1608   -0.5088
          33    0.0035   -0.0180    0.0208   -0.0039   -0.0845    0.0199    0.0254    0.0795
          34   -0.0249   -0.1376   -0.1564   -0.0320    0.6253    0.1381   -0.1881    0.5900
          35   -0.0002    0.0004    0.0017    0.0007   -0.0211   -0.0040    0.0086   -0.0183
          36   -0.0035   -0.0177   -0.0204   -0.0038    0.0832    0.0186   -0.0250    0.0779
          37    0.1372   -0.0090   -0.0275    0.1488   -0.0039   -0.1251    0.0708    0.0568
          38   -0.4063    0.0303    0.0819   -0.4426    0.0093    0.2803   -0.1713   -0.1296
          39    0.2549   -0.0171   -0.0532    0.2745   -0.0065   -0.1849    0.1099    0.0864
          40    0.4346   -0.0527   -0.0868    0.3876    0.0095    0.4691   -0.2233   -0.1957
          41    0.0294   -0.0045   -0.0053    0.0345   -0.0002    0.0077   -0.0055   -0.0019
          42    0.0673   -0.0090   -0.0125    0.0601    0.0008    0.0855   -0.0420   -0.0348
          43   -0.4231   -0.0310    0.0853    0.4606    0.0059   -0.3065   -0.1845    0.1411
          44   -0.0753   -0.0066    0.0152    0.0826    0.0007   -0.0257   -0.0204    0.0126
          45   -0.2533   -0.0170    0.0529    0.2728    0.0040   -0.1837   -0.1092    0.0859
          46   -0.1824   -0.0214    0.0370    0.1554   -0.0019    0.2185    0.1021   -0.0922
          47    0.3953    0.0483   -0.0787   -0.3565    0.0028   -0.4151   -0.1983    0.1725
          48   -0.0687   -0.0092    0.0129    0.0614    0.0002    0.0871    0.0427   -0.0353


   Root No.      41        42

                21 A'     21 A"  

                2771.4    2775.3
  
           1    0.1208   -0.0649
           2    0.0190   -0.0074
           3    0.0250   -0.0066
           4    0.0558   -0.0156
           5   -0.0476    0.0241
           6    0.0109   -0.0035
           7    0.0686    0.0288
           8   -0.0260   -0.0022
           9    0.0108    0.0038
          10    0.0411    0.0248
          11   -0.1149   -0.0606
          12    0.0255    0.0068
          13   -0.0045   -0.0473
          14   -0.0489   -0.1266
          15   -0.0030   -0.0233
          16    0.0408   -0.0888
          17    0.0272   -0.1018
          18   -0.0032    0.0237
          19   -0.2096    0.1037
          20    0.2765   -0.1380
          21   -0.1780    0.0885
          22   -0.2305    0.1147
          23   -0.3688    0.1850
          24    0.0687   -0.0343
          25    0.2135    0.1076
          26    0.3793    0.1895
          27    0.0663    0.0330
          28   -0.3435   -0.1710
          29    0.0508    0.0245
          30   -0.1772   -0.0883
          31   -0.1361    0.0553
          32    0.2286   -0.0907
          33   -0.0362    0.0145
          34   -0.2659   -0.1061
          35    0.0100    0.0050
          36   -0.0355   -0.0140
          37    0.0460   -0.1343
          38   -0.0998    0.3206
          39    0.0671   -0.2053
          40   -0.2021    0.4565
          41   -0.0023    0.0100
          42   -0.0346    0.0822
          43    0.1097    0.3464
          44    0.0077    0.0367
          45    0.0667    0.2042
          46   -0.0948   -0.2101
          47    0.1782    0.4053
          48   -0.0352   -0.0837


          DESCRIPTION OF VIBRATIONS


 VIBRATION          1    1A'          ATOM PAIR      ENERGY CONTRIBUTION    RADIAL
 FREQUENCY          -846.38         C  2 -- C  3         +13.2% (-35.6%)    100.0%
 TRANSITION DIPOLE   0.7394         C  3 -- C  4         +10.3% (-31.4%)     29.8%
 TRAVEL (Ang.)       0.1827         C  1 -- C  2         +10.3% (-31.4%)     29.8%
 REDUCED MASS        2.3861         C  4 -- H 10          +9.3% (-29.9%)      0.4%
 EFFECTIVE MASS     10.3008
 FORCE CONSTANT     -1.0071

 VIBRATION          2    1A"          ATOM PAIR      ENERGY CONTRIBUTION    RADIAL
 FREQUENCY           150.74         C  5 -- C  6         +21.9% (442.7%)      0.0%
 TRANSITION DIPOLE   0.0629         C  4 -- C  5         +11.8% (324.6%)      1.5%
 TRAVEL (Ang.)       0.6447         C  1 -- C  6         +11.8% (324.6%)      1.3%
 REDUCED MASS        1.0763         C  5 -- H 16          +9.4% (289.4%)     97.6%
 EFFECTIVE MASS    148.8363
 FORCE CONSTANT      0.0144

 VIBRATION          3    2A"          ATOM PAIR      ENERGY CONTRIBUTION    RADIAL
 FREQUENCY           269.88         C  1 -- C  6         +12.2% (175.0%)     51.9%
 TRANSITION DIPOLE   0.1741         C  4 -- C  5         +12.2% (174.9%)     52.1%
 TRAVEL (Ang.)       0.3878         C  6 -- H 13         +11.3% (168.7%)     18.4%
 REDUCED MASS        1.6613         C  5 -- H 15         +11.3% (168.5%)     20.0%
 EFFECTIVE MASS     35.1751         C  6 -- H 14         +10.6% (163.1%)     34.7%
 FORCE CONSTANT      0.0713         C  5 -- H 16         +10.6% (163.1%)     32.7%

 VIBRATION          4    2A'          ATOM PAIR      ENERGY CONTRIBUTION    RADIAL
 FREQUENCY           270.89         C  1 -- C  6         +11.8% (148.0%)      0.1%
 TRANSITION DIPOLE   0.0867         C  4 -- C  5         +11.8% (148.0%)      0.2%
 TRAVEL (Ang.)       0.4892         C  1 -- C  2         +11.6% (146.7%)      0.0%
 REDUCED MASS        1.0401         C  3 -- C  4         +11.5% (146.4%)      0.0%
 EFFECTIVE MASS     37.2597
 FORCE CONSTANT      0.0450

 VIBRATION          5    3A'          ATOM PAIR      ENERGY CONTRIBUTION    RADIAL
 FREQUENCY           375.34         C  4 -- C  5         +11.9% (141.6%)      0.1%
 TRANSITION DIPOLE   0.1124         C  1 -- C  6         +11.9% (141.5%)      0.1%
 TRAVEL (Ang.)       0.3278         C  3 -- C  4         +11.7% (140.5%)      0.1%
 REDUCED MASS        1.6723         C  1 -- C  2         +11.7% (140.4%)      0.1%
 EFFECTIVE MASS     28.3610         C  4 -- H 10         +11.1% (136.7%)     51.9%
 FORCE CONSTANT      0.1388         C  1 -- H  7         +11.1% (136.6%)     52.3%

 VIBRATION          6    3A"          ATOM PAIR      ENERGY CONTRIBUTION    RADIAL
 FREQUENCY           406.78         C  2 -- C  3         +20.6% (103.5%)      0.0%
 TRANSITION DIPOLE   0.1367         C  1 -- C  2         +10.7% ( 74.6%)      0.0%
 TRAVEL (Ang.)       0.4331         C  3 -- C  4         +10.7% ( 74.5%)      0.0%
 REDUCED MASS        0.8836         C  5 -- C  6          +9.6% ( 70.5%)      0.0%
 EFFECTIVE MASS     16.1441
 FORCE CONSTANT      0.0861

 VIBRATION          7    4A"          ATOM PAIR      ENERGY CONTRIBUTION    RADIAL
 FREQUENCY           527.44         C  5 -- C  6         +34.9% (100.7%)      0.0%
 TRANSITION DIPOLE   0.3520         C  6 -- H 14          +7.7% ( 47.2%)      4.8%
 TRAVEL (Ang.)       0.2484         C  5 -- H 16          +7.6% ( 47.0%)      4.8%
 REDUCED MASS        2.0719         C  5 -- H 15          +7.3% ( 46.0%)      7.4%
 EFFECTIVE MASS     12.9613
 FORCE CONSTANT      0.3396

[...]
 TRANSITION DIPOLE   0.9118         C  6 -- H 14         +22.4% ( 46.7%)     96.5%
 TRAVEL (Ang.)       0.3850         C  5 -- H 15         +16.8% ( 40.4%)     94.1%
 REDUCED MASS        0.1639         C  6 -- H 13         +16.7% ( 40.4%)     93.2%
 EFFECTIVE MASS      1.2728
 FORCE CONSTANT      0.7437

           FORCE CONSTANT IN CARTESIAN COORDINATES (Millidynes/A)

    ATOM   CHEMICAL       X               Y               Z
   NUMBER   SYMBOL  FORCE CONSTANT  FORCE CONSTANT  FORCE CONSTANT

      1       C       11.133155        5.967216        2.117797
      2       C       11.546911        9.523382        2.561391
      3       C        9.429079       11.642989        2.559617
      4       C        6.379453       10.730212        2.108503
      5       C        6.227658        9.947502        2.522263
      6       C        7.756109        8.399386        2.541928
      7       H        1.850636        2.321880        1.273965
      8       H        1.811718        3.076092        0.553217
      9       H        1.479650        3.414144        0.547233
     10       H        3.314595        0.863872        1.268015
     11       H        1.782233        3.360829        0.453116
     12       H        4.202385        0.943557        0.450236
     13       H        0.994538        2.966666        1.476173
     14       H        4.089023        0.782302        0.640062
     15       H        3.168412        0.803400        1.465566
     16       H        1.408102        3.459640        0.643646
 *******************************************************************************
 ** Site#: 37037        For non-commercial use only           Version 21.158W **
 *******************************************************************************
 ** Cite this program as: MOPAC2016, Version: 21.158W, James J. P. Stewart,   **
 ** Stewart Computational Chemistry, web: HTTP://OpenMOPAC.net. Days left: 361**
 *******************************************************************************
 **                                                                           **
 **                                MOPAC2016                                  **
 **                                                                           **
 *******************************************************************************

                              PM7 CALCULATION RESULTS

 *******************************************************************************
 *  CALCULATION DONE:                                Fri Jun 11 08:40:06 2021  *
 *  IRC=N      - INTRINSIC REACTION COORDINATE  1 DEFINED
 *  OLDGEO     - PREVIOUS GEOMETRY TO BE USED
 *  T=         - A TIME OF 172800.0 SECONDS REQUESTED
 *  DUMP=N     - RESTART FILE WRITTEN EVERY 7200.0 SECONDS REQUESTED
 *  HTML       - WRITE HTML SCRIPT TO GENERATE ANIMATION USING JSMOL
 *             - TO DISPLAY IN PDB FORMAT, ADD "PDBOUT"
 *  X-PRIOR    - GEOMETRY CHANGES TAKE PRIORITY IN DRC
 *******************************************************************************
irc=1* html x-priority=0.2 oldgeo
 Diels-Alder addition: C2H4+C4H6 => Cyclohexene

   ATOM                 CHEMICAL                   X               Y               Z
  NUMBER                 SYMBOL               (ANGSTROMS)     (ANGSTROMS)     (ANGSTROMS)
 
     1       C(HETATM    1  C1  HET A   1)   -0.77683178  *  -1.18047305  *  -0.58945826  *
     2       C(HETATM    2  C2  HET A   1)    0.60150747  *  -1.17836696  *  -0.57895242  *
     3       C(HETATM    3  C3  HET A   1)    1.31778131  *   0.02933227  *  -0.58606641  *
     4       C(HETATM    4  C4  HET A   1)    0.66003659  *   1.24034697  *  -0.60779920  *
     5       C(HETATM    5  C5  HET A   1)   -0.43595160  *   1.06840566  *   1.20921753  *
     6       C(HETATM    6  C6  HET A   1)   -1.12993702  *  -0.12578496  *   1.22408329  *
     7       H(HETATM    7 1H1  HET A   1)   -1.35128543  *  -0.41636298  *  -1.09845850  *
     8       H(HETATM    8 2H1  HET A   1)   -1.33607714  *  -2.09013022  *  -0.42386375  *
     9       H(HETATM    9 1H4  HET A   1)    1.19183084  *   2.16829409  *  -0.45309833  *
    10       H(HETATM   10 2H4  HET A   1)   -0.28657320  *   1.37529279  *  -1.11626027  *
    11       H(HETATM   11  H2  HET A   1)    1.14751859  *  -2.10518953  *  -0.40797398  *
    12       H(HETATM   12  H3  HET A   1)    2.39361900  *  -0.00336697  *  -0.41811774  *
    13       H(HETATM   13 1H6  HET A   1)   -0.76676395  *  -0.97126160  *   1.79286856  *
    14       H(HETATM   14 2H6  HET A   1)   -2.19273364  *  -0.15737653  *   1.02743141  *
    15       H(HETATM   15 1H5  HET A   1)    0.48195041  *   1.18471662  *   1.76996986  *
    16       H(HETATM   16 2H5  HET A   1)   -0.93593354  *   2.00292512  *   0.99539172  *
 

 General Reference for PM7:
 "Optimization of Parameters for Semiempirical Methods VI: More Modifications to the 
 NDDO Approximations and Re-optimization of Parameters", J. J. P. Stewart, J. Mol. Mod., 1:32, 19 (2013)
 https://link.springer.com/article/10.1007/s00894-012-1667-x

           Empirical Formula: C6 H10  =    16 atoms



      MOLECULAR POINT GROUP   :   Cs  


      RHF CALCULATION, NO. OF DOUBLY OCCUPIED LEVELS = 17



          HEAT OF FORMATION =      60.228053 KCALS/MOLE


          GRADIENT NORM =   0.74932

          MOLECULAR WEIGHT =   82.14


          ESTIMATED TIME TO COMPLETE CALCULATION =        0.00 SECONDS

    FOR POINT-GROUP Cs   THERE ARE   2 UNIQUE SYMMETRY FUNCTIONS.

 STEP:   1 TIME =     0.01 SECS, INTEGRAL =      0.01 TIME LEFT: 172799.99
 STEP:   2 TIME =     0.01 SECS, INTEGRAL =      0.02 TIME LEFT: 172799.98
 STEP:   3 TIME =     0.00 SECS, INTEGRAL =      0.02 TIME LEFT: 172799.98
 STEP:   4 TIME =     0.01 SECS, INTEGRAL =      0.03 TIME LEFT: 172799.97
 STEP:   5 TIME =     0.01 SECS, INTEGRAL =      0.04 TIME LEFT: 172799.96
 STEP:   6 TIME =     0.01 SECS, INTEGRAL =      0.05 TIME LEFT: 172799.95
 STEP:   7                       INTEGRAL =      0.05 TIME LEFT: 172799.95
 STEP:   8                       INTEGRAL =      0.05 TIME LEFT: 172799.95
 STEP:   9                       INTEGRAL =      0.05 TIME LEFT: 172799.95
 STEP:  10                       INTEGRAL =      0.05 TIME LEFT: 172799.95
 STEP:  11                       INTEGRAL =      0.05 TIME LEFT: 172799.95
 STEP:  12                       INTEGRAL =      0.05 TIME LEFT: 172799.95
 STEP:  13 TIME =     0.01 SECS, INTEGRAL =      0.06 TIME LEFT: 172799.94
 STEP:  14 TIME =     0.00 SECS, INTEGRAL =      0.06 TIME LEFT: 172799.94
 STEP:  15 TIME =     0.01 SECS, INTEGRAL =      0.07 TIME LEFT: 172799.93
 STEP:  16                       INTEGRAL =      0.07 TIME LEFT: 172799.93
 STEP:  17                       INTEGRAL =      0.07 TIME LEFT: 172799.93
 STEP:  18                       INTEGRAL =      0.07 TIME LEFT: 172799.93
 STEP:  19 TIME =     0.01 SECS, INTEGRAL =      0.07 TIME LEFT: 172799.93
 STEP:  20 TIME =     0.01 SECS, INTEGRAL =      0.08 TIME LEFT: 172799.92
 STEP:  21 TIME =     0.01 SECS, INTEGRAL =      0.09 TIME LEFT: 172799.91
 STEP:  22 TIME =     0.01 SECS, INTEGRAL =      0.10 TIME LEFT: 172799.90
 STEP:  23 TIME =     0.01 SECS, INTEGRAL =      0.12 TIME LEFT: 172799.88
 STEP:  24 TIME =     0.01 SECS, INTEGRAL =      0.13 TIME LEFT: 172799.87
 STEP:  25                       INTEGRAL =      0.13 TIME LEFT: 172799.87
 STEP:  26                       INTEGRAL =      0.13 TIME LEFT: 172799.87
 STEP:  27                       INTEGRAL =      0.13 TIME LEFT: 172799.87
 STEP:  28                       INTEGRAL =      0.13 TIME LEFT: 172799.87
 STEP:  29                       INTEGRAL =      0.13 TIME LEFT: 172799.87
 STEP:  30                       INTEGRAL =      0.13 TIME LEFT: 172799.87
 STEP:  31 TIME =     0.01 SECS, INTEGRAL =      0.14 TIME LEFT: 172799.86
 STEP:  32 TIME =     0.01 SECS, INTEGRAL =      0.14 TIME LEFT: 172799.86
 STEP:  33 TIME =     0.01 SECS, INTEGRAL =      0.16 TIME LEFT: 172799.84
 STEP:  34                       INTEGRAL =      0.16 TIME LEFT: 172799.84
 STEP:  35                       INTEGRAL =      0.16 TIME LEFT: 172799.84
 STEP:  36                       INTEGRAL =      0.16 TIME LEFT: 172799.84
 STEP:  37 TIME =     0.01 SECS, INTEGRAL =      0.17 TIME LEFT: 172799.83
 STEP:  38 TIME =     0.01 SECS, INTEGRAL =      0.18 TIME LEFT: 172799.82
 STEP:  39 TIME =     0.00 SECS, INTEGRAL =      0.18 TIME LEFT: 172799.82
 STEP:  40 TIME =     0.00 SECS, INTEGRAL =      0.18 TIME LEFT: 172799.82
 STEP:  41 TIME =     0.01 SECS, INTEGRAL =      0.19 TIME LEFT: 172799.81
 STEP:  42 TIME =     0.01 SECS, INTEGRAL =      0.20 TIME LEFT: 172799.80
 STEP:  43                       INTEGRAL =      0.20 TIME LEFT: 172799.80
 STEP:  44                       INTEGRAL =      0.20 TIME LEFT: 172799.80
 STEP:  45                       INTEGRAL =      0.20 TIME LEFT: 172799.80
 STEP:  46                       INTEGRAL =      0.20 TIME LEFT: 172799.80
 STEP:  47                       INTEGRAL =      0.20 TIME LEFT: 172799.80
 STEP:  48                       INTEGRAL =      0.20 TIME LEFT: 172799.80
           INITIAL VELOCITY IN DRC (Angstroms/Femtosecond)
         0.02523        -0.05149        -0.08299
        -0.02396        -0.01782        -0.00303
         0.00421         0.02955        -0.00308
         0.05718         0.00214        -0.08295
        -0.05032        -0.00645         0.08720
        -0.01828         0.04761         0.08693
        -0.01395         0.01362         0.06650
         0.00047        -0.02777        -0.04340
         0.02466         0.01265        -0.04315
        -0.01826         0.00623         0.06669
         0.01343         0.01072         0.04734
        -0.00281        -0.01679         0.04762
         0.00917        -0.02222        -0.03923
         0.00853        -0.02476        -0.04403
         0.02374         0.00213        -0.03915
         0.02576         0.00408        -0.04396

 GEOMETRY PRIORITY, STEP = 0.2000 ANGSTROMS



     POINT   POTENTIAL  +  ENERGY LOST   =   TOTAL      ERROR    REF%   MOVEMENT
       1      60.22806      0.00000         60.22806   0.00000     1   %  0.0000
      30      59.70265      0.41683         60.11948  -0.04748     2   %  0.1992
      66      58.37770      1.73442         60.11212  -0.05484     3   %  0.3998
      81      56.57913      3.53084         60.10997  -0.05699     4   %  0.5971
     101      54.56124      5.55372         60.11496  -0.05200     5   %  0.7856
     127      52.75427      7.36579         60.12006  -0.04690     6   %  0.9444
     151      51.20367      8.92127         60.12494  -0.04201     7   %  1.0858
     174      49.87408     10.25543         60.12951  -0.03745     8   %  1.2299
     196      48.72670     11.40705         60.13376  -0.03320     9   %  1.3879
     216      47.73076     12.40696         60.13772  -0.02924    10   %  1.5572
     235      46.86237     13.27904         60.14141  -0.02555    11   %  1.7314
     252      46.10263     14.04221         60.14484  -0.02211    12   %  1.9072
     269      45.43619     14.71186         60.14805  -0.01891    13   %  2.0837
     284      44.85036     15.30067         60.15103  -0.01593    14   %  2.2607
     298      44.33444     15.81936         60.15380  -0.01316    15   %  2.4384
     311      43.87932     16.27705         60.15638  -0.01058    16   %  2.6169
     324      43.47717     16.68161         60.15877  -0.00818    17   %  2.7963
     334      43.12288     17.03809         60.16096  -0.00599    18   %  2.9756
     347      42.80593     17.35757         60.16350  -0.00346    19   %  3.1574
     361      42.53053     17.63610         60.16663  -0.00032    20   %  3.3360
     376      42.27642     17.89410         60.17052   0.00357    21   %  3.5227
     390      42.05650     18.11769         60.17419   0.00723    22   %  3.7050
     410      41.85938     18.32396         60.18335   0.01639    23   %  3.8898
     427      41.68395     18.50608         60.19003   0.02308    24   %  4.0750
     443      41.53005     18.66990         60.19995   0.03300    25   %  4.2573
     470      41.39638     18.82856         60.22493   0.05798    26   %  4.4364
     497      41.26231     18.98711         60.24941   0.08246    27   %  4.6357
     525      41.15329     19.15540         60.30869   0.14174    28   %  4.8218
     556      41.05295     19.30574         60.35869   0.19173    29   %  5.0119
     589      40.96811     19.43250         60.40061   0.23365    30   %  5.1972
     643      40.88336     19.59446         60.47783   0.31087    31   %  5.3918
     689      40.81083     19.74093         60.55176   0.38481    32   %  5.5835
     747      40.74580     19.90049         60.64630   0.47934    33   %  5.7743
     798      40.69087     20.02423         60.71510   0.54814    34   %  5.9553
     880      40.63441     20.18992         60.82433   0.65737    35   %  6.1543
     950      40.58656     20.39398         60.98054   0.81359    36   %  6.3424
    1030      40.54394     20.56080         61.10474   0.93779    37   %  6.5250
    1118      40.50508     20.75314         61.25822   1.09127    38   %  6.7047
    1209      40.47080     20.92406         61.39486   1.22791    39   %  6.8736
    1309      40.43968     21.10994         61.54962   1.38267    40   %  7.0347
    1404      40.41162     21.31224         61.72386   1.55691    41   %  7.1867
    1497      40.38758     21.49471         61.88229   1.71533    42   %  7.3292
    1603      40.36155     21.70378         62.06533   1.89837    43   %  7.4650
    1697      40.33983     21.85343         62.19326   2.02630    44   %  7.5873
    1802      40.31692     22.03210         62.34902   2.18207    45   %  7.7155
    1895      40.29560     22.21217         62.50777   2.34081    46   %  7.8338
    1984      40.27481     22.42705         62.70186   2.53490    47   %  7.9475
    2070      40.25416     22.58680         62.84096   2.67400    48   %  8.0579
    2140      40.23337     22.78928         63.02265   2.85570    49   %  8.1668
    2216      40.21232     22.95773         63.17005   3.00310    50   %  8.2729
    2281      40.19046     23.10038         63.29084   3.12388    51   %  8.3790
    2334      40.16936     23.28342         63.45278   3.28583    52   %  8.4774
    2403      40.14358     23.40973         63.55332   3.38636    53   %  8.5923
    2462      40.11817     23.49350         63.61166   3.44471    54   %  8.7014
    2520      40.09141     23.60261         63.69401   3.52706    55   %  8.8141
    2576      40.06345     23.69161         63.75505   3.58810    56   %  8.9296
    2632      40.03455     23.78497         63.81952   3.65257    57   %  9.0493
    2686      40.00510     23.88881         63.89390   3.72695    58   %  9.1734
    2734      39.97617     23.98446         63.96063   3.79368    59   %  9.2999
    2785      39.94609     24.05603         64.00212   3.83517    60   %  9.4387
    2835      39.91602     24.15723         64.07324   3.90629    61   %  9.5815
    2895      39.89341     24.27734         64.17076   4.00380    62   %  9.7227
    2964      39.86435     24.38840         64.25275   4.08579    63   %  9.8757
    3039      39.84267     24.50380         64.34647   4.17952    64   % 10.0241
    3126      39.81976     24.66954         64.48929   4.32234    65   % 10.1902
    3206      39.80067     24.81067         64.61134   4.44439    66   % 10.3472
    3312      39.78181     25.04928         64.83108   4.66413    67   % 10.5150
    3428      39.76599     25.25263         65.01862   4.85167    68   % 10.6840
    3552      39.75218     25.54082         65.29300   5.12604    69   % 10.8482
    3710      39.73512     25.80705         65.54218   5.37522    70   % 11.0181
    3877      39.72115     26.09772         65.81887   5.65192    71   % 11.1881
    4072      39.70773     26.39997         66.10770   5.94075    72   % 11.3567
    4282      39.69456     26.76387         66.45843   6.29148    73   % 11.5251
    4520      39.68201     27.14046         66.82247   6.65552    74   % 11.6901
    4772      39.68998     27.56659         67.25657   7.08962    75   % 11.8512

           NUMBER OF CYCLES EXCEEDED, RESTART FILE WRITTEN
           Number of cycles allowed in this run =   5000
           To increase the number of cycles, use keyword "CYCLES=n",
           where "n" is the number of cycles you want to run
           INITIAL VELOCITY IN DRC (Angstroms/Femtosecond)
        -0.02523         0.05149         0.08299
         0.02396         0.01782         0.00303
        -0.00421        -0.02955         0.00308
        -0.05718        -0.00214         0.08295
         0.05032         0.00645        -0.08720
         0.01828        -0.04761        -0.08693
         0.01395        -0.01362        -0.06650
        -0.00047         0.02777         0.04340
        -0.02466        -0.01265         0.04315
         0.01826        -0.00623        -0.06669
        -0.01343        -0.01072        -0.04734
         0.00281         0.01679        -0.04762
        -0.00917         0.02222         0.03923
        -0.00853         0.02476         0.04403
        -0.02374        -0.00213         0.03915
        -0.02576        -0.00408         0.04396

 GEOMETRY PRIORITY, STEP = 0.2000 ANGSTROMS



     POINT   POTENTIAL  +  ENERGY LOST   =   TOTAL      ERROR    REF%   MOVEMENT
       1      60.22805      0.00000         60.22805   0.00000     1   %  0.0000
      38      59.55769      0.55026         60.10795  -0.05862     2   %  0.1984
     110      57.44527      2.64545         60.09072  -0.07585     3   %  0.3985
     173      53.99125      6.08560         60.07685  -0.08972     4   %  0.5983
     224      49.55581     10.51114         60.06695  -0.09962     5   %  0.7959
     253      44.60797     15.45368         60.06164  -0.10492     6   %  0.9863
     266      38.63419     21.42556         60.05975  -0.10682     7   %  1.1958
     277      32.71417     27.34823         60.06240  -0.10417     8   %  1.3915
     297      26.70245     33.36399         60.06644  -0.10012     9   %  1.5840
     324      20.82417     39.24771         60.07188  -0.09469    10   %  1.7721
     357      15.32094     44.75766         60.07861  -0.08796    11   %  1.9547
     396      10.44768     49.63882         60.08650  -0.08007    12   %  2.1319
     441       6.44710     53.64824         60.09534  -0.07122    13   %  2.3045
     488       3.51253     56.59221         60.10474  -0.06183    14   %  2.4736
     534       1.71196     58.40190         60.11386  -0.05271    15   %  2.6400
     573       0.86079     59.26043         60.12122  -0.04535    16   %  2.8010
     595       0.49365     59.63171         60.12536  -0.04121    17   %  2.9439
     608       0.24719     59.88042         60.12761  -0.03895    18   %  3.0627
     618       0.04242     60.08718         60.12960  -0.03697    19   %  3.1760
     628      -0.12784     60.25934         60.13150  -0.03507    20   %  3.2945
     638      -0.26700     60.40034         60.13334  -0.03322    21   %  3.4201
     651      -0.37798     60.51439         60.13641  -0.03015    22   %  3.5527
     666      -0.46317     60.60356         60.14038  -0.02618    23   %  3.6916
     690      -0.52486     60.67846         60.15360  -0.01297    24   %  3.8368
     722      -0.56462     60.74920         60.18459   0.01802    25   %  3.9861
     800      -0.58381     60.90324         60.31943   0.15286    26   %  4.1385


 IRC CALCULATION COMPLETE 

 **********************
 *                    *
 * JOB ENDED NORMALLY *
 *                    *
 **********************



 TOTAL JOB TIME:            20.96 SECONDS

 == MOPAC DONE ==
