 *******************************************************************************
 ** Site#: 37037        For non-commercial use only           Version 21.158W **
 *******************************************************************************
 ** Cite this program as: MOPAC2016, Version: 21.158W, James J. P. Stewart,   **
 ** Stewart Computational Chemistry, web: HTTP://OpenMOPAC.net. Days left: 363**
 *******************************************************************************
 **                                                                           **
 **                                MOPAC2016                                  **
 **                                                                           **
 *******************************************************************************

                              PM7 CALCULATION RESULTS

 *******************************************************************************
 *  CALCULATION DONE:                                Wed Jun  9 12:22:49 2021  *
 *  SYMMETRY   - SYMMETRY CONDITIONS TO BE IMPOSED
 *
 *
 *
 *                 CHARGE ON SYSTEM = +1
 *
 *
 *
 *  EPS=78.4   - USE ANDREAS KLAMT'S COSMO IMPLICIT SOLVATION MODEL
 *  T=         - A TIME OF 172800.0 SECONDS REQUESTED
 *  DUMP=N     - RESTART FILE WRITTEN EVERY 7200.0 SECONDS REQUESTED
 *******************************************************************************



                    PARAMETER DEPENDENCE DATA

        REFERENCE ATOM      FUNCTION NO.    DEPENDENT ATOM(S)
            2                  1               3

             DESCRIPTIONS OF THE FUNCTIONS USED
   1      BOND LENGTH    IS SET EQUAL TO THE REFERENCE BOND LENGTH   
 
eps=78.4 charge=1 symmetry
 NH2Cl + pyridinium => [H3NCl](+) + pyridine
 Locate approximate transition state
  ATOM               CHEMICAL                 BOND LENGTH      BOND ANGLE     TWIST ANGLE 
 NUMBER               SYMBOL                  (ANGSTROMS)      (DEGREES)       (DEGREES) 
   (I)                                           NA:I           NB:NA:I       NC:NB:NA:I       NA    NB    NC 
     1       H(HETATM    1  H   NH3 A   1)    0.00000000       0.0000000       0.0000000   
     2       N(HETATM    2  N   NH3 A   1)    1.53021664  *    0.0000000       0.0000000        1     0     0
     3       N(HETATM    3  N   HET B   2)    1.53021664     170.8150733  *    0.0000000  *     1     2     0
     4       C(HETATM    4  C1  HET B   2)    1.34867757  *  120.8712311  *  -67.3314371  *     3     1     2
     5       C(HETATM    5  C2  HET B   2)    1.39896614  *  122.2159299  * -179.5911570  *     4     3     1
     6       H(HETATM    6  H1  HET D   2)    2.16131745  *  144.8658267  *    0.0297940  *     5     4     3
     7       H(HETATM    7  H2  HET D   2)    2.52532252  *   92.8670033  *   -0.0311131  *     6     5     4
     8       H(HETATM    8  H3  HET D   2)    2.08064765  *   92.0496122  * -179.7702260  *     3     1     4
     9       H(HETATM    9  H1  HET B   2)    1.09854715  *  116.0733742  *  179.9825979  *     4     3     5
    10       H(HETATM   10  H2  HET B   2)    1.09027905  *  120.1247618  *  179.9517225  *     5     4     6
    11       H(HETATM   11 1H   NH3 A   1)    1.03548004  *  110.8403654  *  171.1141560  *     2     1     3
    12       H(HETATM   12 2H   NH3 A   1)    1.03276503  *  111.9945247  * -123.5983927  *     2     1    11
    13      Cl(HETATM   13 3CL  NH3 A   1)    1.76388397  *  107.2436362  * -118.2394970  *     2     1    12
    14       C(HETATM   14  C1  HET D   2)    1.09551518  *   33.9408989  *   -0.0165590  *     6     5     7
    15       C(HETATM   15  C2  HET D   2)    1.09076974  *   58.7330587  *   -0.0161819  *     7     6     5
    16       C(HETATM   16  C3  HET D   2)    1.09871803  *   35.5952874  *  179.7028079  *     8     3     1
 

 General Reference for PM7:
 "Optimization of Parameters for Semiempirical Methods VI: More Modifications to the 
 NDDO Approximations and Re-optimization of Parameters", J. J. P. Stewart, J. Mol. Mod., 1:32, 19 (2013)
 https://link.springer.com/article/10.1007/s00894-012-1667-x

           Empirical Formula: C5 H8 N2 Cl  =    16 atoms



      MOLECULAR POINT GROUP   :   C1  


      RHF CALCULATION, NO. OF DOUBLY OCCUPIED LEVELS = 22


          Geometry optimization using EF

          DIAGONAL MATRIX USED AS START HESSIAN

 CYCLE:     1 TIME:   0.031 TIME LEFT:  2.00D  GRAD.:   106.678 HEAT:  156.1167
 CYCLE:     2 TIME:   0.031 TIME LEFT:  2.00D  GRAD.:   593.409 HEAT:  153.7984
 CYCLE:     3 TIME:   0.047 TIME LEFT:  2.00D  GRAD.:   410.549 HEAT:  146.8827
 CYCLE:     4 TIME:   0.047 TIME LEFT:  2.00D  GRAD.:   190.337 HEAT:  141.0407
 CYCLE:     5 TIME:   0.062 TIME LEFT:  2.00D  GRAD.:   171.953 HEAT:  140.1988
 CYCLE:     6 TIME:   0.016 TIME LEFT:  2.00D  GRAD.:    41.173 HEAT:  139.6006
 CYCLE:     7 TIME:   0.047 TIME LEFT:  2.00D  GRAD.:    32.292 HEAT:  139.4302
 CYCLE:     8 TIME:   0.031 TIME LEFT:  2.00D  GRAD.:    15.400 HEAT:  139.3256
 CYCLE:     9 TIME:   0.109 TIME LEFT:  2.00D  GRAD.:     6.779 HEAT:  139.3143
 CYCLE:    10 TIME:   0.047 TIME LEFT:  2.00D  GRAD.:     5.387 HEAT:  139.3060
 CYCLE:    11 TIME:   0.078 TIME LEFT:  2.00D  GRAD.:     5.132 HEAT:  139.3055

     TRUST RADIUS NOW LESS THAN  0.00010 OPTIMIZATION TERMINATING
      THE GEOMETRY MAY NOT BE COMPLETELY OPTIMIZED
      (TO CONTINUE, ADD 'LET DDMIN=0.0' TO THE KEYWORD LINE)

 -------------------------------------------------------------------------------
 eps=78.4 charge=1 symmetry
 NH2Cl + pyridinium => [H3NCl](+) + pyridine
 Locate approximate transition state


     GEOMETRY OPTIMISED USING EIGENVECTOR FOLLOWING (EF).     
     SCF FIELD WAS ACHIEVED                                   


                              PM7 CALCULATION
                                                       MOPAC2016 (Version: 21.158W)
                                                       Wed Jun  9 12:22:50 2021
                                                       No. of days remaining = 363




          FINAL HEAT OF FORMATION =        139.30550 KCAL/MOL =     582.85422 KJ/MOL
          VAN DER WAALS AREA      =        167.92 SQUARE ANGSTROMS


          TOTAL ENERGY            =      -1355.49653 EV
          ELECTRONIC ENERGY       =      -1580.05781 EV  POINT GROUP:     C1  
          CORE-CORE REPULSION     =        224.56128 EV

          DIELECTRIC ENERGY       =         -2.41424 EV
          COSMO AREA              =        167.92 SQUARE ANGSTROMS
          COSMO VOLUME            =        159.62 CUBIC ANGSTROMS

          GRADIENT NORM           =          5.13170 = 1.28293 PER ATOM
          IONIZATION POTENTIAL    =         10.767451 EV
          HOMO LUMO ENERGIES (EV) =        -10.767 -1.061
          NO. OF FILLED LEVELS    =         22
          MOLECULAR WEIGHT        =        131.5846

          MOLECULAR DIMENSIONS (Angstroms)

            Atom       Atom       Distance
           Cl    13    H     6     7.13735
            H     9    H     7     4.62818
            H    10    H    11     1.91893


          SCF CALCULATIONS        =         27
 
          WALL-CLOCK TIME         =          0.625 SECONDS
          COMPUTATION TIME        =          2.109 SECONDS



       FINAL  POINT  AND  DERIVATIVES

   PARAMETER     ATOM    TYPE            VALUE        GRADIENT
      1          2  N    BOND            1.310157     -2.569850  KCAL/ANGSTROM
      2          3  N    ANGLE         171.119397     -2.301629  KCAL/RADIAN  
      3          3  N    DIHEDRAL       -0.000000      0.000000  KCAL/RADIAN  
      4          4  C    BOND            1.353808      0.047882  KCAL/ANGSTROM
      5          4  C    ANGLE         120.229396      0.366565  KCAL/RADIAN  
      6          4  C    DIHEDRAL      -67.418738      0.176113  KCAL/RADIAN  
      7          5  C    BOND            1.396051      0.574930  KCAL/ANGSTROM
      8          5  C    ANGLE         121.180063     -0.143049  KCAL/RADIAN  
      9          5  C    DIHEDRAL     -179.683652     -0.576549  KCAL/RADIAN  
     10          6  H    BOND            2.163685     -0.117759  KCAL/ANGSTROM
     11          6  H    ANGLE         145.144512     -0.299894  KCAL/RADIAN  
     12          6  H    DIHEDRAL       -0.001131     -0.819949  KCAL/RADIAN  
     13          7  H    BOND            2.521594      0.961960  KCAL/ANGSTROM
     14          7  H    ANGLE          93.041630     -0.463579  KCAL/RADIAN  
     15          7  H    DIHEDRAL       -0.045374     -0.821858  KCAL/RADIAN  
     16          8  H    BOND            2.090306     -1.605874  KCAL/ANGSTROM
     17          8  H    ANGLE          91.638077     -0.330034  KCAL/RADIAN  
     18          8  H    DIHEDRAL     -179.694999      0.472534  KCAL/RADIAN  
     19          9  H    BOND            1.102301      0.318380  KCAL/ANGSTROM
     20          9  H    ANGLE         116.644944     -0.829150  KCAL/RADIAN  
     21          9  H    DIHEDRAL      179.939696      0.013724  KCAL/RADIAN  
     22         10  H    BOND            1.092499     -0.296328  KCAL/ANGSTROM
     23         10  H    ANGLE         120.092233      0.521666  KCAL/RADIAN  
     24         10  H    DIHEDRAL      179.941927      0.024518  KCAL/RADIAN  
     25         11  H    BOND            1.025991     -0.790019  KCAL/ANGSTROM
     26         11  H    ANGLE         111.394908     -1.256762  KCAL/RADIAN  
     27         11  H    DIHEDRAL      171.467604     -0.420971  KCAL/RADIAN  
     28         12  H    BOND            1.024186     -0.711175  KCAL/ANGSTROM
     29         12  H    ANGLE         112.580733     -1.224495  KCAL/RADIAN  
     30         12  H    DIHEDRAL     -123.848850      0.044088  KCAL/RADIAN  
     31         13 Cl    BOND            1.750294     -1.074081  KCAL/ANGSTROM
     32         13 Cl    ANGLE         107.433540     -0.585946  KCAL/RADIAN  
     33         13 Cl    DIHEDRAL     -118.188181      0.139784  KCAL/RADIAN  
     34         14  C    BOND            1.095943     -0.525612  KCAL/ANGSTROM
     35         14  C    ANGLE          33.872531     -0.473147  KCAL/RADIAN  
     36         14  C    DIHEDRAL       -0.021496      0.092169  KCAL/RADIAN  
     37         15  C    BOND            1.093543      0.051856  KCAL/ANGSTROM
     38         15  C    ANGLE          58.892113      0.007788  KCAL/RADIAN  
     39         15  C    DIHEDRAL       -0.017247     -0.505713  KCAL/RADIAN  
     40         16  C    BOND            1.099528      0.150951  KCAL/ANGSTROM
     41         16  C    ANGLE          35.387573     -0.015700  KCAL/RADIAN  
     42         16  C    DIHEDRAL      179.754025     -0.484351  KCAL/RADIAN  




  ATOM               CHEMICAL                 BOND LENGTH      BOND ANGLE     TWIST ANGLE 
 NUMBER               SYMBOL                  (ANGSTROMS)      (DEGREES)       (DEGREES) 
   (I)                                           NA:I           NB:NA:I       NC:NB:NA:I       NA    NB    NC 
     1       H(HETATM    1  H   NH3 A   1)    0.00000000       0.0000000       0.0000000   
     2       N(HETATM    2  N   NH3 A   1)    1.31015668  *    0.0000000       0.0000000        1     0     0
     3       N(HETATM    3  N   HET B   2)    1.31015668     171.1193967  *   -0.0000000  *     1     2     0
     4       C(HETATM    4  C1  HET B   2)    1.35380766  *  120.2293958  *  -67.4187381  *     3     1     2
     5       C(HETATM    5  C2  HET B   2)    1.39605096  *  121.1800630  * -179.6836518  *     4     3     1
     6       H(HETATM    6  H1  HET D   2)    2.16368465  *  145.1445121  *   -0.0011310  *     5     4     3
     7       H(HETATM    7  H2  HET D   2)    2.52159371  *   93.0416298  *   -0.0453744  *     6     5     4
     8       H(HETATM    8  H3  HET D   2)    2.09030646  *   91.6380774  * -179.6949990  *     3     1     4
     9       H(HETATM    9  H1  HET B   2)    1.10230100  *  116.6449438  *  179.9396961  *     4     3     5
    10       H(HETATM   10  H2  HET B   2)    1.09249876  *  120.0922326  *  179.9419270  *     5     4     6
    11       H(HETATM   11 1H   NH3 A   1)    1.02599093  *  111.3949080  *  171.4676037  *     2     1     3
    12       H(HETATM   12 2H   NH3 A   1)    1.02418617  *  112.5807326  * -123.8488502  *     2     1    11
    13      Cl(HETATM   13 3CL  NH3 A   1)    1.75029410  *  107.4335404  * -118.1881809  *     2     1    12
    14       C(HETATM   14  C1  HET D   2)    1.09594267  *   33.8725309  *   -0.0214959  *     6     5     7
    15       C(HETATM   15  C2  HET D   2)    1.09354344  *   58.8921132  *   -0.0172472  *     7     6     5
    16       C(HETATM   16  C3  HET D   2)    1.09952818  *   35.3875731  *  179.7540251  *     8     3     1

                             CARTESIAN COORDINATES

   1    H        0.000000000     0.000000000     0.000000000
   2    N        1.310156675     0.000000000     0.000000000
   3    N       -1.294450759     0.202256638     0.000000000
   4    C       -1.898532663     0.751255407     1.080037305
   5    C       -3.277209006     0.969515117     1.103964882
   6    H       -5.124678024     0.777989670    -0.005858310
   7    H       -3.974642732    -0.240904230    -2.005285446
   8    H       -1.478932848    -0.591372050    -1.924967787
   9    H       -1.248029158     1.012511522     1.930718160
  10    H       -3.746398064     1.412876302     1.985353573
  11    H        1.684432048    -0.944715081     0.141734755
  12    H        1.703428641     0.637439900     0.698544801
  13   Cl        1.834543639     0.555514432    -1.574786163
  14    C       -4.041006275     0.614457043    -0.007578081
  15    C       -3.409007432     0.050535773    -1.115927984
  16    C       -2.027962225    -0.148275094    -1.081644575


           Empirical Formula: C5 H8 N2 Cl  =    16 atoms



      MOLECULAR POINT GROUP   :   C1  


                  EIGENVALUES  
 -37.82790 -36.18023 -29.24212 -27.08780 -25.26596 -22.97214 -22.67177 -19.58693
 -17.93638 -17.18185 -16.97724 -16.42313 -15.81418 -15.30789 -15.16489 -14.00438
 -13.11914 -12.26021 -11.79225 -11.56474 -11.24561 -10.76745  -1.06064  -0.90205
  -0.71305   1.63931   2.03045   3.49474   3.63511   3.98209   4.07194   4.52748
   4.56077   4.91438   5.19558   5.36474   5.50542   5.51367   5.65659   5.71501
  67.26558  67.37511  67.48065  68.12749  68.13606


              NET ATOMIC CHARGES AND DIPOLE CONTRIBUTIONS

  ATOM NO.                 TYPE                        CHARGE      No. of ELECS.   s-Pop       p-Pop       d-Pop       
    1          H(HETATM    1  H   NH3 A   1)           0.418819        0.5812     0.58118
    2          N(HETATM    2  N   NH3 A   1)          -0.435068        5.4351     1.61572     3.81935
    3          N(HETATM    3  N   HET B   2)          -0.364554        5.3646     1.63105     3.73350
    4          C(HETATM    4  C1  HET B   2)           0.064972        3.9350     1.10462     2.83041
    5          C(HETATM    5  C2  HET B   2)          -0.212833        4.2128     1.09226     3.12058
    6          H(HETATM    6  H1  HET D   2)           0.189931        0.8101     0.81007
    7          H(HETATM    7  H2  HET D   2)           0.197815        0.8022     0.80218
    8          H(HETATM    8  H3  HET D   2)           0.202180        0.7978     0.79782
    9          H(HETATM    9  H1  HET B   2)           0.205550        0.7945     0.79445
   10          H(HETATM   10  H2  HET B   2)           0.197931        0.8021     0.80207
   11          H(HETATM   11 1H   NH3 A   1)           0.329788        0.6702     0.67021
   12          H(HETATM   12 2H   NH3 A   1)           0.327702        0.6723     0.67230
   13         Cl(HETATM   13 3CL  NH3 A   1)           0.072373        6.9276     1.98406     4.93373     0.00984
   14          C(HETATM   14  C1  HET D   2)          -0.040637        4.0406     1.09937     2.94127
   15          C(HETATM   15  C2  HET D   2)          -0.213913        4.2139     1.09208     3.12183
   16          C(HETATM   16  C3  HET D   2)           0.059944        3.9401     1.10312     2.83693

          NET CHARGE ON RESIDUES

      Residue         Charge  Anion or
                              Cation?
      NH3 A   1       +0.714  CATION
      HET B   2       -0.109
      HET D   2       +0.395
 


 DIPOLE           X         Y         Z       TOTAL
 POINT-CHG.     1.790    -1.255     2.852     3.594
 HYBRID         0.429    -0.159     0.411     0.615
 SUM            2.220    -1.414     3.263     4.192


          ATOMIC ORBITAL ELECTRON POPULATIONS

                   Atom                  s        px        py        pz      x^2-y^2     xz        z^2       yz        xy
   H(HETATM    1  H   NH3 A   1)   0.58118
   N(HETATM    2  N   NH3 A   1)   1.61572   1.45635   1.26235   1.10064
   N(HETATM    3  N   HET B   2)   1.63105   1.35238   1.25566   1.12546
   C(HETATM    4  C1  HET B   2)   1.10462   0.99943   0.89112   0.93987
   C(HETATM    5  C2  HET B   2)   1.09226   1.00017   1.04041   1.08000
   H(HETATM    6  H1  HET D   2)   0.81007
   H(HETATM    7  H2  HET D   2)   0.80218
   H(HETATM    8  H3  HET D   2)   0.79782
   H(HETATM    9  H1  HET B   2)   0.79445
   H(HETATM   10  H2  HET B   2)   0.80207
   H(HETATM   11 1H   NH3 A   1)   0.67021
   H(HETATM   12 2H   NH3 A   1)   0.67230
  Cl(HETATM   13 3CL  NH3 A   1)   1.98406   1.91313   1.89054   1.13006   0.00072   0.00254   0.00372   0.00243   0.00044
   C(HETATM   14  C1  HET D   2)   1.09937   1.09412   0.89204   0.95511
   C(HETATM   15  C2  HET D   2)   1.09208   1.01138   1.03005   1.08040
   C(HETATM   16  C3  HET D   2)   1.10312   0.97544   0.92079   0.94071
 *******************************************************************************
 ** Site#: 37037        For non-commercial use only           Version 21.158W **
 *******************************************************************************
 ** Cite this program as: MOPAC2016, Version: 21.158W, James J. P. Stewart,   **
 ** Stewart Computational Chemistry, web: HTTP://OpenMOPAC.net. Days left: 363**
 *******************************************************************************
 **                                                                           **
 **                                MOPAC2016                                  **
 **                                                                           **
 *******************************************************************************

                              PM7 CALCULATION RESULTS

 *******************************************************************************
 *  CALCULATION DONE:                                Wed Jun  9 12:22:50 2021  *
 *  OPT        - OPTIMIZE COORDINATES OF ALL ATOMS
 *
 *
 *
 *                 CHARGE ON SYSTEM = +1
 *
 *
 *
 *  EPS=78.4   - USE ANDREAS KLAMT'S COSMO IMPLICIT SOLVATION MODEL
 *  OLDGEO     - PREVIOUS GEOMETRY TO BE USED
 *  TS         - USE EF ROUTINE FOR TS SEARCH
 *  T=         - A TIME OF 172800.0 SECONDS REQUESTED
 *  DUMP=N     - RESTART FILE WRITTEN EVERY 7200.0 SECONDS REQUESTED
 *******************************************************************************
oldgeo opt eps=78.4 charge=1 ts
 NH2Cl + pyridinium => [H3NCl](+) + pyridine
 Refine transition state
  ATOM               CHEMICAL                 BOND LENGTH      BOND ANGLE     TWIST ANGLE 
 NUMBER               SYMBOL                  (ANGSTROMS)      (DEGREES)       (DEGREES) 
   (I)                                           NA:I           NB:NA:I       NC:NB:NA:I       NA    NB    NC 
     1       H(HETATM    1  H   NH3 A   1)    0.00000000       0.0000000       0.0000000   
     2       N(HETATM    2  N   NH3 A   1)    1.31015668  *    0.0000000       0.0000000        1     0     0
     3       N(HETATM    3  N   HET B   2)    1.31015668  *  171.1193967  *   -0.0000000  *     1     2     0
     4       C(HETATM    4  C1  HET B   2)    1.35380766  *  120.2293958  *  -67.4187381  *     3     1     2
     5       C(HETATM    5  C2  HET B   2)    1.39605096  *  121.1800630  * -179.6836518  *     4     3     1
     6       H(HETATM    6  H1  HET D   2)    2.16368465  *  145.1445121  *   -0.0011310  *     5     4     3
     7       H(HETATM    7  H2  HET D   2)    2.52159371  *   93.0416298  *   -0.0453744  *     6     5     4
     8       H(HETATM    8  H3  HET D   2)    2.09030646  *   91.6380774  * -179.6949990  *     3     1     4
     9       H(HETATM    9  H1  HET B   2)    1.10230100  *  116.6449438  *  179.9396961  *     4     3     5
    10       H(HETATM   10  H2  HET B   2)    1.09249876  *  120.0922326  *  179.9419270  *     5     4     6
    11       H(HETATM   11 1H   NH3 A   1)    1.02599093  *  111.3949080  *  171.4676037  *     2     1     3
    12       H(HETATM   12 2H   NH3 A   1)    1.02418617  *  112.5807326  * -123.8488502  *     2     1    11
    13      Cl(HETATM   13 3CL  NH3 A   1)    1.75029410  *  107.4335404  * -118.1881809  *     2     1    12
    14       C(HETATM   14  C1  HET D   2)    1.09594267  *   33.8725309  *   -0.0214959  *     6     5     7
    15       C(HETATM   15  C2  HET D   2)    1.09354344  *   58.8921132  *   -0.0172472  *     7     6     5
    16       C(HETATM   16  C3  HET D   2)    1.09952818  *   35.3875731  *  179.7540251  *     8     3     1
 

 General Reference for PM7:
 "Optimization of Parameters for Semiempirical Methods VI: More Modifications to the 
 NDDO Approximations and Re-optimization of Parameters", J. J. P. Stewart, J. Mol. Mod., 1:32, 19 (2013)
 https://link.springer.com/article/10.1007/s00894-012-1667-x

           Empirical Formula: C5 H8 N2 Cl  =    16 atoms



      MOLECULAR POINT GROUP   :   C1  


      RHF CALCULATION, NO. OF DOUBLY OCCUPIED LEVELS = 22


          Transition state refinement using EF

          HESSIAN CALCULATED NUMERICALLY

 CYCLE:     1 TIME:   1.016 TIME LEFT:  2.00D  GRAD.:     4.798 HEAT:  139.3055
 CYCLE:     2 TIME:   0.031 TIME LEFT:  2.00D  GRAD.:     3.623 HEAT:  139.1746
 CYCLE:     3 TIME:   0.031 TIME LEFT:  2.00D  GRAD.:     4.776 HEAT:  139.1376
 CYCLE:     4 TIME:   0.109 TIME LEFT:  2.00D  GRAD.:     3.304 HEAT:  139.1468
 CYCLE:     5 TIME:   0.094 TIME LEFT:  2.00D  GRAD.:     2.879 HEAT:  139.1400
 CYCLE:     6 TIME:   0.078 TIME LEFT:  2.00D  GRAD.:     2.701 HEAT:  139.1434

     TRUST RADIUS NOW LESS THAN  0.00010 OPTIMIZATION TERMINATING
      THE GEOMETRY MAY NOT BE COMPLETELY OPTIMIZED
      (TO CONTINUE, ADD 'LET DDMIN=0.0' TO THE KEYWORD LINE)

 -------------------------------------------------------------------------------
 opt eps=78.4 charge=1 ts
 NH2Cl + pyridinium => [H3NCl](+) + pyridine
 Refine transition state


     GEOMETRY OPTIMISED USING EIGENVECTOR FOLLOWING (TS).     
     SCF FIELD WAS ACHIEVED                                   


                              PM7 CALCULATION
                                                       MOPAC2016 (Version: 21.158W)
                                                       Wed Jun  9 12:22:52 2021
                                                       No. of days remaining = 363




          FINAL HEAT OF FORMATION =        139.14341 KCAL/MOL =     582.17601 KJ/MOL
          VAN DER WAALS AREA      =        168.42 SQUARE ANGSTROMS


          TOTAL ENERGY            =      -1355.50117 EV
          ELECTRONIC ENERGY       =      -1578.85386 EV  POINT GROUP:     C1  
          CORE-CORE REPULSION     =        223.35269 EV

          DIELECTRIC ENERGY       =         -2.42894 EV
          COSMO AREA              =        168.42 SQUARE ANGSTROMS
          COSMO VOLUME            =        160.26 CUBIC ANGSTROMS

          GRADIENT NORM           =          2.52752 = 0.63188 PER ATOM
          IONIZATION POTENTIAL    =         10.738168 EV
          HOMO LUMO ENERGIES (EV) =        -10.738 -1.134
          NO. OF FILLED LEVELS    =         22
          MOLECULAR WEIGHT        =        131.5846

          MOLECULAR DIMENSIONS (Angstroms)

            Atom       Atom       Distance
           Cl    13    H     6     7.19002
            H     7    H     9     4.61344
            H    11    H     6     1.98549


          SCF CALCULATIONS        =         64
 
          WALL-CLOCK TIME         =          2.141 SECONDS
          COMPUTATION TIME        =          7.844 SECONDS



       FINAL  POINT  AND  DERIVATIVES

   PARAMETER     ATOM    TYPE            VALUE        GRADIENT
      1          2  N    BOND            1.288498      1.600805  KCAL/ANGSTROM
      2          3  N    BOND            1.338791      0.019139  KCAL/ANGSTROM
      3          3  N    ANGLE         177.718797     -0.123535  KCAL/RADIAN  
      4          3  N    DIHEDRAL       -0.339181      0.000000  KCAL/RADIAN  
      5          4  C    BOND            1.353145     -0.017722  KCAL/ANGSTROM
      6          4  C    ANGLE         119.790044     -0.628403  KCAL/RADIAN  
      7          4  C    DIHEDRAL      -69.826317      0.171240  KCAL/RADIAN  
      8          5  C    BOND            1.396338      0.011109  KCAL/ANGSTROM
      9          5  C    ANGLE         121.181399     -0.016330  KCAL/RADIAN  
     10          5  C    DIHEDRAL     -180.044200      0.106669  KCAL/RADIAN  
     11          6  H    BOND            2.165209      0.060287  KCAL/ANGSTROM
     12          6  H    ANGLE         145.044203      0.023705  KCAL/RADIAN  
     13          6  H    DIHEDRAL       -0.142751     -0.002822  KCAL/RADIAN  
     14          7  H    BOND            2.511686      0.088967  KCAL/ANGSTROM
     15          7  H    ANGLE          93.158705     -0.050322  KCAL/RADIAN  
     16          7  H    DIHEDRAL        0.039625      0.021093  KCAL/RADIAN  
     17          8  H    BOND            2.096079     -0.075103  KCAL/ANGSTROM
     18          8  H    ANGLE          92.210573      0.524656  KCAL/RADIAN  
     19          8  H    DIHEDRAL     -180.058651      0.140571  KCAL/RADIAN  
     20          9  H    BOND            1.101320     -0.010036  KCAL/ANGSTROM
     21          9  H    ANGLE         116.910235      0.022805  KCAL/RADIAN  
     22          9  H    DIHEDRAL      179.878450      0.036776  KCAL/RADIAN  
     23         10  H    BOND            1.092857     -0.027022  KCAL/ANGSTROM
     24         10  H    ANGLE         119.927970      0.010899  KCAL/RADIAN  
     25         10  H    DIHEDRAL      179.994079      0.030657  KCAL/RADIAN  
     26         11  H    BOND            1.026411     -0.314743  KCAL/ANGSTROM
     27         11  H    ANGLE         114.221721      1.554991  KCAL/RADIAN  
     28         11  H    DIHEDRAL      177.780875     -0.213036  KCAL/RADIAN  
     29         12  H    BOND            1.027477      0.054445  KCAL/ANGSTROM
     30         12  H    ANGLE         111.439146     -0.568990  KCAL/RADIAN  
     31         12  H    DIHEDRAL     -124.270201      0.109278  KCAL/RADIAN  
     32         13 Cl    BOND            1.754324      0.099012  KCAL/ANGSTROM
     33         13 Cl    ANGLE         107.057258      0.094498  KCAL/RADIAN  
     34         13 Cl    DIHEDRAL     -116.862669      0.310039  KCAL/RADIAN  
     35         14  C    BOND            1.096012      0.050582  KCAL/ANGSTROM
     36         14  C    ANGLE          33.761376     -0.002971  KCAL/RADIAN  
     37         14  C    DIHEDRAL       -0.128429     -0.151608  KCAL/RADIAN  
     38         15  C    BOND            1.092784     -0.036664  KCAL/ANGSTROM
     39         15  C    ANGLE          59.222273     -0.038990  KCAL/RADIAN  
     40         15  C    DIHEDRAL       -0.048919      0.034405  KCAL/RADIAN  
     41         16  C    BOND            1.100345      0.009007  KCAL/ANGSTROM
     42         16  C    ANGLE          35.117882     -0.006919  KCAL/RADIAN  
     43         16  C    DIHEDRAL      180.257720     -0.093092  KCAL/RADIAN  




  ATOM               CHEMICAL                 BOND LENGTH      BOND ANGLE     TWIST ANGLE 
 NUMBER               SYMBOL                  (ANGSTROMS)      (DEGREES)       (DEGREES) 
   (I)                                           NA:I           NB:NA:I       NC:NB:NA:I       NA    NB    NC 
     1       H(HETATM    1  H   NH3 A   1)    0.00000000       0.0000000       0.0000000   
     2       N(HETATM    2  N   NH3 A   1)    1.28849790  *    0.0000000       0.0000000        1     0     0
     3       N(HETATM    3  N   HET B   2)    1.33879123  *  177.7187973  *   -0.3391813  *     1     2     0
     4       C(HETATM    4  C1  HET B   2)    1.35314531  *  119.7900444  *  -69.8263169  *     3     1     2
     5       C(HETATM    5  C2  HET B   2)    1.39633753  *  121.1813988  *  179.9557998  *     4     3     1
     6       H(HETATM    6  H1  HET D   2)    2.16520933  *  145.0442029  *   -0.1427507  *     5     4     3
     7       H(HETATM    7  H2  HET D   2)    2.51168613  *   93.1587051  *    0.0396247  *     6     5     4
     8       H(HETATM    8  H3  HET D   2)    2.09607909  *   92.2105730  *  179.9413488  *     3     1     4
     9       H(HETATM    9  H1  HET B   2)    1.10131952  *  116.9102345  *  179.8784501  *     4     3     5
    10       H(HETATM   10  H2  HET B   2)    1.09285662  *  119.9279695  *  179.9940794  *     5     4     6
    11       H(HETATM   11 1H   NH3 A   1)    1.02641101  *  114.2217206  *  177.7808754  *     2     1     3
    12       H(HETATM   12 2H   NH3 A   1)    1.02747651  *  111.4391458  * -124.2702010  *     2     1    11
    13      Cl(HETATM   13 3CL  NH3 A   1)    1.75432390  *  107.0572575  * -116.8626692  *     2     1    12
    14       C(HETATM   14  C1  HET D   2)    1.09601225  *   33.7613760  *   -0.1284287  *     6     5     7
    15       C(HETATM   15  C2  HET D   2)    1.09278430  *   59.2222732  *   -0.0489190  *     7     6     5
    16       C(HETATM   16  C3  HET D   2)    1.10034458  *   35.1178821  * -179.7422795  *     8     3     1

                             CARTESIAN COORDINATES

   1    H        0.000000000     0.000000000     0.000000000
   2    N        1.288497897     0.000000000     0.000000000
   3    N       -1.337730244     0.053289218     0.000000000
   4    C       -1.993351297     0.484715081     1.102286253
   5    C       -3.387670720     0.552826308     1.133793515
   6    H       -5.206685004     0.216594666     0.008508327
   7    H       -3.966078307    -0.577132852    -2.026057691
   8    H       -1.447188083    -0.663239622    -1.966762051
   9    H       -1.376659452     0.775179132     1.967287107
  10    H       -3.896251834     0.902123749     2.035831290
  11    H        1.709602295    -0.935348562     0.036245140
  12    H        1.664053733     0.568734341     0.768899895
  13   Cl        1.803088859     0.752217543    -1.499005424
  14    C       -4.111593686     0.171817390     0.004921817
  15    C       -3.426698548    -0.270024793    -1.126651426
  16    C       -2.031752766    -0.319326956    -1.100294280


           Empirical Formula: C5 H8 N2 Cl  =    16 atoms



      MOLECULAR POINT GROUP   :   C1  


                  EIGENVALUES  
 -37.75780 -36.23017 -29.19805 -27.05517 -25.29171 -22.93428 -22.63226 -19.53644
 -17.94828 -17.15487 -17.04124 -16.40800 -15.80744 -15.27096 -15.13578 -14.03927
 -13.09619 -12.21505 -11.82217 -11.53749 -11.29007 -10.73817  -1.13381  -0.86443
  -0.68839   1.66933   2.07066   3.50038   3.66665   4.01546   4.02332   4.57209
   4.59417   4.93239   5.22323   5.38297   5.42165   5.51700   5.67960   5.71339
  67.18240  67.29992  67.39538  68.07836  68.08617


              NET ATOMIC CHARGES AND DIPOLE CONTRIBUTIONS

  ATOM NO.                 TYPE                        CHARGE      No. of ELECS.   s-Pop       p-Pop       d-Pop       
    1          H(HETATM    1  H   NH3 A   1)           0.418286        0.5817     0.58171
    2          N(HETATM    2  N   NH3 A   1)          -0.419760        5.4198     1.61096     3.80880
    3          N(HETATM    3  N   HET B   2)          -0.378132        5.3781     1.63916     3.73898
    4          C(HETATM    4  C1  HET B   2)           0.065606        3.9344     1.10414     2.83026
    5          C(HETATM    5  C2  HET B   2)          -0.215137        4.2151     1.09233     3.12281
    6          H(HETATM    6  H1  HET D   2)           0.189658        0.8103     0.81034
    7          H(HETATM    7  H2  HET D   2)           0.197013        0.8030     0.80299
    8          H(HETATM    8  H3  HET D   2)           0.201468        0.7985     0.79853
    9          H(HETATM    9  H1  HET B   2)           0.204019        0.7960     0.79598
   10          H(HETATM   10  H2  HET B   2)           0.197476        0.8025     0.80252
   11          H(HETATM   11 1H   NH3 A   1)           0.332476        0.6675     0.66752
   12          H(HETATM   12 2H   NH3 A   1)           0.329236        0.6708     0.67076
   13         Cl(HETATM   13 3CL  NH3 A   1)           0.075035        6.9250     1.98451     4.93067     0.00978
   14          C(HETATM   14  C1  HET D   2)          -0.041845        4.0418     1.09902     2.94283
   15          C(HETATM   15  C2  HET D   2)          -0.216468        4.2165     1.09206     3.12441
   16          C(HETATM   16  C3  HET D   2)           0.061069        3.9389     1.10282     2.83611

          NET CHARGE ON RESIDUES

      Residue         Charge  Anion or
                              Cation?
      NH3 A   1       +0.735  CATION
      HET B   2       -0.126
      HET D   2       +0.391
 


 DIPOLE           X         Y         Z       TOTAL
 POINT-CHG.     2.275    -1.344     2.707     3.783
 HYBRID         0.364    -0.179     0.387     0.560
 SUM            2.639    -1.523     3.093     4.342


          ATOMIC ORBITAL ELECTRON POPULATIONS

                   Atom                  s        px        py        pz      x^2-y^2     xz        z^2       yz        xy
   H(HETATM    1  H   NH3 A   1)   0.58171
   N(HETATM    2  N   NH3 A   1)   1.61096   1.44128   1.24570   1.12182
   N(HETATM    3  N   HET B   2)   1.63916   1.36442   1.25619   1.11837
   C(HETATM    4  C1  HET B   2)   1.10414   0.99175   0.89668   0.94183
   C(HETATM    5  C2  HET B   2)   1.09233   1.00456   1.03598   1.08227
   H(HETATM    6  H1  HET D   2)   0.81034
   H(HETATM    7  H2  HET D   2)   0.80299
   H(HETATM    8  H3  HET D   2)   0.79853
   H(HETATM    9  H1  HET B   2)   0.79598
   H(HETATM   10  H2  HET B   2)   0.80252
   H(HETATM   11 1H   NH3 A   1)   0.66752
   H(HETATM   12 2H   NH3 A   1)   0.67076
  Cl(HETATM   13 3CL  NH3 A   1)   1.98451   1.91595   1.80142   1.21329   0.00083   0.00225   0.00312   0.00290   0.00069
   C(HETATM   14  C1  HET D   2)   1.09902   1.09818   0.88614   0.95851
   C(HETATM   15  C2  HET D   2)   1.09206   1.00791   1.03433   1.08217
   C(HETATM   16  C3  HET D   2)   1.10282   0.98477   0.90809   0.94326
 *******************************************************************************
 ** Site#: 37037        For non-commercial use only           Version 21.158W **
 *******************************************************************************
 ** Cite this program as: MOPAC2016, Version: 21.158W, James J. P. Stewart,   **
 ** Stewart Computational Chemistry, web: HTTP://OpenMOPAC.net. Days left: 363**
 *******************************************************************************
 **                                                                           **
 **                                MOPAC2016                                  **
 **                                                                           **
 *******************************************************************************

                              PM7 CALCULATION RESULTS

 *******************************************************************************
 *  CALCULATION DONE:                                Wed Jun  9 12:22:52 2021  *
 *
 *
 *
 *                 CHARGE ON SYSTEM = +1
 *
 *
 *
 *  EPS=78.4   - USE ANDREAS KLAMT'S COSMO IMPLICIT SOLVATION MODEL
 *  OLDGEO     - PREVIOUS GEOMETRY TO BE USED
 *  FORCE      - FORCE CALCULATION SPECIFIED
 *  T=         - A TIME OF 172800.0 SECONDS REQUESTED
 *  DUMP=N     - RESTART FILE WRITTEN EVERY 7200.0 SECONDS REQUESTED
 *******************************************************************************
oldgeo FORCE eps=78.4 charge=1
 NH2Cl + pyridinium => [H3NCl](+) + pyridine
 Calculate vibrational modes
  ATOM               CHEMICAL                 BOND LENGTH      BOND ANGLE     TWIST ANGLE 
 NUMBER               SYMBOL                  (ANGSTROMS)      (DEGREES)       (DEGREES) 
   (I)                                           NA:I           NB:NA:I       NC:NB:NA:I       NA    NB    NC 
     1       H(HETATM    1  H   NH3 A   1)    0.00000000       0.0000000       0.0000000   
     2       N(HETATM    2  N   NH3 A   1)    1.28849790  *    0.0000000       0.0000000        1     0     0
     3       N(HETATM    3  N   HET B   2)    1.33879123  *  177.7187973  *   -0.3391813  *     1     2     0
     4       C(HETATM    4  C1  HET B   2)    1.35314531  *  119.7900444  *  -69.8263169  *     3     1     2
     5       C(HETATM    5  C2  HET B   2)    1.39633753  *  121.1813988  *  179.9557998  *     4     3     1
     6       H(HETATM    6  H1  HET D   2)    2.16520933  *  145.0442029  *   -0.1427507  *     5     4     3
     7       H(HETATM    7  H2  HET D   2)    2.51168613  *   93.1587051  *    0.0396247  *     6     5     4
     8       H(HETATM    8  H3  HET D   2)    2.09607909  *   92.2105730  *  179.9413488  *     3     1     4
     9       H(HETATM    9  H1  HET B   2)    1.10131952  *  116.9102345  *  179.8784501  *     4     3     5
    10       H(HETATM   10  H2  HET B   2)    1.09285662  *  119.9279695  *  179.9940794  *     5     4     6
    11       H(HETATM   11 1H   NH3 A   1)    1.02641101  *  114.2217206  *  177.7808754  *     2     1     3
    12       H(HETATM   12 2H   NH3 A   1)    1.02747651  *  111.4391458  * -124.2702010  *     2     1    11
    13      Cl(HETATM   13 3CL  NH3 A   1)    1.75432390  *  107.0572575  * -116.8626692  *     2     1    12
    14       C(HETATM   14  C1  HET D   2)    1.09601225  *   33.7613760  *   -0.1284287  *     6     5     7
    15       C(HETATM   15  C2  HET D   2)    1.09278430  *   59.2222732  *   -0.0489190  *     7     6     5
    16       C(HETATM   16  C3  HET D   2)    1.10034458  *   35.1178821  * -179.7422795  *     8     3     1
 

 General Reference for PM7:
 "Optimization of Parameters for Semiempirical Methods VI: More Modifications to the 
 NDDO Approximations and Re-optimization of Parameters", J. J. P. Stewart, J. Mol. Mod., 1:32, 19 (2013)
 https://link.springer.com/article/10.1007/s00894-012-1667-x

           Empirical Formula: C5 H8 N2 Cl  =    16 atoms



      MOLECULAR POINT GROUP   :   C1  


      RHF CALCULATION, NO. OF DOUBLY OCCUPIED LEVELS = 22



          HEAT OF FORMATION =     139.143405 KCALS/MOLE


          CARTESIAN COORDINATE DERIVATIVES

   NUMBER  ATOM         X            Y            Z

     1       H     -1.718695     1.458981     0.100700
     2       N      0.680316    -2.960746    -0.337832
     3       N     -0.138933    -0.089655    -0.596765
     4       C      0.432244     0.163281     0.188502
     5       C      0.023803    -0.308017     0.074008
     6       H     -0.171864    -0.005625     0.080502
     7       H      0.083423    -0.071451    -0.059967
     8       H     -0.227728     0.048107     0.067142
     9       H     -0.005436     0.047600     0.011101
    10       H     -0.007813     0.021961    -0.042047
    11       H      1.390407     1.050582     0.334423
    12       H     -0.472888     0.349145     0.131089
    13      Cl      0.064241     0.180592     0.004231
    14       C      0.124225     0.253914    -0.034349
    15       C     -0.059676    -0.019555     0.006772
    16       C      0.004356    -0.118939     0.072699
 


          GRADIENT NORM =   4.35166


          TIME FOR SCF CALCULATION =    0.03

          TIME FOR DERIVATIVES     =    0.03

          MOLECULAR WEIGHT =  131.58



          ROTATIONAL CONSTANTS IN CM(-1)

          A =    0.14189869   B =    0.02275187   C =    0.02038671



           PRINCIPAL MOMENTS OF INERTIA IN UNITS OF 10**(-40)*GRAM-CM**2

          A =      197.2730   B =     1230.3506   C =     1373.0895


          ORIENTATION OF MOLECULE IN FORCE CALCULATION

    NO.       ATOM         X         Y         Z

     1          H       0.9801   -0.2671    0.3963
     2          N       2.2686   -0.2671    0.3963
     3          N      -0.3577   -0.2138    0.3963
     4          C      -1.0133    0.2176    1.4986
     5          C      -2.4076    0.2857    1.5301
     6          H      -4.2266   -0.0505    0.4048
     7          H      -2.9860   -0.8443   -1.6298
     8          H      -0.4671   -0.9304   -1.5705
     9          H      -0.3966    0.5080    2.3636
    10          H      -2.9162    0.6350    2.4321
    11          H       2.6897   -1.2025    0.4325
    12          H       2.6441    0.3016    1.1652
    13         Cl       2.7831    0.4851   -1.1027
    14          C      -3.1315   -0.0953    0.4012
    15          C      -2.4466   -0.5372   -0.7304
    16          C      -1.0517   -0.5865   -0.7040


    FIRST DERIVATIVES WILL BE USED IN THE CALCULATION OF SECOND DERIVATIVES

          ESTIMATED TIME TO COMPLETE CALCULATION =        6.00 SECONDS

    FOR POINT-GROUP C1   THERE ARE   1 UNIQUE SYMMETRY FUNCTIONS.

 STEP:   1 TIME =     0.06 SECS, INTEGRAL =      0.06 TIME LEFT: 172799.88
 STEP:   2 TIME =     0.05 SECS, INTEGRAL =      0.11 TIME LEFT: 172799.83
 STEP:   3 TIME =     0.05 SECS, INTEGRAL =      0.16 TIME LEFT: 172799.78
 STEP:   4 TIME =     0.06 SECS, INTEGRAL =      0.22 TIME LEFT: 172799.72
 STEP:   5 TIME =     0.05 SECS, INTEGRAL =      0.27 TIME LEFT: 172799.67
 STEP:   6 TIME =     0.05 SECS, INTEGRAL =      0.31 TIME LEFT: 172799.62
 STEP:   7 TIME =     0.05 SECS, INTEGRAL =      0.36 TIME LEFT: 172799.58
 STEP:   8 TIME =     0.06 SECS, INTEGRAL =      0.42 TIME LEFT: 172799.52
 STEP:   9 TIME =     0.05 SECS, INTEGRAL =      0.47 TIME LEFT: 172799.47
 STEP:  10 TIME =     0.06 SECS, INTEGRAL =      0.53 TIME LEFT: 172799.41
 STEP:  11 TIME =     0.05 SECS, INTEGRAL =      0.58 TIME LEFT: 172799.36
 STEP:  12 TIME =     0.06 SECS, INTEGRAL =      0.64 TIME LEFT: 172799.30
 STEP:  13 TIME =     0.05 SECS, INTEGRAL =      0.69 TIME LEFT: 172799.25
 STEP:  14 TIME =     0.06 SECS, INTEGRAL =      0.75 TIME LEFT: 172799.19
 STEP:  15 TIME =     0.05 SECS, INTEGRAL =      0.80 TIME LEFT: 172799.14
 STEP:  16 TIME =     0.06 SECS, INTEGRAL =      0.86 TIME LEFT: 172799.08
 STEP:  17 TIME =     0.05 SECS, INTEGRAL =      0.91 TIME LEFT: 172799.03
 STEP:  18 TIME =     0.05 SECS, INTEGRAL =      0.95 TIME LEFT: 172798.98
 STEP:  19 TIME =     0.05 SECS, INTEGRAL =      1.00 TIME LEFT: 172798.94
 STEP:  20 TIME =     0.05 SECS, INTEGRAL =      1.05 TIME LEFT: 172798.89
 STEP:  21 TIME =     0.06 SECS, INTEGRAL =      1.11 TIME LEFT: 172798.83
 STEP:  22 TIME =     0.05 SECS, INTEGRAL =      1.16 TIME LEFT: 172798.78
 STEP:  23 TIME =     0.05 SECS, INTEGRAL =      1.20 TIME LEFT: 172798.73
 STEP:  24 TIME =     0.06 SECS, INTEGRAL =      1.27 TIME LEFT: 172798.67
 STEP:  25 TIME =     0.05 SECS, INTEGRAL =      1.31 TIME LEFT: 172798.62
 STEP:  26 TIME =     0.06 SECS, INTEGRAL =      1.38 TIME LEFT: 172798.56
 STEP:  27 TIME =     0.05 SECS, INTEGRAL =      1.42 TIME LEFT: 172798.52
 STEP:  28 TIME =     0.05 SECS, INTEGRAL =      1.47 TIME LEFT: 172798.47
 STEP:  29 TIME =     0.05 SECS, INTEGRAL =      1.52 TIME LEFT: 172798.42
 STEP:  30 TIME =     0.05 SECS, INTEGRAL =      1.56 TIME LEFT: 172798.38
 STEP:  31 TIME =     0.06 SECS, INTEGRAL =      1.62 TIME LEFT: 172798.31
 STEP:  32 TIME =     0.05 SECS, INTEGRAL =      1.67 TIME LEFT: 172798.27
 STEP:  33 TIME =     0.06 SECS, INTEGRAL =      1.73 TIME LEFT: 172798.20
 STEP:  34 TIME =     0.05 SECS, INTEGRAL =      1.78 TIME LEFT: 172798.16
 STEP:  35 TIME =     0.05 SECS, INTEGRAL =      1.83 TIME LEFT: 172798.11
 STEP:  36 TIME =     0.05 SECS, INTEGRAL =      1.88 TIME LEFT: 172798.06
 STEP:  37 TIME =     0.06 SECS, INTEGRAL =      1.94 TIME LEFT: 172798.00
 STEP:  38 TIME =     0.06 SECS, INTEGRAL =      2.00 TIME LEFT: 172797.94
 STEP:  39 TIME =     0.05 SECS, INTEGRAL =      2.05 TIME LEFT: 172797.89
 STEP:  40 TIME =     0.05 SECS, INTEGRAL =      2.09 TIME LEFT: 172797.84
 STEP:  41 TIME =     0.06 SECS, INTEGRAL =      2.16 TIME LEFT: 172797.78
 STEP:  42 TIME =     0.05 SECS, INTEGRAL =      2.20 TIME LEFT: 172797.73
 STEP:  43 TIME =     0.05 SECS, INTEGRAL =      2.25 TIME LEFT: 172797.69
 STEP:  44 TIME =     0.06 SECS, INTEGRAL =      2.31 TIME LEFT: 172797.62
 STEP:  45 TIME =     0.06 SECS, INTEGRAL =      2.38 TIME LEFT: 172797.56
 STEP:  46 TIME =     0.06 SECS, INTEGRAL =      2.44 TIME LEFT: 172797.50
 STEP:  47 TIME =     0.06 SECS, INTEGRAL =      2.50 TIME LEFT: 172797.44
 STEP:  48 TIME =     0.05 SECS, INTEGRAL =      2.55 TIME LEFT: 172797.39

(To convert to Hartree/Bohr^2, multiply by (10^(-21) x N x a0^2)/(4.184 x 627.51) =  0.0642)


           FORCE MATRIX IN MILLIDYNES/ANGSTROM


                  H  1       N  2       N  3       C  4       C  5       H  6
 ------------------------------------------------------------------------------
     H    1   2.034904
     N    2   0.831673   9.986682
     N    3   1.031612   1.159549  14.694546
     C    4   0.507063   0.081695   6.245836  15.180123
     C    5   0.133289   0.052594   2.714707   5.827942  14.996907
     H    6   0.022399   0.010403   0.048348   0.146298   0.699591   4.233881
     H    7   0.030317   0.011580   0.106863   0.015374   0.095435   0.040490
     H    8   0.073703   0.026301   0.886121   0.144515   0.041541   0.013177
     H    9   0.076168   0.028637   0.884272   3.298545   0.649687   0.013524
     H   10   0.028624   0.012397   0.106846   0.731878   3.375650   0.049618
     H   11   0.359286   3.798832   0.140298   0.026186   0.009674   0.003123
     H   12   0.290328   3.604716   0.069161   0.017677   0.004383   0.000621
    Cl   13   0.382097   3.789491   0.048433   0.007094   0.003917   0.000354
     C   14   0.019180   0.006770   1.861563   2.410936   6.072573   3.407193
     C   15   0.125443   0.048719   2.707629   1.666703   2.242365   0.734927
     C   16   0.504414   0.237935   6.295560   2.668739   1.689227   0.138338


                  H  7       H  8       H  9       H 10       H 11       H 12
 ------------------------------------------------------------------------------
     H    7   4.277147
     H    8   0.027887   4.198047
     H    9   0.017639   0.015276   4.182649
     H   10   0.010702   0.017722   0.040585   4.260550
     H   11   0.002324   0.004028   0.004285   0.002697   4.191325
     H   12   0.002259   0.003015   0.004382   0.001199   0.584437   4.025661
    Cl   13   0.000978   0.005825   0.002232   0.000910   0.673856   0.678034
     C   14   0.728010   0.097284   0.096654   0.727886   0.002133   0.001594
     C   15   3.394315   0.653590   0.040578   0.104600   0.008205   0.003796
     C   16   0.730563   3.312397   0.144928   0.019133   0.163549   0.032399


                 Cl 13       C 14       C 15       C 16
 ------------------------------------------------------
    Cl   13   5.028434
     C   14   0.002966  15.122504
     C   15   0.006216   6.081618  15.015580
     C   16   0.014947   2.406434   5.875763  15.221671


          HEAT OF FORMATION =     139.143405 KCALS/MOLE

          ZERO POINT ENERGY      72.893 KCAL/MOL

         NOTE: SYSTEM IS NOT A GROUND STATE, THEREFORE ZERO POINT
         ENERGY IS NOT MEANINGFULL. ZERO POINT ENERGY PRINTED
         DOES NOT INCLUDE THE  4 IMAGINARY FREQUENCIES


           NORMAL COORDINATE ANALYSIS (Total motion = 1 Angstrom)


   Root No.       1         2         3         4         5         6         7         8

                 1 A       2 A       3 A       4 A       5 A       6 A       7 A       8 A   

               -1002.6    -132.1     -69.9     -18.6     152.2     331.2     345.5     375.9
  
           1    0.7374   -0.0257   -0.0142   -0.0265    0.0071    0.0004   -0.0082    0.0103
           2   -0.0616    0.0221   -0.0271    0.0803    0.0424    0.0465   -0.0050   -0.0634
           3    0.0085   -0.0371   -0.0711   -0.0185    0.0142   -0.0096   -0.0004    0.0363
           4   -0.0119   -0.0142   -0.0170   -0.0174   -0.0033   -0.0127   -0.0027    0.1323
           5   -0.0017   -0.0106    0.0007    0.0969   -0.0412    0.0063   -0.0015   -0.0068
           6    0.0028    0.0029   -0.0104    0.0158   -0.0613   -0.0025   -0.0010    0.0371
           7   -0.0188   -0.0066   -0.0137   -0.0172   -0.0212    0.0029   -0.0008    0.0027
           8    0.0047    0.1040   -0.0530   -0.0254    0.0098    0.0637   -0.0135    0.0101
           9   -0.0021   -0.0628   -0.0374    0.0112    0.0457   -0.0220    0.0035   -0.0155
          10   -0.0030    0.0085    0.0261   -0.0162   -0.0489    0.0004    0.0000   -0.0258
          11   -0.0055    0.0311   -0.0036   -0.0441    0.0171   -0.0505   -0.0469   -0.0172
          12   -0.0086   -0.0244   -0.0321    0.0201    0.0272    0.0214    0.0167   -0.0162
          13   -0.0060    0.0069    0.0283   -0.0152   -0.0511    0.0015    0.0044   -0.0282
          14    0.0004   -0.0361    0.0327   -0.0313    0.0066   -0.0202    0.0638   -0.0054
          15    0.0035    0.0202   -0.0009    0.0167    0.0006    0.0089   -0.0227   -0.0081
          16    0.0024   -0.0127   -0.0076   -0.0153   -0.0276    0.0152    0.0007   -0.0492
          17   -0.0025   -0.0990    0.0609    0.0119   -0.0140    0.1877   -0.0237    0.0312
          18    0.0008    0.0787    0.0495    0.0057   -0.0353   -0.0844    0.0086    0.0027
          19   -0.0079   -0.0430   -0.0798   -0.0168    0.0199    0.0029   -0.0082   -0.0361
          20   -0.0009   -0.0536   -0.0171    0.0572   -0.0329   -0.1084   -0.1347   -0.0162
          21    0.0049    0.0351    0.0361   -0.0149    0.0032    0.0377    0.0504    0.0178
          22    0.0038   -0.0345   -0.0787   -0.0173    0.0159    0.0072    0.0076   -0.0569
          23    0.0125    0.0655   -0.0957    0.0455   -0.0102   -0.0714    0.1919   -0.0042
          24    0.0201   -0.0466   -0.0167   -0.0154    0.0527    0.0286   -0.0721   -0.0121
          25    0.0048    0.0224    0.0546   -0.0158   -0.0693   -0.0013   -0.0028   -0.0387
          26   -0.0134    0.0443    0.0031   -0.0705    0.0316   -0.1248   -0.1465   -0.0336
          27   -0.0212   -0.0390   -0.0549    0.0288    0.0366    0.0475    0.0527    0.0001
          28   -0.0047    0.0170    0.0581   -0.0145   -0.0692   -0.0012    0.0093   -0.0113
          29   -0.0023   -0.0711    0.0641   -0.0428    0.0128   -0.0497    0.1601   -0.0084
          30   -0.0020    0.0397    0.0039    0.0217   -0.0124    0.0187   -0.0574    0.0036
          31    0.0120   -0.0505    0.0017   -0.0404   -0.0452   -0.0384   -0.0080    0.1925
          32   -0.0018   -0.0256    0.0089    0.0898   -0.0608   -0.0041   -0.0044    0.0170
          33    0.0502    0.0054   -0.0004    0.1049   -0.1228   -0.0091   -0.0050    0.0191
          34   -0.0558   -0.0145   -0.0672   -0.0372    0.0482    0.0044    0.0006    0.1474
          35    0.0261   -0.0246    0.0011    0.1454   -0.1110   -0.0073   -0.0061    0.0267
          36    0.0267    0.0114    0.0134   -0.0127   -0.0302   -0.0000    0.0002    0.0008
          37    0.0006    0.0279    0.0341    0.0460    0.0576   -0.0032   -0.0001    0.0016
          38   -0.0001   -0.0172    0.0260   -0.0295    0.0193    0.0013    0.0008    0.0023
          39   -0.0026    0.0156    0.0211   -0.0242   -0.0143   -0.0008    0.0016   -0.0086
          40   -0.0003   -0.0107   -0.0092   -0.0155   -0.0279    0.0102    0.0011   -0.0509
          41   -0.0004   -0.0566    0.0280    0.0040   -0.0093    0.0712   -0.0118    0.0148
          42    0.0011    0.0378    0.0242    0.0047   -0.0087   -0.0275    0.0054    0.0011
          43   -0.0075   -0.0273   -0.0492   -0.0164   -0.0014    0.0054   -0.0025   -0.0385
          44   -0.0015   -0.0258   -0.0158    0.0288   -0.0180   -0.0417   -0.0539   -0.0001
          45   -0.0025    0.0160    0.0176   -0.0054    0.0108    0.0137    0.0193    0.0150
          46   -0.0070   -0.0237   -0.0496   -0.0166   -0.0019    0.0044    0.0020   -0.0320
          47    0.0076    0.0411   -0.0568    0.0197   -0.0046   -0.0333    0.0616    0.0015
          48    0.0059   -0.0296   -0.0119   -0.0045    0.0385    0.0118   -0.0245    0.0028


   Root No.       9        10        11        12        13        14        15        16

                 9 A      10 A      11 A      12 A      13 A      14 A      15 A      16 A   

                 583.5     601.9     624.6     658.8     792.5     863.5     910.0     963.4
  
           1    0.0598   -0.0030   -0.0052   -0.0241   -0.0001   -0.0559   -0.0018    0.0007
           2    0.2614   -0.0206   -0.0263   -0.0265    0.0039   -0.0432   -0.0057    0.0194
           3    0.0079   -0.0016    0.0288    0.0215   -0.0073    0.0744    0.0002   -0.0095
           4    0.0067   -0.0002   -0.0051    0.0334    0.0016   -0.0786    0.0005    0.0004
           5    0.0232   -0.0027   -0.0029   -0.0048   -0.0019   -0.1017   -0.0002   -0.0022
           6    0.0168   -0.0011   -0.0008    0.0149   -0.0011    0.2218   -0.0004   -0.0001
           7    0.0007    0.0004   -0.0060   -0.0915    0.0004   -0.0036   -0.0008    0.0028
           8   -0.0175   -0.0370   -0.0197    0.0021    0.0140    0.0002    0.0001    0.0133
           9   -0.0037    0.0167   -0.0313    0.0021   -0.0055   -0.0000   -0.0008   -0.0052
          10    0.0023    0.0075   -0.0679   -0.0145   -0.0007    0.0091   -0.0017   -0.0028
          11    0.0001    0.0393   -0.0128    0.0206   -0.0164   -0.0002   -0.0329   -0.0399
          12   -0.0143   -0.0102   -0.0672    0.0501    0.0071    0.0004    0.0121    0.0141
          13    0.0042    0.0033   -0.0674   -0.0030   -0.0018    0.0131   -0.0013   -0.0001
          14   -0.0004   -0.0445    0.0223    0.0223   -0.0121   -0.0068   -0.0270    0.0152
          15   -0.0001    0.0090    0.0727    0.0664    0.0048   -0.0154    0.0101   -0.0041
          16   -0.0002    0.0027    0.0064    0.0980    0.0064   -0.0123   -0.0011   -0.0059
          17    0.0090    0.1293   -0.0030    0.0026    0.1663    0.0124    0.0182   -0.2004
          18    0.0079   -0.0439   -0.0483    0.0040   -0.0642    0.0086    0.0054    0.0634
          19   -0.0127   -0.0059    0.0183   -0.0793    0.0070    0.0076   -0.0008   -0.0026
          20    0.0104   -0.1063    0.0129   -0.0111    0.2042    0.0053   -0.1929   -0.0887
          21    0.0016    0.0333    0.0901   -0.0341   -0.0723    0.0062    0.0673    0.0293
          22   -0.0072    0.0013    0.0470    0.0457    0.0038    0.0036   -0.0041    0.0060
          23    0.0079    0.1537    0.0008    0.0009    0.1333   -0.0007   -0.1833    0.2128
          24   -0.0159   -0.0498   -0.0854   -0.0036   -0.0505   -0.0055    0.0676   -0.0766
          25    0.0090    0.0091   -0.0412    0.0521    0.0046    0.0087    0.0085    0.0069
          26    0.0255    0.1552    0.0037    0.0086    0.1207    0.0045    0.2004    0.1838
          27   -0.0267   -0.0510   -0.0838    0.0044   -0.0429   -0.0002   -0.0734   -0.0679
          28    0.0135   -0.0013   -0.0243   -0.0677    0.0065    0.0240    0.0110   -0.0007
          29    0.0101   -0.1118    0.0051    0.0083    0.1777    0.0016    0.2151   -0.0504
          30    0.0006    0.0333    0.0957    0.0293   -0.0642   -0.0103   -0.0763    0.0221
          31   -0.1884    0.0140    0.0140    0.0419    0.0100   -0.1024   -0.0008    0.0036
          32   -0.0636    0.0031    0.0057   -0.0027    0.0022   -0.0913   -0.0009    0.0000
          33   -0.1105    0.0079    0.0083   -0.0010    0.0070    0.1548    0.0003    0.0064
          34    0.2705   -0.0186   -0.0217    0.0576   -0.0146    0.0058   -0.0008   -0.0104
          35   -0.1435    0.0078    0.0102   -0.0042    0.0079   -0.1005    0.0003    0.0037
          36    0.0199   -0.0004   -0.0027    0.0003   -0.0006    0.1516   -0.0007    0.0011
          37   -0.0065    0.0002    0.0019    0.0024   -0.0004    0.0301   -0.0002   -0.0001
          38   -0.0030   -0.0007    0.0009    0.0026    0.0002    0.0481    0.0001    0.0005
          39    0.0043    0.0008   -0.0007   -0.0055    0.0000   -0.0958    0.0003   -0.0004
          40   -0.0005   -0.0008    0.0081    0.1059   -0.0009   -0.0142   -0.0010    0.0028
          41    0.0002    0.0372    0.0228   -0.0036   -0.0203    0.0005   -0.0025    0.0275
          42    0.0041   -0.0167    0.0411   -0.0026    0.0068    0.0007    0.0010   -0.0102
          43   -0.0047   -0.0069    0.0709   -0.0146    0.0009    0.0032    0.0018   -0.0008
          44   -0.0025   -0.0396    0.0128   -0.0268   -0.0146    0.0027    0.0265    0.0216
          45    0.0012    0.0105    0.0653   -0.0729    0.0063    0.0110   -0.0089   -0.0099
          46   -0.0028   -0.0039    0.0643   -0.0236   -0.0006    0.0058    0.0023   -0.0024
          47   -0.0049    0.0382   -0.0220   -0.0150   -0.0199   -0.0019    0.0312   -0.0456
          48   -0.0093   -0.0073   -0.0726   -0.0463    0.0074   -0.0044   -0.0128    0.0201


   Root No.      17        18        19        20        21        22        23        24

                17 A      18 A      19 A      20 A      21 A      22 A      23 A      24 A   

                 996.4    1011.7    1051.5    1091.7    1130.6    1151.5    1163.9    1168.8
  
           1   -0.0131   -0.0036    0.0008    0.0041    0.0028   -0.0060   -0.0152    0.0006
           2    0.0353   -0.0058    0.0044    0.2476    0.0227   -0.0351   -0.0412   -0.1334
           3   -0.0216   -0.0013   -0.0080   -0.1196   -0.0675    0.0476    0.0149    0.0797
           4   -0.0103   -0.0003    0.0007    0.0254    0.0050   -0.0059   -0.0030   -0.0178
           5   -0.0064    0.0002    0.0007   -0.0369    0.0068   -0.0020   -0.0006   -0.0006
           6    0.0064    0.0005    0.0008   -0.0131    0.0080   -0.0040   -0.0013   -0.0054
           7    0.0903    0.0058   -0.0011   -0.0031   -0.0020   -0.0113   -0.0159    0.0064
           8   -0.0049    0.0012    0.0012   -0.0080   -0.0104   -0.0055    0.0036   -0.0019
           9   -0.0008   -0.0001   -0.0035   -0.0066   -0.0249   -0.0186    0.0071   -0.0096
          10   -0.0394   -0.0032    0.0020    0.0018    0.0008   -0.0328    0.0222   -0.0002
          11   -0.0168   -0.0467   -0.0140    0.0067    0.0093   -0.0006   -0.0050    0.0030
          12   -0.0721    0.0128    0.0063    0.0116    0.0190    0.0014   -0.0172    0.0073
          13   -0.0341   -0.0004    0.0003   -0.0030   -0.0004    0.0246   -0.0118    0.0033
          14    0.0144    0.0437    0.0467    0.0019    0.0044    0.0086    0.0036   -0.0027
          15    0.0558   -0.0128   -0.0138    0.0059    0.0212    0.0168    0.0164   -0.0018
          16    0.0623    0.0037    0.0113   -0.0034   -0.0032   -0.0108   -0.0196    0.0131
          17    0.0183   -0.0315    0.2707   -0.0188   -0.0548    0.0972   -0.0661   -0.0377
          18    0.0070   -0.0106   -0.1386   -0.0335   -0.1024    0.2345   -0.1543   -0.0872
          19   -0.0103    0.0007    0.0090    0.0203    0.1067    0.1802    0.1106   -0.0238
          20   -0.0398    0.1725   -0.1720   -0.0023   -0.0131   -0.0398   -0.0242    0.0111
          21   -0.0542   -0.0640    0.0566   -0.0038   -0.0425   -0.1073   -0.0704    0.0287
          22   -0.0964   -0.0146   -0.0087   -0.0200   -0.1018    0.0309    0.0605   -0.1175
          23    0.0172   -0.1587    0.0422   -0.0189   -0.0175    0.0071    0.0197   -0.0121
          24    0.0240    0.0604   -0.0181   -0.0084   -0.0461    0.0066    0.0565   -0.0612
          25   -0.1026    0.0052    0.0165    0.0255    0.1064    0.0682    0.0930    0.0251
          26   -0.0359    0.1936    0.0438   -0.0146   -0.0281   -0.0205   -0.0288   -0.0017
          27   -0.0122   -0.0739   -0.0245   -0.0009   -0.0483   -0.0636   -0.0548   -0.0110
          28   -0.0096   -0.0060   -0.0134   -0.0365   -0.0882    0.0177    0.1646   -0.0975
          29    0.0522   -0.1853   -0.1838   -0.0028    0.0047   -0.0083    0.0417   -0.0078
          30    0.0471    0.0729    0.0667   -0.0119   -0.0315    0.0201    0.0988   -0.0580
          31   -0.0148   -0.0035    0.0003   -0.0863    0.0345   -0.0093   -0.0141   -0.0431
          32   -0.0045   -0.0011    0.0005   -0.0661    0.0153   -0.0026   -0.0048   -0.0099
          33    0.0202    0.0017   -0.0012    0.2788   -0.0920    0.0388    0.0329    0.0856
          34   -0.0380   -0.0019    0.0003   -0.0766   -0.0692    0.0672    0.0634    0.1880
          35    0.0037    0.0007   -0.0018    0.1222   -0.0574    0.0302    0.0214    0.0608
          36    0.0102   -0.0000    0.0028   -0.0802    0.0865   -0.0589   -0.0473   -0.1413
          37    0.0002    0.0001   -0.0000   -0.0040   -0.0007    0.0007    0.0007    0.0020
          38    0.0016   -0.0000   -0.0003    0.0067   -0.0025    0.0012    0.0008    0.0026
          39   -0.0030   -0.0003   -0.0002    0.0011   -0.0021    0.0015    0.0011    0.0032
          40    0.0689    0.0043   -0.0030   -0.0029   -0.0018   -0.0153   -0.0207    0.0155
          41   -0.0059    0.0041   -0.0669   -0.0025   -0.0049   -0.0063    0.0052   -0.0025
          42    0.0001   -0.0015    0.0228   -0.0056   -0.0215   -0.0187    0.0075   -0.0100
          43   -0.0362   -0.0040    0.0042    0.0025    0.0003   -0.0225    0.0127   -0.0001
          44   -0.0139   -0.0421    0.0461    0.0015    0.0044   -0.0020   -0.0076    0.0072
          45   -0.0541    0.0120   -0.0140    0.0069    0.0181   -0.0033   -0.0173    0.0189
          46   -0.0343   -0.0016   -0.0042    0.0017    0.0005    0.0357   -0.0195   -0.0067
          47    0.0264    0.0408   -0.0135    0.0043    0.0090    0.0030    0.0048    0.0013
          48    0.0708   -0.0089    0.0078   -0.0007    0.0180    0.0159    0.0110    0.0076


   Root No.      25        26        27        28        29        30        31        32

                25 A      26 A      27 A      28 A      29 A      30 A      31 A      32 A   

                1231.8    1259.9    1289.9    1334.4    1391.3    1464.0    1534.7    1610.3
  
           1    0.0256   -0.0265    0.0062    0.0010    0.0235   -0.0027    0.0204   -0.0001
           2   -0.0334    0.0111    0.0243   -0.0222    0.2000    0.0648   -0.0029    0.0447
           3    0.0166   -0.0008    0.0314   -0.0353   -0.0243    0.1959    0.0025   -0.1537
           4   -0.0107    0.0007   -0.0010   -0.0026   -0.0309    0.0060   -0.0012   -0.0300
           5    0.0011   -0.0009   -0.0017    0.0010   -0.0292   -0.0027   -0.0011    0.0033
           6   -0.0000    0.0007   -0.0008    0.0016    0.0247   -0.0063    0.0023   -0.0117
           7    0.0704   -0.0097    0.0015   -0.0000   -0.0027    0.0011    0.0492   -0.0000
           8   -0.0020   -0.0005   -0.0052   -0.0142   -0.0005    0.0145   -0.0022    0.0018
           9   -0.0000   -0.0021   -0.0126   -0.0374    0.0015    0.0382   -0.0002    0.0035
          10    0.0358   -0.0111   -0.0436   -0.0035    0.0064   -0.0222   -0.0349   -0.0148
          11    0.0154   -0.0094    0.0116    0.0020   -0.0018   -0.0075    0.0191    0.0025
          12    0.0470   -0.0267    0.0231    0.0024   -0.0021   -0.0234    0.0466    0.0057
          13   -0.0366    0.0047    0.0292    0.0344   -0.0003    0.0438   -0.0411   -0.0022
          14    0.0208   -0.0041    0.0009    0.0052   -0.0007   -0.0048   -0.0161   -0.0081
          15    0.0523   -0.0090    0.0081    0.0206    0.0000   -0.0064   -0.0487   -0.0206
          16   -0.0629    0.0061   -0.0043   -0.0028   -0.0004   -0.0020    0.0420    0.0040
          17    0.0035   -0.0015   -0.0360   -0.0526   -0.0025   -0.0449   -0.0034   -0.0105
          18   -0.0075   -0.0044   -0.1113   -0.1410   -0.0027   -0.1325   -0.0040   -0.0314
          19   -0.1105   -0.1549   -0.2016    0.0610    0.0063    0.0613    0.1207    0.0107
          20    0.0000    0.0388    0.0367   -0.0115   -0.0017   -0.0239   -0.0184   -0.0069
          21   -0.0092    0.0934    0.0953   -0.0312   -0.0050   -0.0583   -0.0419   -0.0176
          22    0.0940    0.1961   -0.0484    0.2138   -0.0119   -0.0394    0.1201   -0.0126
          23   -0.0056    0.0456   -0.0158    0.0368   -0.0077   -0.0168    0.0151   -0.0088
          24   -0.0076    0.1461   -0.0423    0.1212   -0.0062   -0.0476    0.0527   -0.0183
          25    0.1196    0.2030    0.0105   -0.2050   -0.0067    0.0388    0.1131    0.0175
          26   -0.0060   -0.0655   -0.0082    0.0529   -0.0012   -0.0191   -0.0246   -0.0092
          27   -0.0059   -0.1559   -0.0116    0.1207    0.0067   -0.0489   -0.0507   -0.0167
          28   -0.1237   -0.1182    0.2487   -0.0661   -0.0100   -0.0663    0.1192    0.0032
          29    0.0060   -0.0188    0.0375   -0.0052   -0.0044   -0.0139    0.0098   -0.0042
          30    0.0047   -0.0747    0.1223   -0.0321   -0.0047   -0.0598    0.0413   -0.0109
          31   -0.0133    0.0115    0.0153    0.0017    0.2445   -0.0113   -0.0176    0.2555
          32    0.0001    0.0034    0.0050    0.0018    0.0695   -0.0056   -0.0061    0.0845
          33    0.0052   -0.0047   -0.0086    0.0015   -0.2423   -0.0035   -0.0239    0.1781
          34    0.0266   -0.0021   -0.0159    0.0320    0.0511   -0.0858   -0.0112    0.1493
          35    0.0046    0.0030    0.0061   -0.0011    0.2346    0.0111    0.0242   -0.1820
          36   -0.0186   -0.0014    0.0013   -0.0124   -0.2101    0.0263   -0.0137    0.0597
          37    0.0004    0.0000    0.0001   -0.0000    0.0025    0.0006    0.0000   -0.0002
          38    0.0003   -0.0001   -0.0003   -0.0001   -0.0023    0.0001    0.0000   -0.0009
          39    0.0001   -0.0001    0.0001    0.0002    0.0044   -0.0005    0.0002   -0.0001
          40   -0.0624    0.0071   -0.0041   -0.0014   -0.0006   -0.0004    0.0549    0.0061
          41    0.0021   -0.0022   -0.0156   -0.0007    0.0010    0.0126   -0.0022    0.0124
          42   -0.0002   -0.0049   -0.0396   -0.0015    0.0053    0.0366    0.0006    0.0372
          43   -0.0346   -0.0017   -0.0292   -0.0339    0.0008   -0.0425   -0.0401   -0.0127
          44   -0.0168    0.0046    0.0033    0.0079   -0.0007   -0.0011    0.0193   -0.0044
          45   -0.0512    0.0107    0.0024    0.0180   -0.0027   -0.0083    0.0488   -0.0134
          46    0.0307    0.0017    0.0459    0.0045    0.0005    0.0203   -0.0376    0.0231
          47   -0.0188    0.0117    0.0044    0.0012    0.0028   -0.0092   -0.0158    0.0020
          48   -0.0463    0.0321    0.0148    0.0023   -0.0031   -0.0233   -0.0472    0.0019


   Root No.      33        34        35        36        37        38        39        40

                33 A      34 A      35 A      36 A      37 A      38 A      39 A      40 A   

                1642.1    1681.3    1725.0    2621.9    2663.0    2690.8    2698.0    2712.0
  
           1   -0.0082   -0.0254   -0.0025   -0.0076    0.0176    0.0038   -0.0055    0.0016
           2    0.1282   -0.0489    0.1081    0.0016    0.0100   -0.0006   -0.0001   -0.0002
           3    0.2503   -0.0450    0.3814   -0.0047    0.0008   -0.0033   -0.0025   -0.0002
           4   -0.0144    0.0121   -0.0003   -0.0040    0.0197   -0.0003    0.0003   -0.0000
           5   -0.0021    0.0009   -0.0032   -0.0464   -0.0182   -0.0003    0.0001    0.0001
           6   -0.0164    0.0059   -0.0117   -0.0270    0.0169   -0.0004    0.0003    0.0000
           7   -0.0042   -0.0505   -0.0003   -0.0000   -0.0005   -0.0003    0.0004   -0.0004
           8    0.0045   -0.0001   -0.0350    0.0002   -0.0000   -0.0021   -0.0015   -0.0002
           9    0.0086   -0.0043   -0.0961    0.0003    0.0001   -0.0058   -0.0039   -0.0005
          10    0.0466    0.1012   -0.0008    0.0003   -0.0002   -0.0269    0.0042   -0.0021
          11   -0.0098   -0.0144    0.0180    0.0000   -0.0001   -0.0108    0.0026   -0.0014
          12   -0.0188   -0.0300    0.0479    0.0006   -0.0002   -0.0326    0.0076   -0.0047
          13   -0.0161   -0.1079   -0.0338    0.0002   -0.0002   -0.0067    0.0036    0.0017
          14    0.0106   -0.0089   -0.0123   -0.0001    0.0001    0.0029   -0.0018   -0.0038
          15    0.0272   -0.0364   -0.0374    0.0004    0.0003    0.0069   -0.0047   -0.0094
          16    0.0052    0.0275    0.0007    0.0015    0.0050   -0.0219   -0.0188    0.4545
          17    0.0126   -0.0026    0.0009   -0.0000   -0.0002    0.0010    0.0011   -0.0168
          18    0.0427   -0.0137    0.0024    0.0001    0.0000   -0.0003    0.0003    0.0031
          19    0.0062    0.0136   -0.0147   -0.0014    0.0033    0.0195   -0.0504   -0.1157
          20    0.0058   -0.0096    0.0022   -0.0007    0.0018    0.0109   -0.0294   -0.0660
          21    0.0154   -0.0226    0.0033   -0.0027    0.0052    0.0316   -0.0869   -0.1922
          22    0.0173   -0.0278    0.0057   -0.0006    0.0012   -0.0658   -0.3151    0.0184
          23    0.0048   -0.0133    0.0088    0.0002   -0.0004    0.0398    0.1880   -0.0099
          24    0.0191   -0.0424    0.0286    0.0012   -0.0011    0.1015    0.4769   -0.0250
          25   -0.0175   -0.0215   -0.0051   -0.0042    0.0029    0.3190   -0.0585    0.0406
          26    0.0099    0.0124    0.0096   -0.0025    0.0011    0.1550   -0.0276    0.0190
          27    0.0261    0.0315    0.0270   -0.0066    0.0039    0.4587   -0.0817    0.0571
          28    0.0053    0.0181    0.0139    0.0017    0.0024    0.0675   -0.0393   -0.0630
          29    0.0055    0.0048    0.0008   -0.0012   -0.0016   -0.0463    0.0268    0.0430
          30    0.0217    0.0149    0.0042   -0.0024   -0.0039   -0.1171    0.0685    0.1080
          31    0.1627   -0.0975    0.0308   -0.1299   -0.1626    0.0003   -0.0009    0.0002
          32    0.0508   -0.0290    0.0096    0.3596    0.5054   -0.0005    0.0018   -0.0010
          33    0.1100   -0.0548    0.0265   -0.0125    0.0049   -0.0001    0.0000   -0.0000
          34    0.0013   -0.0240   -0.0667    0.1922   -0.1125    0.0029   -0.0014   -0.0000
          35   -0.0986    0.0512   -0.0118    0.2882   -0.2390    0.0048   -0.0027    0.0001
          36    0.0608   -0.0197    0.0323    0.4059   -0.2869    0.0064   -0.0035    0.0001
          37    0.0010   -0.0003    0.0011    0.0001   -0.0002   -0.0000   -0.0000   -0.0000
          38   -0.0002    0.0002    0.0003   -0.0003   -0.0008   -0.0000    0.0000   -0.0000
          39   -0.0010    0.0000   -0.0010   -0.0004    0.0014    0.0000    0.0000   -0.0000
          40    0.0069    0.0492    0.0007   -0.0001   -0.0004    0.0022    0.0006   -0.0341
          41   -0.0238    0.0037    0.0243   -0.0000    0.0000    0.0004    0.0001    0.0014
          42   -0.0652    0.0171    0.0671    0.0001   -0.0000    0.0014    0.0005    0.0005
          43   -0.0113   -0.1084    0.0348    0.0003   -0.0002   -0.0012    0.0059    0.0060
          44    0.0137    0.0123   -0.0155    0.0001   -0.0001   -0.0010    0.0015    0.0056
          45    0.0370    0.0204   -0.0382    0.0003   -0.0004   -0.0029    0.0047    0.0156
          46   -0.0218    0.1230   -0.0003   -0.0006   -0.0005    0.0062    0.0260    0.0008
          47   -0.0029    0.0088    0.0183    0.0005    0.0003   -0.0023   -0.0140    0.0011
          48   -0.0140    0.0398    0.0469   -0.0009   -0.0003   -0.0057   -0.0351    0.0027


   Root No.      41        42

                41 A      42 A   

                2726.5    2743.4
  
           1   -0.0011    0.0061
           2    0.0001   -0.0001
           3   -0.0001   -0.0000
           4   -0.0001   -0.0000
           5   -0.0002   -0.0003
           6   -0.0002   -0.0000
           7    0.0003   -0.0014
           8    0.0002    0.0001
           9    0.0008    0.0000
          10   -0.0001   -0.0027
          11   -0.0014   -0.0027
          12   -0.0042   -0.0078
          13    0.0108    0.0121
          14   -0.0074   -0.0079
          15   -0.0190   -0.0207
          16    0.1111   -0.2179
          17   -0.0038    0.0089
          18   -0.0003   -0.0001
          19    0.1999   -0.0992
          20    0.1140   -0.0560
          21    0.3341   -0.1647
          22   -0.0203    0.0361
          23    0.0113   -0.0212
          24    0.0294   -0.0540
          25    0.0258    0.0544
          26    0.0121    0.0261
          27    0.0374    0.0789
          28   -0.1501   -0.1536
          29    0.1021    0.1032
          30    0.2625    0.2679
          31   -0.0000   -0.0013
          32   -0.0001    0.0054
          33   -0.0002    0.0002
          34    0.0016   -0.0001
          35    0.0027   -0.0009
          36    0.0034   -0.0008
          37    0.0000    0.0000
          38    0.0000   -0.0000
          39   -0.0000    0.0000
          40   -0.0086    0.0176
          41   -0.0014   -0.0011
          42   -0.0046   -0.0008
          43   -0.0160    0.0082
          44   -0.0083    0.0045
          45   -0.0246    0.0132
          46   -0.0004   -0.0020
          47   -0.0015    0.0021
          48   -0.0041    0.0054


           MASS-WEIGHTED COORDINATE ANALYSIS (NORMAL COORDINATES)


   Root No.       1         2         3         4         5         6         7         8

                 1 A       2 A       3 A       4 A       5 A       6 A       7 A       8 A   

               -1002.6    -132.1     -69.9     -18.6     152.2     331.2     345.5     375.9
  
           1    0.9782   -0.0379   -0.0234   -0.0410    0.0111    0.0008   -0.0150    0.0155
           2   -0.0817    0.0326   -0.0448    0.1240    0.0659    0.0845   -0.0091   -0.0957
           3    0.0113   -0.0547   -0.1175   -0.0286    0.0221   -0.0174   -0.0006    0.0548
           4   -0.0588   -0.0784   -0.1049   -0.1004   -0.0194   -0.0857   -0.0187    0.7442
           5   -0.0086   -0.0586    0.0042    0.5584   -0.2389    0.0425   -0.0105   -0.0383
           6    0.0136    0.0157   -0.0640    0.0912   -0.3551   -0.0167   -0.0068    0.2085
           7   -0.0932   -0.0363   -0.0843   -0.0993   -0.1231    0.0194   -0.0056    0.0151
           8    0.0232    0.5728   -0.3266   -0.1463    0.0565    0.4309   -0.0924    0.0566
           9   -0.0105   -0.3461   -0.2302    0.0647    0.2651   -0.1491    0.0241   -0.0874
          10   -0.0139    0.0432    0.1492   -0.0867   -0.2622    0.0023    0.0002   -0.1343
          11   -0.0251    0.1584   -0.0204   -0.2352    0.0918   -0.3165   -0.2968   -0.0895
          12   -0.0393   -0.1243   -0.1832    0.1071    0.1461    0.1341    0.1057   -0.0843
          13   -0.0276    0.0351    0.1613   -0.0811   -0.2743    0.0091    0.0278   -0.1468
          14    0.0016   -0.1839    0.1866   -0.1669    0.0354   -0.1266    0.4031   -0.0282
          15    0.0162    0.1031   -0.0053    0.0890    0.0030    0.0560   -0.1438   -0.0420
          16    0.0031   -0.0187   -0.0125   -0.0236   -0.0430    0.0275    0.0012   -0.0742
          17   -0.0034   -0.1463    0.1006    0.0183   -0.0217    0.3407   -0.0433    0.0471
          18    0.0011    0.1163    0.0819    0.0088   -0.0549   -0.1532    0.0157    0.0041
          19   -0.0105   -0.0636   -0.1319   -0.0259    0.0310    0.0053   -0.0150   -0.0545
          20   -0.0013   -0.0792   -0.0282    0.0885   -0.0512   -0.1968   -0.2467   -0.0244
          21    0.0065    0.0519    0.0596   -0.0230    0.0050    0.0685    0.0923    0.0268
          22    0.0051   -0.0509   -0.1301   -0.0267    0.0247    0.0130    0.0139   -0.0858
          23    0.0165    0.0968   -0.1582    0.0703   -0.0158   -0.1295    0.3516   -0.0063
          24    0.0267   -0.0688   -0.0276   -0.0238    0.0819    0.0520   -0.1321   -0.0183
          25    0.0063    0.0331    0.0903   -0.0245   -0.1077   -0.0024   -0.0052   -0.0583
          26   -0.0177    0.0655    0.0051   -0.1089    0.0491   -0.2264   -0.2684   -0.0506
          27   -0.0281   -0.0576   -0.0908    0.0445    0.0569    0.0862    0.0965    0.0001
          28   -0.0062    0.0251    0.0961   -0.0224   -0.1076   -0.0021    0.0170   -0.0170
          29   -0.0030   -0.1051    0.1059   -0.0662    0.0199   -0.0902    0.2932   -0.0127
          30   -0.0027    0.0586    0.0064    0.0336   -0.0193    0.0340   -0.1052    0.0054
          31    0.0160   -0.0746    0.0028   -0.0625   -0.0703   -0.0698   -0.0147    0.2905
          32   -0.0024   -0.0379    0.0147    0.1388   -0.0944   -0.0075   -0.0080    0.0257
          33    0.0665    0.0080   -0.0007    0.1622   -0.1908   -0.0165   -0.0091    0.0288
          34   -0.0740   -0.0214   -0.1110   -0.0575    0.0749    0.0080    0.0011    0.2224
          35    0.0347   -0.0363    0.0019    0.2246   -0.1726   -0.0132   -0.0111    0.0403
          36    0.0355    0.0168    0.0222   -0.0196   -0.0470   -0.0000    0.0004    0.0011
          37    0.0044    0.2448    0.3339    0.4215    0.5309   -0.0348   -0.0007    0.0143
          38   -0.0009   -0.1504    0.2545   -0.2705    0.1776    0.0142    0.0082    0.0205
          39   -0.0202    0.1365    0.2064   -0.2222   -0.1322   -0.0083    0.0177   -0.0771
          40   -0.0016   -0.0543   -0.0523   -0.0827   -0.1497    0.0638    0.0068   -0.2651
          41   -0.0018   -0.2889    0.1600    0.0212   -0.0501    0.4462   -0.0747    0.0773
          42    0.0049    0.1928    0.1381    0.0251   -0.0465   -0.1720    0.0339    0.0056
          43   -0.0341   -0.1392   -0.2807   -0.0873   -0.0077    0.0341   -0.0156   -0.2007
          44   -0.0069   -0.1314   -0.0902    0.1535   -0.0965   -0.2611   -0.3411   -0.0004
          45   -0.0115    0.0815    0.1007   -0.0286    0.0577    0.0859    0.1222    0.0783
          46   -0.0322   -0.1211   -0.2831   -0.0886   -0.0103    0.0277    0.0130   -0.1667
          47    0.0348    0.2097   -0.3242    0.1053   -0.0249   -0.2087    0.3896    0.0079
          48    0.0272   -0.1512   -0.0680   -0.0239    0.2064    0.0739   -0.1548    0.0144


   Root No.       9        10        11        12        13        14        15        16

                 9 A      10 A      11 A      12 A      13 A      14 A      15 A      16 A   

                 583.5     601.9     624.6     658.8     792.5     863.5     910.0     963.4
  
           1    0.1211   -0.0062   -0.0069   -0.0338   -0.0003   -0.0465   -0.0039    0.0015
           2    0.5291   -0.0434   -0.0354   -0.0371    0.0094   -0.0359   -0.0121    0.0413
           3    0.0159   -0.0033    0.0387    0.0301   -0.0175    0.0619    0.0005   -0.0203
           4    0.0506   -0.0015   -0.0257    0.1744    0.0140   -0.2436    0.0040    0.0030
[...]
     13      Cl        4.993741        0.914855        0.966012
     14       C        9.829566       13.523149        0.899691
     15       C        9.890665       13.213639        2.079808
     16       C       10.086173       13.561077        0.990622
 *******************************************************************************
 ** Site#: 37037        For non-commercial use only           Version 21.158W **
 *******************************************************************************
 ** Cite this program as: MOPAC2016, Version: 21.158W, James J. P. Stewart,   **
 ** Stewart Computational Chemistry, web: HTTP://OpenMOPAC.net. Days left: 363**
 *******************************************************************************
 **                                                                           **
 **                                MOPAC2016                                  **
 **                                                                           **
 *******************************************************************************

                              PM7 CALCULATION RESULTS

 *******************************************************************************
 *  CALCULATION DONE:                                Wed Jun  9 12:22:54 2021  *
 *
 *
 *
 *                 CHARGE ON SYSTEM = +1
 *
 *
 *
 *  EPS=78.4   - USE ANDREAS KLAMT'S COSMO IMPLICIT SOLVATION MODEL
 *  IRC=N      - INTRINSIC REACTION COORDINATE -1 DEFINED
 *  OLDGEO     - PREVIOUS GEOMETRY TO BE USED
 *  PRECISE    - TIGHTER CRITERIA TO BE USED
 *  T=         - A TIME OF 172800.0 SECONDS REQUESTED
 *  DUMP=N     - RESTART FILE WRITTEN EVERY 7200.0 SECONDS REQUESTED
 *  HTML       - WRITE HTML SCRIPT TO GENERATE ANIMATION USING JSMOL
 *             - TO DISPLAY IN PDB FORMAT, ADD "PDBOUT"
 *  X-PRIOR    - GEOMETRY CHANGES TAKE PRIORITY IN DRC
 *******************************************************************************
oldgeo IRC=-1* eps=78.4 charge=1 x-priority=0.02 html  precise
 NH2Cl + pyridinium => [H3NCl](+) + pyridine
 Map IRC path
  ATOM               CHEMICAL                 BOND LENGTH      BOND ANGLE     TWIST ANGLE 
 NUMBER               SYMBOL                  (ANGSTROMS)      (DEGREES)       (DEGREES) 
   (I)                                           NA:I           NB:NA:I       NC:NB:NA:I       NA    NB    NC 
     1       H(HETATM    1  H   NH3 A   1)    0.00000000       0.0000000       0.0000000   
     2       N(HETATM    2  N   NH3 A   1)    1.28849790  *    0.0000000       0.0000000        1     0     0
     3       N(HETATM    3  N   HET B   2)    1.33879123  *  177.7187973  *   -0.3391813  *     1     2     0
     4       C(HETATM    4  C1  HET B   2)    1.35314531  *  119.7900444  *  -69.8263169  *     3     1     2
     5       C(HETATM    5  C2  HET B   2)    1.39633753  *  121.1813988  *  179.9557998  *     4     3     1
     6       H(HETATM    6  H1  HET D   2)    2.16520933  *  145.0442029  *   -0.1427507  *     5     4     3
     7       H(HETATM    7  H2  HET D   2)    2.51168613  *   93.1587051  *    0.0396247  *     6     5     4
     8       H(HETATM    8  H3  HET D   2)    2.09607909  *   92.2105730  *  179.9413488  *     3     1     4
     9       H(HETATM    9  H1  HET B   2)    1.10131952  *  116.9102345  *  179.8784501  *     4     3     5
    10       H(HETATM   10  H2  HET B   2)    1.09285662  *  119.9279695  *  179.9940794  *     5     4     6
    11       H(HETATM   11 1H   NH3 A   1)    1.02641101  *  114.2217206  *  177.7808754  *     2     1     3
    12       H(HETATM   12 2H   NH3 A   1)    1.02747651  *  111.4391458  * -124.2702010  *     2     1    11
    13      Cl(HETATM   13 3CL  NH3 A   1)    1.75432390  *  107.0572575  * -116.8626692  *     2     1    12
    14       C(HETATM   14  C1  HET D   2)    1.09601225  *   33.7613760  *   -0.1284287  *     6     5     7
    15       C(HETATM   15  C2  HET D   2)    1.09278430  *   59.2222732  *   -0.0489190  *     7     6     5
    16       C(HETATM   16  C3  HET D   2)    1.10034458  *   35.1178821  * -179.7422795  *     8     3     1
 

 General Reference for PM7:
 "Optimization of Parameters for Semiempirical Methods VI: More Modifications to the 
 NDDO Approximations and Re-optimization of Parameters", J. J. P. Stewart, J. Mol. Mod., 1:32, 19 (2013)
 https://link.springer.com/article/10.1007/s00894-012-1667-x

           Empirical Formula: C5 H8 N2 Cl  =    16 atoms



      MOLECULAR POINT GROUP   :   C1  


      RHF CALCULATION, NO. OF DOUBLY OCCUPIED LEVELS = 22



          HEAT OF FORMATION =     139.143405 KCALS/MOLE


          GRADIENT NORM =   4.35163


          TIME FOR SCF CALCULATION =    0.03

          TIME FOR DERIVATIVES     =    0.02

          MOLECULAR WEIGHT =  131.58


          ESTIMATED TIME TO COMPLETE CALCULATION =        9.00 SECONDS

    FOR POINT-GROUP C1   THERE ARE   1 UNIQUE SYMMETRY FUNCTIONS.

 STEP:   1 TIME =     0.12 SECS, INTEGRAL =      0.12 TIME LEFT: 172799.83
 STEP:   2 TIME =     0.12 SECS, INTEGRAL =      0.25 TIME LEFT: 172799.70
 STEP:   3 TIME =     0.12 SECS, INTEGRAL =      0.38 TIME LEFT: 172799.58
 STEP:   4 TIME =     0.12 SECS, INTEGRAL =      0.50 TIME LEFT: 172799.45
 STEP:   5 TIME =     0.12 SECS, INTEGRAL =      0.62 TIME LEFT: 172799.33
 STEP:   6 TIME =     0.14 SECS, INTEGRAL =      0.77 TIME LEFT: 172799.19
 STEP:   7 TIME =     0.12 SECS, INTEGRAL =      0.89 TIME LEFT: 172799.06
 STEP:   8 TIME =     0.14 SECS, INTEGRAL =      1.03 TIME LEFT: 172798.92
 STEP:   9 TIME =     0.12 SECS, INTEGRAL =      1.16 TIME LEFT: 172798.80
 STEP:  10 TIME =     0.12 SECS, INTEGRAL =      1.28 TIME LEFT: 172798.67
 STEP:  11 TIME =     0.12 SECS, INTEGRAL =      1.41 TIME LEFT: 172798.55
 STEP:  12 TIME =     0.12 SECS, INTEGRAL =      1.53 TIME LEFT: 172798.42
 STEP:  13 TIME =     0.12 SECS, INTEGRAL =      1.66 TIME LEFT: 172798.30
 STEP:  14 TIME =     0.12 SECS, INTEGRAL =      1.78 TIME LEFT: 172798.17
 STEP:  15 TIME =     0.11 SECS, INTEGRAL =      1.89 TIME LEFT: 172798.06
 STEP:  16 TIME =     0.11 SECS, INTEGRAL =      2.00 TIME LEFT: 172797.95
 STEP:  17 TIME =     0.12 SECS, INTEGRAL =      2.12 TIME LEFT: 172797.83
 STEP:  18 TIME =     0.11 SECS, INTEGRAL =      2.23 TIME LEFT: 172797.72
 STEP:  19 TIME =     0.12 SECS, INTEGRAL =      2.36 TIME LEFT: 172797.59
 STEP:  20 TIME =     0.12 SECS, INTEGRAL =      2.48 TIME LEFT: 172797.47
 STEP:  21 TIME =     0.12 SECS, INTEGRAL =      2.61 TIME LEFT: 172797.34
 STEP:  22 TIME =     0.14 SECS, INTEGRAL =      2.75 TIME LEFT: 172797.20
 STEP:  23 TIME =     0.12 SECS, INTEGRAL =      2.88 TIME LEFT: 172797.08
 STEP:  24 TIME =     0.12 SECS, INTEGRAL =      3.00 TIME LEFT: 172796.95
 STEP:  25 TIME =     0.12 SECS, INTEGRAL =      3.12 TIME LEFT: 172796.83
 STEP:  26 TIME =     0.12 SECS, INTEGRAL =      3.25 TIME LEFT: 172796.70
 STEP:  27 TIME =     0.12 SECS, INTEGRAL =      3.38 TIME LEFT: 172796.58
 STEP:  28 TIME =     0.12 SECS, INTEGRAL =      3.50 TIME LEFT: 172796.45
 STEP:  29 TIME =     0.14 SECS, INTEGRAL =      3.64 TIME LEFT: 172796.31
 STEP:  30 TIME =     0.12 SECS, INTEGRAL =      3.77 TIME LEFT: 172796.19
 STEP:  31 TIME =     0.12 SECS, INTEGRAL =      3.89 TIME LEFT: 172796.06
 STEP:  32 TIME =     0.11 SECS, INTEGRAL =      4.00 TIME LEFT: 172795.95
 STEP:  33 TIME =     0.11 SECS, INTEGRAL =      4.11 TIME LEFT: 172795.84
 STEP:  34 TIME =     0.12 SECS, INTEGRAL =      4.23 TIME LEFT: 172795.72
 STEP:  35 TIME =     0.12 SECS, INTEGRAL =      4.36 TIME LEFT: 172795.59
 STEP:  36 TIME =     0.14 SECS, INTEGRAL =      4.50 TIME LEFT: 172795.45
 STEP:  37 TIME =     0.12 SECS, INTEGRAL =      4.62 TIME LEFT: 172795.33
 STEP:  38 TIME =     0.12 SECS, INTEGRAL =      4.75 TIME LEFT: 172795.20
 STEP:  39 TIME =     0.11 SECS, INTEGRAL =      4.86 TIME LEFT: 172795.09
 STEP:  40 TIME =     0.14 SECS, INTEGRAL =      5.00 TIME LEFT: 172794.95
 STEP:  41 TIME =     0.12 SECS, INTEGRAL =      5.12 TIME LEFT: 172794.83
 STEP:  42 TIME =     0.12 SECS, INTEGRAL =      5.25 TIME LEFT: 172794.70
 STEP:  43 TIME =     0.12 SECS, INTEGRAL =      5.38 TIME LEFT: 172794.58
 STEP:  44 TIME =     0.12 SECS, INTEGRAL =      5.50 TIME LEFT: 172794.45
 STEP:  45 TIME =     0.12 SECS, INTEGRAL =      5.62 TIME LEFT: 172794.33
 STEP:  46 TIME =     0.14 SECS, INTEGRAL =      5.77 TIME LEFT: 172794.19
 STEP:  47 TIME =     0.12 SECS, INTEGRAL =      5.89 TIME LEFT: 172794.06
 STEP:  48 TIME =     0.12 SECS, INTEGRAL =      6.02 TIME LEFT: 172793.94
           INITIAL VELOCITY IN DRC (Angstroms/Femtosecond)
         0.76048        -0.04301         0.00671
        -0.01306        -0.00052         0.00192
        -0.02003         0.00511        -0.00169
        -0.00196        -0.00556        -0.00809
        -0.00550        -0.00024         0.00196
         0.00229        -0.00089         0.00048
        -0.00813         0.00208         0.00245
         0.00238         0.01153         0.02269
         0.00494        -0.01410        -0.02018
        -0.00463        -0.00450        -0.00359
        -0.01309        -0.00579         0.03431
        -0.04506         0.01819         0.02766
         0.00154         0.00002        -0.00231
        -0.00030        -0.00020         0.00012
        -0.00744        -0.00187        -0.00309
        -0.00944         0.00552         0.00972

 GEOMETRY PRIORITY, STEP = 0.0200 ANGSTROMS



     POINT   POTENTIAL  +  ENERGY LOST   =   TOTAL      ERROR    REF%   MOVEMENT
       1     139.14341      0.00000        139.14341   0.00000     1   %  0.0000
       3     139.18028      0.00007        139.18035   0.03694     2   %  0.0582
       6     139.12199      0.03654        139.15853   0.01513     3   %  0.0764
      11     139.08095      0.07964        139.16059   0.01718     4   %  0.0941
      14     139.01705      0.14303        139.16008   0.01667     5   %  0.1142
      17     138.94255      0.22216        139.16471   0.02131     6   %  0.1342
      20     138.84323      0.31814        139.16137   0.01797     7   %  0.1546
      24     138.74007      0.41900        139.15907   0.01566     8   %  0.1737
      28     138.63177      0.52469        139.15646   0.01305     9   %  0.1926
      33     138.53877      0.62324        139.16200   0.01860    10   %  0.2097
      41     138.43509      0.73734        139.17243   0.02903    11   %  0.2298
      47     138.34577      0.83197        139.17774   0.03434    12   %  0.2471
      51     138.25178      0.92805        139.17983   0.03642    13   %  0.2662
      55     138.16771      1.01134        139.17905   0.03565    14   %  0.2849
      57     138.09120      1.08539        139.17659   0.03318    15   %  0.3035
      64     138.03352      1.15083        139.18435   0.04094    16   %  0.3219
      73     137.95770      1.20997        139.16767   0.02427    17   %  0.3398
      84     137.89960      1.26601        139.16562   0.02221    18   %  0.3577
     111     137.83110      1.32190        139.15300   0.00960    19   %  0.3759
     130     137.76322      1.37368        139.13690  -0.00651    20   %  0.3932
     142     137.72057      1.42224        139.14281  -0.00060    21   %  0.4100
     154     137.66874      1.47005        139.13879  -0.00462    22   %  0.4272
     169     137.59224      1.51523        139.10747  -0.03593    23   %  0.4438
     183     137.54974      1.56416        139.11391  -0.02950    24   %  0.4627
     193     137.49482      1.61119        139.10601  -0.03739    25   %  0.4820
     204     137.45175      1.65535        139.10710  -0.03631    26   %  0.5007
     211     137.40633      1.69813        139.10446  -0.03895    27   %  0.5194
     220     137.37027      1.73841        139.10868  -0.03473    28   %  0.5375
     232     137.34510      1.77993        139.12503  -0.01838    29   %  0.5570
     241     137.30280      1.81970        139.12250  -0.02091    30   %  0.5760
     250     137.25896      1.85931        139.11826  -0.02514    31   %  0.5948
     257     137.21958      1.89518        139.11476  -0.02865    32   %  0.6120
     269     137.17406      1.93611        139.11018  -0.03323    33   %  0.6323
     278     137.13694      1.97332        139.11027  -0.03314    34   %  0.6511
     287     137.09728      2.00981        139.10709  -0.03632    35   %  0.6700
     295     137.05769      2.04553        139.10322  -0.04019    36   %  0.6888
     308     137.04039      2.08043        139.12082  -0.02259    37   %  0.7078
     317     137.00259      2.11454        139.11714  -0.02627    38   %  0.7267
     325     136.96578      2.14795        139.11373  -0.02968    39   %  0.7457
     336     136.92805      2.18009        139.10814  -0.03527    40   %  0.7644
     347     136.89465      2.21069        139.10534  -0.03807    41   %  0.7826
     373     136.85390      2.24403        139.09793  -0.04548    42   %  0.8028
     380     136.82081      2.27454        139.09535  -0.04806    43   %  0.8218
     385     136.78950      2.30411        139.09361  -0.04980    44   %  0.8408
     393     136.75870      2.33133        139.09003  -0.05338    45   %  0.8588
     400     136.73070      2.35959        139.09030  -0.05311    46   %  0.8780
     412     136.68077      2.38899        139.06977  -0.07364    47   %  0.8984
     426     136.65187      2.41569        139.06756  -0.07585    48   %  0.9175
     434     136.62176      2.44027        139.06204  -0.08137    49   %  0.9357
     441     136.59201      2.46667        139.05868  -0.08473    50   %  0.9559
     448     136.56418      2.49116        139.05534  -0.08807    51   %  0.9752
     454     136.53705      2.51496        139.05201  -0.09139    52   %  0.9944
     465     136.53354      2.53714        139.07068  -0.07272    53   %  1.0129
     475     136.50437      2.55925        139.06361  -0.07979    54   %  1.0318
     488     136.47699      2.58106        139.05805  -0.08535    55   %  1.0508
     495     136.45302      2.60285        139.05588  -0.08753    56   %  1.0705
     503     136.43004      2.62457        139.05461  -0.08880    57   %  1.0906
     512     136.42500      2.64502        139.07002  -0.07339    58   %  1.1101
     518     136.40231      2.66478        139.06709  -0.07632    59   %  1.1296
     525     136.36685      2.68331        139.05016  -0.09324    60   %  1.1484
     536     136.34564      2.70211        139.04774  -0.09566    61   %  1.1681
     546     136.33885      2.71970        139.05856  -0.08485    62   %  1.1874
     552     136.31882      2.73684        139.05566  -0.08775    63   %  1.2066
     558     136.29922      2.75348        139.05269  -0.09071    64   %  1.2259
     566     136.27492      2.76962        139.04454  -0.09886    65   %  1.2451
     573     136.25610      2.78514        139.04124  -0.10217    66   %  1.2642


           POTENTIAL ENERGY HAS STOPPED DROPPING

           INITIAL VELOCITY IN DRC (Angstroms/Femtosecond)
        -0.76048         0.04301        -0.00671
         0.01306         0.00052        -0.00192
         0.02003        -0.00511         0.00169
         0.00196         0.00556         0.00809
         0.00550         0.00024        -0.00196
        -0.00229         0.00089        -0.00048
         0.00813        -0.00208        -0.00245
        -0.00238        -0.01153        -0.02269
        -0.00494         0.01410         0.02018
         0.00463         0.00450         0.00359
         0.01309         0.00579        -0.03431
         0.04506        -0.01819        -0.02766
        -0.00154        -0.00002         0.00231
         0.00030         0.00020        -0.00012
         0.00744         0.00187         0.00309
         0.00944        -0.00552        -0.00972

 GEOMETRY PRIORITY, STEP = 0.0200 ANGSTROMS



     POINT   POTENTIAL  +  ENERGY LOST   =   TOTAL      ERROR    REF%   MOVEMENT
       1     139.14341      0.00000        139.14341   0.00000     1   %  0.0000
       3     138.93112      0.00009        138.93121  -0.21219     2   %  0.0592
       5     138.86339      0.06663        138.93002  -0.21338     3   %  0.0741
      19     138.77907      0.15910        138.93817  -0.20523     4   %  0.0951
      30     138.67279      0.24657        138.91936  -0.22404     5   %  0.1140
      44     138.59072      0.33880        138.92952  -0.21389     6   %  0.1330
      56     138.48369      0.43553        138.91921  -0.22419     7   %  0.1530
      64     138.39594      0.52813        138.92407  -0.21933     8   %  0.1729
      70     138.31994      0.60103        138.92097  -0.22243     9   %  0.1899
      72     138.25703      0.66376        138.92078  -0.22262    10   %  0.2059
      78     138.15997      0.74686        138.90684  -0.23657    11   %  0.2304
      90     138.10239      0.79976        138.90214  -0.24126    12   %  0.2486
     106     138.05059      0.84652        138.89711  -0.24630    13   %  0.2655
     123     138.00958      0.89158        138.90116  -0.24224    14   %  0.2821
     149     137.94054      0.93454        138.87508  -0.26833    15   %  0.2977
     169     137.93788      0.97527        138.91315  -0.23025    16   %  0.3125
     184     137.88606      1.01764        138.90370  -0.23970    17   %  0.3285
     200     137.83798      1.05736        138.89534  -0.24807    18   %  0.3443
     216     137.79114      1.09612        138.88726  -0.25615    19   %  0.3604
     240     137.78429      1.13383        138.91812  -0.22529    20   %  0.3769
     258     137.73884      1.17055        138.90939  -0.23401    21   %  0.3937
     276     137.69370      1.20661        138.90032  -0.24309    22   %  0.4111
     295     137.64909      1.24205        138.89114  -0.25227    23   %  0.4289
     318     137.62224      1.27693        138.89917  -0.24424    24   %  0.4470
     341     137.58735      1.31114        138.89849  -0.24491    25   %  0.4654
     362     137.54815      1.34483        138.89298  -0.25042    26   %  0.4839
     384     137.50190      1.37788        138.87977  -0.26363    27   %  0.5026
     407     137.47931      1.41030        138.88961  -0.25379    28   %  0.5217
     428     137.44074      1.44297        138.88371  -0.25970    29   %  0.5408
     446     137.39928      1.47567        138.87495  -0.26846    30   %  0.5599
     465     137.35914      1.50767        138.86681  -0.27660    31   %  0.5790
     489     137.31880      1.53901        138.85781  -0.28560    32   %  0.5982
     509     137.27734      1.56972        138.84706  -0.29634    33   %  0.6174
     529     137.23732      1.59984        138.83716  -0.30624    34   %  0.6366
     559     137.20415      1.62853        138.83267  -0.31073    35   %  0.6555
     579     137.16943      1.65839        138.82782  -0.31559    36   %  0.6751
     597     137.13208      1.68698        138.81906  -0.32435    37   %  0.6945
     619     137.10374      1.71494        138.81868  -0.32473    38   %  0.7140
     638     137.06683      1.74233        138.80916  -0.33424    39   %  0.7335
    1304     137.00224      1.76948        138.77172  -0.37169    40   %  0.7530
    2520     136.92581      1.79664        138.72244  -0.42096    41   %  0.7725
    2545     136.88503      1.82297        138.70800  -0.43540    42   %  0.7920
    2579     136.85462      1.84867        138.70329  -0.44012    43   %  0.8116
    2634     136.90379      1.87383        138.77761  -0.36579    44   %  0.8311


           POTENTIAL ENERGY HAS STOPPED DROPPING


 **********************
 *                    *
 * JOB ENDED NORMALLY *
 *                    *
 **********************



 TOTAL JOB TIME:            83.73 SECONDS

 == MOPAC DONE ==
