 *******************************************************************************
 ** Site#: 37037        For non-commercial use only           Version 21.158W **
 *******************************************************************************
 ** Cite this program as: MOPAC2016, Version: 21.158W, James J. P. Stewart,   **
 ** Stewart Computational Chemistry, web: HTTP://OpenMOPAC.net. Days left: 361**
 *******************************************************************************
 **                                                                           **
 **                                MOPAC2016                                  **
 **                                                                           **
 *******************************************************************************

                              PM7 CALCULATION RESULTS

 *******************************************************************************
 *  CALCULATION DONE:                                Fri Jun 11 10:32:27 2021  *
 *  T=         - A TIME OF 172800.0 SECONDS REQUESTED
 *  DUMP=N     - RESTART FILE WRITTEN EVERY 7200.0 SECONDS REQUESTED
 *******************************************************************************

 Optimize the geometry of HCl

   ATOM   CHEMICAL          X               Y               Z
  NUMBER   SYMBOL      (ANGSTROMS)     (ANGSTROMS)     (ANGSTROMS)
 
     1       H          0.00000000      0.00000000      0.00000000   
     2      Cl          1.50000000  *   0.00000000      0.00000000   
 


          CARTESIAN COORDINATES 

    NO.       ATOM           X           Y           Z

     1         H          0.0000      0.0000      0.0000
     2        Cl          1.5000      0.0000      0.0000

 General Reference for PM7:
 "Optimization of Parameters for Semiempirical Methods VI: More Modifications to the 
 NDDO Approximations and Re-optimization of Parameters", J. J. P. Stewart, J. Mol. Mod., 1:32, 19 (2013)
 https://link.springer.com/article/10.1007/s00894-012-1667-x

           Empirical Formula: H Cl  =     2 atoms



      MOLECULAR POINT GROUP   :   C*v 


      RHF CALCULATION, NO. OF DOUBLY OCCUPIED LEVELS = 4


          Geometry optimization using BFGS
 ONLY ONE VARIABLE, THEREFORE ENERGY A MINIMUM

 -------------------------------------------------------------------------------

 Optimize the geometry of HCl



     HEAT OF FORMATION MINIMIZED IN ONE LINE SEARCH           
     SCF FIELD WAS ACHIEVED                                   


                              PM7 CALCULATION
                                                       MOPAC2016 (Version: 21.158W)
                                                       Fri Jun 11 10:32:27 2021
                                                       No. of days remaining = 361




          FINAL HEAT OF FORMATION =        -20.48608 KCAL/MOL =     -85.71375 KJ/MOL


          TOTAL ENERGY            =       -280.71618 EV
          ELECTRONIC ENERGY       =       -344.08222 EV  POINT GROUP:     C*v 
          CORE-CORE REPULSION     =         63.36604 EV
          COSMO AREA              =         54.50 SQUARE ANGSTROMS
          COSMO VOLUME            =         37.64 CUBIC ANGSTROMS

          IONIZATION POTENTIAL    =         11.726799 EV
          HOMO LUMO ENERGIES (EV) =        -11.727  2.069
          NO. OF FILLED LEVELS    =          4
          MOLECULAR WEIGHT        =         36.4609

          MOLECULAR DIMENSIONS (Angstroms)

            Atom       Atom       Distance
           Cl     2    H     1     1.27288
           Cl     2    H     1     0.00000
            H     1   Cl     2     0.00000


          SCF CALCULATIONS        =         12
 
          WALL-CLOCK TIME         =          0.031 SECONDS
          COMPUTATION TIME        =          0.016 SECONDS




   ATOM   CHEMICAL          X               Y               Z
  NUMBER   SYMBOL      (ANGSTROMS)     (ANGSTROMS)     (ANGSTROMS)
 
     1       H          0.00000000      0.00000000      0.00000000   
     2      Cl          1.27288177  *   0.00000000      0.00000000   

                             CARTESIAN COORDINATES

   1    H        0.000000000     0.000000000     0.000000000
   2   Cl        1.272881767     0.000000000     0.000000000


           Empirical Formula: H Cl  =     2 atoms



      MOLECULAR POINT GROUP   :   C*v 


                  EIGENVALUES  
 -26.38535 -15.37064 -11.72680 -11.72680   2.06938  69.42905  69.66978  69.66978
  70.52740  70.52740


              NET ATOMIC CHARGES AND DIPOLE CONTRIBUTIONS

  ATOM NO.   TYPE          CHARGE      No. of ELECS.   s-Pop       p-Pop       d-Pop       
    1          H           0.218866        0.7811     0.78113
    2         Cl          -0.218866        7.2189     1.97988     5.23792     0.00106
 DIPOLE           X         Y         Z       TOTAL
 POINT-CHG.    -1.338     0.000     0.000     1.338
 HYBRID        -0.409    -0.000     0.000     0.409
 SUM           -1.747    -0.000     0.000     1.747


          ATOMIC ORBITAL ELECTRON POPULATIONS

     Atom    s        px        py        pz      x^2-y^2     xz        z^2       yz        xy
    1  H   0.78113
    2 Cl   1.97988   1.23804   1.99994   1.99994   0.00071   0.00006   0.00024   0.00000   0.00006
 *******************************************************************************
 ** Site#: 37037        For non-commercial use only           Version 21.158W **
 *******************************************************************************
 ** Cite this program as: MOPAC2016, Version: 21.158W, James J. P. Stewart,   **
 ** Stewart Computational Chemistry, web: HTTP://OpenMOPAC.net. Days left: 361**
 *******************************************************************************
 **                                                                           **
 **                                MOPAC2016                                  **
 **                                                                           **
 *******************************************************************************

                              PM7 CALCULATION RESULTS

 *******************************************************************************
 *  CALCULATION DONE:                                Fri Jun 11 10:32:27 2021  *
 *  IRC=N      - INTRINSIC REACTION COORDINATE  1 DEFINED
 *  DRC        - DYNAMIC REACTION COORDINATE CALCULATION
 *  OLDGEO     - PREVIOUS GEOMETRY TO BE USED
 *  T=         - A TIME OF 172800.0 SECONDS REQUESTED
 *  DUMP=N     - RESTART FILE WRITTEN EVERY 7200.0 SECONDS REQUESTED
 *  BIGCYCLES  - DO 1 BIG STEPS
 *  LARGE      - EXPANDED OUTPUT TO BE PRINTED
 *  HTML       - WRITE HTML SCRIPT TO GENERATE ANIMATION USING JSMOL
 *             - TO DISPLAY IN PDB FORMAT, ADD "PDBOUT"
 *  T-PRIOR    - TIME TAKES PRIORITY IN DRC
 *******************************************************************************
oldgeo IRC=1 DRC T-priority large bigcycles=1  HTML
 One complete vibrational cycle in hydrogen chloride
 (To see H-Cl distance, click on "Script" at the bottom.)
   ATOM   CHEMICAL          X               Y               Z
  NUMBER   SYMBOL      (ANGSTROMS)     (ANGSTROMS)     (ANGSTROMS)
 
     1       H          0.00000000      0.00000000      0.00000000   
     2      Cl          1.27288177  *   0.00000000      0.00000000   
 


          CARTESIAN COORDINATES 

    NO.       ATOM           X           Y           Z

     1         H          0.0000      0.0000      0.0000
     2        Cl          1.2729      0.0000      0.0000

 General Reference for PM7:
 "Optimization of Parameters for Semiempirical Methods VI: More Modifications to the 
 NDDO Approximations and Re-optimization of Parameters", J. J. P. Stewart, J. Mol. Mod., 1:32, 19 (2013)
 https://link.springer.com/article/10.1007/s00894-012-1667-x

           Empirical Formula: H Cl  =     2 atoms



      MOLECULAR POINT GROUP   :   C*v 


      RHF CALCULATION, NO. OF DOUBLY OCCUPIED LEVELS = 4



          HEAT OF FORMATION =     -20.486076 KCALS/MOLE


          GRADIENT NORM =   0.01792

          MOLECULAR WEIGHT =   36.46


          ESTIMATED TIME TO COMPLETE CALCULATION =        0.00 SECONDS

    FOR POINT-GROUP C*v  THERE ARE  84 UNIQUE SYMMETRY FUNCTIONS.

 STEP:   1 TIME =     0.00 SECS, INTEGRAL =      0.00 TIME LEFT: 172800.00
 STEP:   2 TIME =     0.00 SECS, INTEGRAL =      0.00 TIME LEFT: 172800.00
 STEP:   3 TIME =     0.00 SECS, INTEGRAL =      0.00 TIME LEFT: 172800.00
 STEP:   4 TIME =     0.00 SECS, INTEGRAL =      0.00 TIME LEFT: 172800.00
 STEP:   5 TIME =     0.00 SECS, INTEGRAL =      0.00 TIME LEFT: 172800.00
 STEP:   6 TIME =     0.00 SECS, INTEGRAL =      0.00 TIME LEFT: 172800.00
           INITIAL VELOCITY IN DRC (Angstroms/Femtosecond)
         0.97236        -0.00000        -0.00000
        -0.02764         0.00000         0.00000
 BY DEFAULT, ONE QUANTUM OF ENERGY, EQUIVALENT TO  2916.557 CM(-1)
 WILL BE USED TO START THE DRC
 THIS REPRESENTS AN ENERGY OF   8.34 KCALS/MOLE

 TIME PRIORITY, INTERVAL = 0.10 FEMTOSECONDS



 FEMTOSECONDS  POINT  POTENTIAL + KINETIC  =   TOTAL     ERROR    REF%   MOVEMENT
     0.000       1   -20.48598    8.33700   -12.14897   0.00000     1   %  0.0000
                CARTESIAN GEOMETRY           VELOCITY (IN CM/SEC)
  ATOM        X          Y          Z                X          Y          Z
   1    H   -1.23770    0.00000    0.00000     820389.1       -0.0       -0.0
   2   Cl    0.03519    0.00000    0.00000     -23323.0        0.0        0.0


          FINAL GEOMETRY OBTAINED                                 CHARGE
 OLDGEO IRC=1 DRC T-PRIORITY LARGE BIGCYCLES=1  HTML
 One complete vibrational cycle in hydrogen chloride
 (To see H-Cl distance, click on "Script" at the bottom.)
   H    0.000000  0    0.000000  0    0.000000  0   0  0  0    0.2189       1AA*
  Cl    1.272882  1    0.000000  0    0.000000  0   1  0  0   -0.2189       1AB*


 FEMTOSECONDS  POINT  POTENTIAL + KINETIC  =   TOTAL     ERROR    REF%   MOVEMENT


 HALF-CYCLE TIME =      0.001 FEMTOSECONDS


 FEMTOSECONDS  POINT  POTENTIAL + KINETIC  =   TOTAL     ERROR    REF%   MOVEMENT
     0.001       1   -20.48598    8.33759   -12.14839   0.00058     2   %MIN
                CARTESIAN GEOMETRY           VELOCITY (IN CM/SEC)
  ATOM        X          Y          Z                X          Y          Z
   1    H   -1.23760    0.00000    0.00000     820418.0        0.1        1.3
   2   Cl    0.03518   -0.00000   -0.00000     -23323.8       -0.0       -0.0


          FINAL GEOMETRY OBTAINED                                 CHARGE
 OLDGEO IRC=1 DRC T-PRIORITY LARGE BIGCYCLES=1  HTML
 One complete vibrational cycle in hydrogen chloride
 (To see H-Cl distance, click on "Script" at the bottom.)
   H    0.000000  0    0.000000  0    0.000000  0   0  0  0    0.2133       2AA*
  Cl    1.272783  1    0.000000  0    0.000000  0   1  0  0   -0.2133       2AB*


 FEMTOSECONDS  POINT  POTENTIAL + KINETIC  =   TOTAL     ERROR    REF%   MOVEMENT
     0.100       2   -20.46050    8.33696   -12.12355   0.02542     3   %  0.0084
                CARTESIAN GEOMETRY           VELOCITY (IN CM/SEC)
  ATOM        X          Y          Z                X          Y          Z
   1    H   -1.22949    0.00000    0.00000     820386.8        3.9       68.6
   2   Cl    0.03495   -0.00000   -0.00000     -23322.9       -0.1       -1.9


          FINAL GEOMETRY OBTAINED                                 CHARGE
 OLDGEO IRC=1 DRC T-PRIORITY LARGE BIGCYCLES=1  HTML
 One complete vibrational cycle in hydrogen chloride
 (To see H-Cl distance, click on "Script" at the bottom.)
   H    0.000000  0    0.000000  0    0.000000  0   0  0  0    0.2106       3AA*
  Cl    1.264445  1    0.000000  0    0.000000  0   1  0  0   -0.2106       3AB*


 FEMTOSECONDS  POINT  POTENTIAL + KINETIC  =   TOTAL     ERROR    REF%   MOVEMENT
     0.200       3   -20.38287    8.23501   -12.14786   0.00111     4   %  0.0169
                CARTESIAN GEOMETRY           VELOCITY (IN CM/SEC)
  ATOM        X          Y          Z                X          Y          Z
   1    H   -1.22130    0.00000    0.00000     815355.5        2.9       50.7
   2   Cl    0.03472   -0.00000   -0.00000     -23179.9       -0.1       -1.4


          FINAL GEOMETRY OBTAINED                                 CHARGE
 OLDGEO IRC=1 DRC T-PRIORITY LARGE BIGCYCLES=1  HTML
 One complete vibrational cycle in hydrogen chloride
 (To see H-Cl distance, click on "Script" at the bottom.)
   H    0.000000  0    0.000000  0    0.000000  0   0  0  0    0.2079       4AA*
  Cl    1.256025  1    0.000000  0    0.000000  0   1  0  0   -0.2079       4AB*


 FEMTOSECONDS  POINT  POTENTIAL + KINETIC  =   TOTAL     ERROR    REF%   MOVEMENT
     0.300       4   -20.25255    8.10450   -12.14805   0.00093     5   %  0.0252
                CARTESIAN GEOMETRY           VELOCITY (IN CM/SEC)
  ATOM        X          Y          Z                X          Y          Z
   1    H   -1.21318    0.00000    0.00000     808869.4        2.5       44.4
   2   Cl    0.03449   -0.00000   -0.00000     -22994.9       -0.1       -1.6


          FINAL GEOMETRY OBTAINED                                 CHARGE
 OLDGEO IRC=1 DRC T-PRIORITY LARGE BIGCYCLES=1  HTML
 One complete vibrational cycle in hydrogen chloride
 (To see H-Cl distance, click on "Script" at the bottom.)
   H    0.000000  0    0.000000  0    0.000000  0   0  0  0    0.2052       5AA*
  Cl    1.247670  1    0.000000  0    0.000000  0   1  0  0   -0.2052       5AB*


 FEMTOSECONDS  POINT  POTENTIAL + KINETIC  =   TOTAL     ERROR    REF%   MOVEMENT
     0.400       5   -20.06932    7.92118   -12.14815   0.00083     6   %  0.0335
                CARTESIAN GEOMETRY           VELOCITY (IN CM/SEC)
  ATOM        X          Y          Z                X          Y          Z
   1    H   -1.20514    0.00000    0.00000     799669.2        2.4       43.4
   2   Cl    0.03426   -0.00000   -0.00000     -22732.8       -0.1       -1.6


          FINAL GEOMETRY OBTAINED                                 CHARGE
 OLDGEO IRC=1 DRC T-PRIORITY LARGE BIGCYCLES=1  HTML
 One complete vibrational cycle in hydrogen chloride
 (To see H-Cl distance, click on "Script" at the bottom.)
   H    0.000000  0    0.000000  0    0.000000  0   0  0  0    0.2026       6AA*
  Cl    1.239396  1    0.000000  0    0.000000  0   1  0  0   -0.2026       6AB*


 FEMTOSECONDS  POINT  POTENTIAL + KINETIC  =   TOTAL     ERROR    REF%   MOVEMENT
     0.500       6   -19.83384    7.68559   -12.14825   0.00073     7   %  0.0417
                CARTESIAN GEOMETRY           VELOCITY (IN CM/SEC)
  ATOM        X          Y          Z                X          Y          Z
   1    H   -1.19720    0.00000    0.00000     787688.5        2.4       43.2
   2   Cl    0.03404   -0.00000   -0.00000     -22391.8       -0.1       -1.6


          FINAL GEOMETRY OBTAINED                                 CHARGE
 OLDGEO IRC=1 DRC T-PRIORITY LARGE BIGCYCLES=1  HTML
 One complete vibrational cycle in hydrogen chloride
 (To see H-Cl distance, click on "Script" at the bottom.)
   H    0.000000  0    0.000000  0    0.000000  0   0  0  0    0.2000       7AA*
  Cl    1.231232  1    0.000000  0    0.000000  0   1  0  0   -0.2000       7AB*


 FEMTOSECONDS  POINT  POTENTIAL + KINETIC  =   TOTAL     ERROR    REF%   MOVEMENT
     0.600       7   -19.54760    7.39924   -12.14836   0.00061     8   %  0.0497
                CARTESIAN GEOMETRY           VELOCITY (IN CM/SEC)
  ATOM        X          Y          Z                X          Y          Z
   1    H   -1.18939    0.00000    0.00000     772875.3        2.4       43.2
   2   Cl    0.03381   -0.00000   -0.00000     -21970.3       -0.1       -1.6


          FINAL GEOMETRY OBTAINED                                 CHARGE
 OLDGEO IRC=1 DRC T-PRIORITY LARGE BIGCYCLES=1  HTML
 One complete vibrational cycle in hydrogen chloride
 (To see H-Cl distance, click on "Script" at the bottom.)
   H    0.000000  0    0.000000  0    0.000000  0   0  0  0    0.1975       8AA*
  Cl    1.223204  1    0.000000  0    0.000000  0   1  0  0   -0.1975       8AB*


 FEMTOSECONDS  POINT  POTENTIAL + KINETIC  =   TOTAL     ERROR    REF%   MOVEMENT
     0.700       8   -19.21300    7.06450   -12.14850   0.00048     9   %  0.0575
                CARTESIAN GEOMETRY           VELOCITY (IN CM/SEC)
  ATOM        X          Y          Z                X          Y          Z
   1    H   -1.18175    0.00000    0.00000     755191.2        2.4       43.2
   2   Cl    0.03360   -0.00000   -0.00000     -21467.2       -0.1       -1.6


          FINAL GEOMETRY OBTAINED                                 CHARGE
 OLDGEO IRC=1 DRC T-PRIORITY LARGE BIGCYCLES=1  HTML
 One complete vibrational cycle in hydrogen chloride
 (To see H-Cl distance, click on "Script" at the bottom.)
   H    0.000000  0    0.000000  0    0.000000  0   0  0  0    0.1950       9AA*
  Cl    1.215344  1    0.000000  0    0.000000  0   1  0  0   -0.1950       9AB*


 FEMTOSECONDS  POINT  POTENTIAL + KINETIC  =   TOTAL     ERROR    REF%   MOVEMENT
     0.800       9   -18.83337    6.68473   -12.14865   0.00033    10   %  0.0652
                CARTESIAN GEOMETRY           VELOCITY (IN CM/SEC)
  ATOM        X          Y          Z                X          Y          Z
   1    H   -1.17430    0.00000    0.00000     734612.2        2.4       43.2
   2   Cl    0.03338   -0.00000   -0.00000     -20882.0       -0.1       -1.6


          FINAL GEOMETRY OBTAINED                                 CHARGE
 OLDGEO IRC=1 DRC T-PRIORITY LARGE BIGCYCLES=1  HTML
 One complete vibrational cycle in hydrogen chloride
 (To see H-Cl distance, click on "Script" at the bottom.)
   H    0.000000  0    0.000000  0    0.000000  0   0  0  0    0.1927      10AA*
  Cl    1.207681  1    0.000000  0    0.000000  0   1  0  0   -0.1927      10AB*


 FEMTOSECONDS  POINT  POTENTIAL + KINETIC  =   TOTAL     ERROR    REF%   MOVEMENT
     0.900      10   -18.41299    6.26419   -12.14880   0.00017    11   %  0.0726
                CARTESIAN GEOMETRY           VELOCITY (IN CM/SEC)
  ATOM        X          Y          Z                X          Y          Z
   1    H   -1.16707    0.00000    0.00000     711129.8        2.4       43.3
   2   Cl    0.03318   -0.00000   -0.00000     -20214.2       -0.1       -1.6


          FINAL GEOMETRY OBTAINED                                 CHARGE
 OLDGEO IRC=1 DRC T-PRIORITY LARGE BIGCYCLES=1  HTML
 One complete vibrational cycle in hydrogen chloride
 (To see H-Cl distance, click on "Script" at the bottom.)
   H    0.000000  0    0.000000  0    0.000000  0   0  0  0    0.1904      11AA*
  Cl    1.200244  1    0.000000  0    0.000000  0   1  0  0   -0.1904      11AB*


 FEMTOSECONDS  POINT  POTENTIAL + KINETIC  =   TOTAL     ERROR    REF%   MOVEMENT
     1.000      11   -17.95707    5.80810   -12.14897   0.00001    12   %  0.0798
                CARTESIAN GEOMETRY           VELOCITY (IN CM/SEC)
  ATOM        X          Y          Z                X          Y          Z
   1    H   -1.16008    0.00000    0.00000     684752.6        2.5       43.4
   2   Cl    0.03298   -0.00000   -0.00000     -19464.4       -0.1       -1.6


          FINAL GEOMETRY OBTAINED                                 CHARGE
 OLDGEO IRC=1 DRC T-PRIORITY LARGE BIGCYCLES=1  HTML
 One complete vibrational cycle in hydrogen chloride
 (To see H-Cl distance, click on "Script" at the bottom.)
   H    0.000000  0    0.000000  0    0.000000  0   0  0  0    0.1882      12AA*
  Cl    1.193064  1    0.000000  0    0.000000  0   1  0  0   -0.1882      12AB*


 FEMTOSECONDS  POINT  POTENTIAL + KINETIC  =   TOTAL     ERROR    REF%   MOVEMENT
     1.100      12   -17.47173    5.32259   -12.14914  -0.00016    13   %  0.0867
                CARTESIAN GEOMETRY           VELOCITY (IN CM/SEC)
  ATOM        X          Y          Z                X          Y          Z
   1    H   -1.15338    0.00000    0.00000     655508.3        2.5       43.5
   2   Cl    0.03279   -0.00000   -0.00000     -18633.1       -0.1       -1.6


          FINAL GEOMETRY OBTAINED                                 CHARGE
 OLDGEO IRC=1 DRC T-PRIORITY LARGE BIGCYCLES=1  HTML
 One complete vibrational cycle in hydrogen chloride
 (To see H-Cl distance, click on "Script" at the bottom.)
   H    0.000000  0    0.000000  0    0.000000  0   0  0  0    0.1861      13AA*
  Cl    1.186169  1    0.000000  0    0.000000  0   1  0  0   -0.1861      13AB*


 FEMTOSECONDS  POINT  POTENTIAL + KINETIC  =   TOTAL     ERROR    REF%   MOVEMENT
     1.200      13   -16.96393    4.81462   -12.14931  -0.00033    14   %  0.0933
                CARTESIAN GEOMETRY           VELOCITY (IN CM/SEC)
  ATOM        X          Y          Z                X          Y          Z
   1    H   -1.14698    0.00000    0.00001     623444.1        2.5       43.7
   2   Cl    0.03261   -0.00000   -0.00000     -17721.8       -0.1       -1.6


          FINAL GEOMETRY OBTAINED                                 CHARGE
 OLDGEO IRC=1 DRC T-PRIORITY LARGE BIGCYCLES=1  HTML
 One complete vibrational cycle in hydrogen chloride
 (To see H-Cl distance, click on "Script" at the bottom.)
   H    0.000000  0    0.000000  0    0.000000  0   0  0  0    0.1842      14AA*
  Cl    1.179590  1    0.000000  0    0.000000  0   1  0  0   -0.1842      14AB*


 FEMTOSECONDS  POINT  POTENTIAL + KINETIC  =   TOTAL     ERROR    REF%   MOVEMENT
     1.300      13   -16.44138    4.29191   -12.14947  -0.00049    15   %  0.0995
                CARTESIAN GEOMETRY           VELOCITY (IN CM/SEC)
  ATOM        X          Y          Z                X          Y          Z
   1    H   -1.14092    0.00000    0.00001     588628.6        2.5       43.8
   2   Cl    0.03244   -0.00000   -0.00000     -16732.4       -0.1       -1.6


          FINAL GEOMETRY OBTAINED                                 CHARGE
 OLDGEO IRC=1 DRC T-PRIORITY LARGE BIGCYCLES=1  HTML
 One complete vibrational cycle in hydrogen chloride
 (To see H-Cl distance, click on "Script" at the bottom.)
   H    0.000000  0    0.000000  0    0.000000  0   0  0  0    0.1842      15AA*
  Cl    1.173356  1    0.000000  0    0.000000  0   1  0  0   -0.1842      15AB*


 FEMTOSECONDS  POINT  POTENTIAL + KINETIC  =   TOTAL     ERROR    REF%   MOVEMENT
     1.400      15   -15.91242    3.76280   -12.14962  -0.00064    16   %  0.1054
                CARTESIAN GEOMETRY           VELOCITY (IN CM/SEC)
  ATOM        X          Y          Z                X          Y          Z
   1    H   -1.13522    0.00000    0.00001     551151.9        2.5       44.0
   2   Cl    0.03227   -0.00000   -0.00000     -15667.5       -0.1       -1.6


          FINAL GEOMETRY OBTAINED                                 CHARGE
 OLDGEO IRC=1 DRC T-PRIORITY LARGE BIGCYCLES=1  HTML
 One complete vibrational cycle in hydrogen chloride
 (To see H-Cl distance, click on "Script" at the bottom.)
   H    0.000000  0    0.000000  0    0.000000  0   0  0  0    0.1807      16AA*
  Cl    1.167492  1    0.000000  0    0.000000  0   1  0  0   -0.1807      16AB*


 FEMTOSECONDS  POINT  POTENTIAL + KINETIC  =   TOTAL     ERROR    REF%   MOVEMENT
     1.600      16   -14.87094    2.72107   -12.14987  -0.00089    17   %  0.1159
                CARTESIAN GEOMETRY           VELOCITY (IN CM/SEC)
  ATOM        X          Y          Z                X          Y          Z
   1    H   -1.12500    0.00000    0.00001     468688.6        2.5       44.5
   2   Cl    0.03198   -0.00000   -0.00000     -13324.7       -0.1       -1.7


          FINAL GEOMETRY OBTAINED                                 CHARGE
 OLDGEO IRC=1 DRC T-PRIORITY LARGE BIGCYCLES=1  HTML
 One complete vibrational cycle in hydrogen chloride
 (To see H-Cl distance, click on "Script" at the bottom.)
   H    0.000000  0    0.000000  0    0.000000  0   0  0  0    0.1791      17AA*
  Cl    1.156988  1    0.000000  0    0.000000  0   1  0  0   -0.1791      17AB*


 FEMTOSECONDS  POINT  POTENTIAL + KINETIC  =   TOTAL     ERROR    REF%   MOVEMENT
     1.700      17   -14.37683    2.22687   -12.14997  -0.00099    18   %  0.1205
                CARTESIAN GEOMETRY           VELOCITY (IN CM/SEC)
  ATOM        X          Y          Z                X          Y          Z
   1    H   -1.12054    0.00000    0.00001     423994.9        2.5       44.8
   2   Cl    0.03186   -0.00000   -0.00000     -12055.1       -0.1       -1.7


          FINAL GEOMETRY OBTAINED                                 CHARGE
 OLDGEO IRC=1 DRC T-PRIORITY LARGE BIGCYCLES=1  HTML
 One complete vibrational cycle in hydrogen chloride
 (To see H-Cl distance, click on "Script" at the bottom.)
   H    0.000000  0    0.000000  0    0.000000  0   0  0  0    0.1778      18AA*
  Cl    1.152396  1    0.000000  0    0.000000  0   1  0  0   -0.1778      18AB*


 FEMTOSECONDS  POINT  POTENTIAL + KINETIC  =   TOTAL     ERROR    REF%   MOVEMENT
     1.800      18   -13.91273    1.76270   -12.15003  -0.00105    19   %  0.1246
                CARTESIAN GEOMETRY           VELOCITY (IN CM/SEC)
  ATOM        X          Y          Z                X          Y          Z
   1    H   -1.11653    0.00000    0.00001     377225.6        2.5       45.1
   2   Cl    0.03174   -0.00000   -0.00000     -10726.6       -0.1       -1.7


          FINAL GEOMETRY OBTAINED                                 CHARGE
 OLDGEO IRC=1 DRC T-PRIORITY LARGE BIGCYCLES=1  HTML
 One complete vibrational cycle in hydrogen chloride
 (To see H-Cl distance, click on "Script" at the bottom.)
   H    0.000000  0    0.000000  0    0.000000  0   0  0  0    0.1766      19AA*
  Cl    1.148275  1    0.000000  0    0.000000  0   1  0  0   -0.1766      19AB*


 FEMTOSECONDS  POINT  POTENTIAL + KINETIC  =   TOTAL     ERROR    REF%   MOVEMENT
     1.900      19   -13.48748    1.33741   -12.15006  -0.00108    20   %  0.1282
                CARTESIAN GEOMETRY           VELOCITY (IN CM/SEC)
  ATOM        X          Y          Z                X          Y          Z
   1    H   -1.11300    0.00000    0.00001     328581.5        2.6       45.5
   2   Cl    0.03164   -0.00000   -0.00000      -9345.0       -0.1       -1.7


          FINAL GEOMETRY OBTAINED                                 CHARGE
 OLDGEO IRC=1 DRC T-PRIORITY LARGE BIGCYCLES=1  HTML
 One complete vibrational cycle in hydrogen chloride
 (To see H-Cl distance, click on "Script" at the bottom.)
   H    0.000000  0    0.000000  0    0.000000  0   0  0  0    0.1755      20AA*
  Cl    1.144644  1    0.000000  0    0.000000  0   1  0  0   -0.1755      20AB*


 FEMTOSECONDS  POINT  POTENTIAL + KINETIC  =   TOTAL     ERROR    REF%   MOVEMENT
     2.000      20   -13.10938    0.95931   -12.15007  -0.00109    21   %  0.1314
                CARTESIAN GEOMETRY           VELOCITY (IN CM/SEC)
  ATOM        X          Y          Z                X          Y          Z
   1    H   -1.10997    0.00000    0.00001     278283.4        2.6       45.9
   2   Cl    0.03156   -0.00000   -0.00000      -7916.5       -0.1       -1.7


          FINAL GEOMETRY OBTAINED                                 CHARGE
 OLDGEO IRC=1 DRC T-PRIORITY LARGE BIGCYCLES=1  HTML
 One complete vibrational cycle in hydrogen chloride
 (To see H-Cl distance, click on "Script" at the bottom.)
   H    0.000000  0    0.000000  0    0.000000  0   0  0  0    0.1747      21AA*
  Cl    1.141522  1    0.000000  0    0.000000  0   1  0  0   -0.1747      21AB*


 FEMTOSECONDS  POINT  POTENTIAL + KINETIC  =   TOTAL     ERROR    REF%   MOVEMENT
     2.100      21   -12.78597    0.63592   -12.15005  -0.00107    22   %  0.1340
                CARTESIAN GEOMETRY           VELOCITY (IN CM/SEC)
  ATOM        X          Y          Z                X          Y          Z
   1    H   -1.10744    0.00000    0.00001     226570.2        2.6       46.3
   2   Cl    0.03148   -0.00000   -0.00000      -6447.9       -0.1       -1.7


          FINAL GEOMETRY OBTAINED                                 CHARGE
 OLDGEO IRC=1 DRC T-PRIORITY LARGE BIGCYCLES=1  HTML
 One complete vibrational cycle in hydrogen chloride
 (To see H-Cl distance, click on "Script" at the bottom.)
   H    0.000000  0    0.000000  0    0.000000  0   0  0  0    0.1740      22AA*
  Cl    1.138926  1    0.000000  0    0.000000  0   1  0  0   -0.1740      22AB*


 FEMTOSECONDS  POINT  POTENTIAL + KINETIC  =   TOTAL     ERROR    REF%   MOVEMENT
     2.200      22   -12.52377    0.37376   -12.15001  -0.00103    23   %  0.1360
                CARTESIAN GEOMETRY           VELOCITY (IN CM/SEC)
  ATOM        X          Y          Z                X          Y          Z
   1    H   -1.10544    0.00000    0.00001     173697.2        2.6       46.8
   2   Cl    0.03143   -0.00000   -0.00000      -4946.5       -0.1       -1.7


          FINAL GEOMETRY OBTAINED                                 CHARGE
 OLDGEO IRC=1 DRC T-PRIORITY LARGE BIGCYCLES=1  HTML
 One complete vibrational cycle in hydrogen chloride
 (To see H-Cl distance, click on "Script" at the bottom.)
   H    0.000000  0    0.000000  0    0.000000  0   0  0  0    0.1735      23AA*
  Cl    1.136867  1    0.000000  0    0.000000  0   1  0  0   -0.1735      23AB*


 FEMTOSECONDS  POINT  POTENTIAL + KINETIC  =   TOTAL     ERROR    REF%   MOVEMENT
     2.300      23   -12.32817    0.17820   -12.14997  -0.00099    24   %  0.1375
                CARTESIAN GEOMETRY           VELOCITY (IN CM/SEC)
  ATOM        X          Y          Z                X          Y          Z
   1    H   -1.10397    0.00000    0.00001     119933.0        2.7       47.4
   2   Cl    0.03138   -0.00000   -0.00000      -3419.8       -0.1       -1.7


          FINAL GEOMETRY OBTAINED                                 CHARGE
 OLDGEO IRC=1 DRC T-PRIORITY LARGE BIGCYCLES=1  HTML
 One complete vibrational cycle in hydrogen chloride
 (To see H-Cl distance, click on "Script" at the bottom.)
   H    0.000000  0    0.000000  0    0.000000  0   0  0  0    0.1731      24AA*
  Cl    1.135357  1    0.000000  0    0.000000  0   1  0  0   -0.1731      24AB*


 FEMTOSECONDS  POINT  POTENTIAL + KINETIC  =   TOTAL     ERROR    REF%   MOVEMENT
     2.400      24   -12.20319    0.05319   -12.15000  -0.00102    25   %  0.1385
                CARTESIAN GEOMETRY           VELOCITY (IN CM/SEC)
  ATOM        X          Y          Z                X          Y          Z
   1    H   -1.10304    0.00000    0.00001      65530.0        2.7       48.0
   2   Cl    0.03136   -0.00000   -0.00000      -1875.1       -0.1       -1.8


          FINAL GEOMETRY OBTAINED                                 CHARGE
 OLDGEO IRC=1 DRC T-PRIORITY LARGE BIGCYCLES=1  HTML
 One complete vibrational cycle in hydrogen chloride
 (To see H-Cl distance, click on "Script" at the bottom.)
   H    0.000000  0    0.000000  0    0.000000  0   0  0  0    0.1730      25AA*
  Cl    1.134403  1    0.000000  0    0.000000  0   1  0  0   -0.1730      25AB*


 FEMTOSECONDS  POINT  POTENTIAL + KINETIC  =   TOTAL     ERROR    REF%   MOVEMENT
     2.500      25   -12.15150   -0.00039   -12.15189  -0.00291    26   %  0.1389
                CARTESIAN GEOMETRY           VELOCITY (IN CM/SEC)
  ATOM        X          Y          Z                X          Y          Z
   1    H   -1.10266    0.00000    0.00001      11640.3        2.7       48.2
   2   Cl    0.03135   -0.00000   -0.00000       -345.1       -0.1       -1.8


          FINAL GEOMETRY OBTAINED                                 CHARGE
 OLDGEO IRC=1 DRC T-PRIORITY LARGE BIGCYCLES=1  HTML
 One complete vibrational cycle in hydrogen chloride
 (To see H-Cl distance, click on "Script" at the bottom.)
   H    0.000000  0    0.000000  0    0.000000  0   0  0  0    0.1731      26AA*
  Cl    1.134011  1    0.000000  0    0.000000  0   1  0  0   -0.1731      26AB*


 FEMTOSECONDS  POINT  POTENTIAL + KINETIC  =   TOTAL     ERROR    REF%   MOVEMENT
     2.600      26   -12.17173    0.05690   -12.11483   0.03415    27   %  0.1387
                CARTESIAN GEOMETRY           VELOCITY (IN CM/SEC)
  ATOM        X          Y          Z                X          Y          Z
   1    H   -1.10281    0.00000    0.00001     -62251.4        3.6       63.2
   2   Cl    0.03135   -0.00000   -0.00000       1747.9       -0.1       -2.3


          FINAL GEOMETRY OBTAINED                                 CHARGE
 OLDGEO IRC=1 DRC T-PRIORITY LARGE BIGCYCLES=1  HTML
 One complete vibrational cycle in hydrogen chloride
 (To see H-Cl distance, click on "Script" at the bottom.)
   H    0.000000  0    0.000000  0    0.000000  0   0  0  0    0.1736      27AA*
  Cl    1.134164  1    0.000000  0    0.000000  0   1  0  0   -0.1736      27AB*


 FEMTOSECONDS  POINT  POTENTIAL + KINETIC  =   TOTAL     ERROR    REF%   MOVEMENT
     2.700      27   -12.29433    0.09400   -12.20032  -0.05134    28   %  0.1378
                CARTESIAN GEOMETRY           VELOCITY (IN CM/SEC)
  ATOM        X          Y          Z                X          Y          Z
   1    H   -1.10372    0.00000    0.00001     -94175.4        3.1       55.3
   2   Cl    0.03138   -0.00000   -0.00000       2656.5       -0.1       -2.0


          FINAL GEOMETRY OBTAINED                                 CHARGE
 OLDGEO IRC=1 DRC T-PRIORITY LARGE BIGCYCLES=1  HTML
 One complete vibrational cycle in hydrogen chloride
 (To see H-Cl distance, click on "Script" at the bottom.)
   H    0.000000  0    0.000000  0    0.000000  0   0  0  0    0.1743      28AA*
  Cl    1.135097  1    0.000000  0    0.000000  0   1  0  0   -0.1743      28AB*


 FEMTOSECONDS  POINT  POTENTIAL + KINETIC  =   TOTAL     ERROR    REF%   MOVEMENT
     2.800      28   -12.45746    0.35383   -12.10363   0.04535    29   %  0.1365
                CARTESIAN GEOMETRY           VELOCITY (IN CM/SEC)
  ATOM        X          Y          Z                X          Y          Z
   1    H   -1.10494    0.00000    0.00001    -163301.5        3.3       58.5
   2   Cl    0.03141   -0.00000   -0.00000       4616.2       -0.1       -2.1


          FINAL GEOMETRY OBTAINED                                 CHARGE
 OLDGEO IRC=1 DRC T-PRIORITY LARGE BIGCYCLES=1  HTML
 One complete vibrational cycle in hydrogen chloride
 (To see H-Cl distance, click on "Script" at the bottom.)
   H    0.000000  0    0.000000  0    0.000000  0   0  0  0    0.1752      29AA*
  Cl    1.136347  1    0.000000  0    0.000000  0   1  0  0   -0.1752      29AB*


 FEMTOSECONDS  POINT  POTENTIAL + KINETIC  =   TOTAL     ERROR    REF%   MOVEMENT
     2.900      29   -12.69899    0.60780   -12.09120   0.05778    30   %  0.1346
                CARTESIAN GEOMETRY           VELOCITY (IN CM/SEC)
  ATOM        X          Y          Z                X          Y          Z
   1    H   -1.10677    0.00000    0.00001    -222402.2        3.5       61.5
   2   Cl    0.03146   -0.00000   -0.00000       6292.4       -0.1       -2.2


          FINAL GEOMETRY OBTAINED                                 CHARGE
 OLDGEO IRC=1 DRC T-PRIORITY LARGE BIGCYCLES=1  HTML
 One complete vibrational cycle in hydrogen chloride
 (To see H-Cl distance, click on "Script" at the bottom.)
   H    0.000000  0    0.000000  0    0.000000  0   0  0  0    0.1762      30AA*
  Cl    1.138237  1    0.000000  0    0.000000  0   1  0  0   -0.1762      30AB*


 FEMTOSECONDS  POINT  POTENTIAL + KINETIC  =   TOTAL     ERROR    REF%   MOVEMENT
     3.000      30   -13.02187    0.83542   -12.18646  -0.03748    31   %  0.1321
                CARTESIAN GEOMETRY           VELOCITY (IN CM/SEC)
  ATOM        X          Y          Z                X          Y          Z
   1    H   -1.10928    0.00000    0.00001    -259398.4        3.3       58.5
   2   Cl    0.03153   -0.00000   -0.00000       7344.1       -0.1       -2.1


          FINAL GEOMETRY OBTAINED                                 CHARGE
 OLDGEO IRC=1 DRC T-PRIORITY LARGE BIGCYCLES=1  HTML
 One complete vibrational cycle in hydrogen chloride
 (To see H-Cl distance, click on "Script" at the bottom.)
   H    0.000000  0    0.000000  0    0.000000  0   0  0  0    0.1773      31AA*
  Cl    1.140812  1    0.000000  0    0.000000  0   1  0  0   -0.1773      31AB*


 FEMTOSECONDS  POINT  POTENTIAL + KINETIC  =   TOTAL     ERROR    REF%   MOVEMENT
     3.100      31   -13.37952    1.24966   -12.12986   0.01912    32   %  0.1291
                CARTESIAN GEOMETRY           VELOCITY (IN CM/SEC)
  ATOM        X          Y          Z                X          Y          Z
   1    H   -1.11213    0.00000    0.00001    -317695.8        3.4       60.6
   2   Cl    0.03162   -0.00000   -0.00000       8998.0       -0.1       -2.2


          FINAL GEOMETRY OBTAINED                                 CHARGE
 OLDGEO IRC=1 DRC T-PRIORITY LARGE BIGCYCLES=1  HTML
 One complete vibrational cycle in hydrogen chloride
 (To see H-Cl distance, click on "Script" at the bottom.)
   H    0.000000  0    0.000000  0    0.000000  0   0  0  0    0.1786      32AA*
  Cl    1.143741  1    0.000000  0    0.000000  0   1  0  0   -0.1786      32AB*


 FEMTOSECONDS  POINT  POTENTIAL + KINETIC  =   TOTAL     ERROR    REF%   MOVEMENT
     3.200      32   -13.79598    1.64168   -12.15431  -0.00532    33   %  0.1256
                CARTESIAN GEOMETRY           VELOCITY (IN CM/SEC)
  ATOM        X          Y          Z                X          Y          Z
   1    H   -1.11555    0.00000    0.00002    -364040.1        3.4       60.8
   2   Cl    0.03171   -0.00000   -0.00000      10314.7       -0.1       -2.2


          FINAL GEOMETRY OBTAINED                                 CHARGE
 OLDGEO IRC=1 DRC T-PRIORITY LARGE BIGCYCLES=1  HTML
 One complete vibrational cycle in hydrogen chloride
 (To see H-Cl distance, click on "Script" at the bottom.)
   H    0.000000  0    0.000000  0    0.000000  0   0  0  0    0.1801      33AA*
  Cl    1.147263  1    0.000000  0    0.000000  0   1  0  0   -0.1801      33AB*


 FEMTOSECONDS  POINT  POTENTIAL + KINETIC  =   TOTAL     ERROR    REF%   MOVEMENT
     3.300      33   -14.25013    2.10375   -12.14639   0.00259    34   %  0.1216
                CARTESIAN GEOMETRY           VELOCITY (IN CM/SEC)
  ATOM        X          Y          Z                X          Y          Z
   1    H   -1.11943    0.00000    0.00002    -412124.0        3.5       61.5
   2   Cl    0.03182   -0.00000   -0.00000      11679.7       -0.1       -2.2


          FINAL GEOMETRY OBTAINED                                 CHARGE
 OLDGEO IRC=1 DRC T-PRIORITY LARGE BIGCYCLES=1  HTML
 One complete vibrational cycle in hydrogen chloride
 (To see H-Cl distance, click on "Script" at the bottom.)
   H    0.000000  0    0.000000  0    0.000000  0   0  0  0    0.1817      34AA*
  Cl    1.151251  1    0.000000  0    0.000000  0   1  0  0   -0.1817      34AB*


 FEMTOSECONDS  POINT  POTENTIAL + KINETIC  =   TOTAL     ERROR    REF%   MOVEMENT
     3.400      34   -14.73759    2.58912   -12.14847   0.00052    35   %  0.1172
                CARTESIAN GEOMETRY           VELOCITY (IN CM/SEC)
  ATOM        X          Y          Z                X          Y          Z
   1    H   -1.12378    0.00000    0.00002    -457199.0        3.5       62.2
   2   Cl    0.03195   -0.00000   -0.00000      12959.8       -0.1       -2.2


          FINAL GEOMETRY OBTAINED                                 CHARGE
 OLDGEO IRC=1 DRC T-PRIORITY LARGE BIGCYCLES=1  HTML
 One complete vibrational cycle in hydrogen chloride
 (To see H-Cl distance, click on "Script" at the bottom.)
   H    0.000000  0    0.000000  0    0.000000  0   0  0  0    0.1835      35AA*
  Cl    1.155724  1    0.000000  0    0.000000  0   1  0  0   -0.1835      35AB*


 FEMTOSECONDS  POINT  POTENTIAL + KINETIC  =   TOTAL     ERROR    REF%   MOVEMENT
     3.500      35   -15.24808    3.10011   -12.14797   0.00101    36   %  0.1122
                CARTESIAN GEOMETRY           VELOCITY (IN CM/SEC)
  ATOM        X          Y          Z                X          Y          Z
   1    H   -1.12857    0.00000    0.00002    -500287.2        3.5       62.8
   2   Cl    0.03208   -0.00000   -0.00000      14183.4       -0.1       -2.2


          FINAL GEOMETRY OBTAINED                                 CHARGE
 OLDGEO IRC=1 DRC T-PRIORITY LARGE BIGCYCLES=1  HTML
 One complete vibrational cycle in hydrogen chloride
 (To see H-Cl distance, click on "Script" at the bottom.)
   H    0.000000  0    0.000000  0    0.000000  0   0  0  0    0.1854      36AA*
  Cl    1.160650  1    0.000000  0    0.000000  0   1  0  0   -0.1854      36AB*


 FEMTOSECONDS  POINT  POTENTIAL + KINETIC  =   TOTAL     ERROR    REF%   MOVEMENT
     3.600      36   -15.77261    3.62452   -12.14808   0.00090    37   %  0.1069
                CARTESIAN GEOMETRY           VELOCITY (IN CM/SEC)
  ATOM        X          Y          Z                X          Y          Z
   1    H   -1.13378    0.00000    0.00002    -540950.5        3.6       63.4
   2   Cl    0.03223   -0.00000   -0.00000      15338.3       -0.1       -2.3


          FINAL GEOMETRY OBTAINED                                 CHARGE
 OLDGEO IRC=1 DRC T-PRIORITY LARGE BIGCYCLES=1  HTML
 One complete vibrational cycle in hydrogen chloride
 (To see H-Cl distance, click on "Script" at the bottom.)
   H    0.000000  0    0.000000  0    0.000000  0   0  0  0    0.1874      37AA*
  Cl    1.166006  1    0.000000  0    0.000000  0   1  0  0   -0.1874      37AB*


 FEMTOSECONDS  POINT  POTENTIAL + KINETIC  =   TOTAL     ERROR    REF%   MOVEMENT
     3.700      37   -16.30191    4.15380   -12.14812   0.00087    38   %  0.1011
                CARTESIAN GEOMETRY           VELOCITY (IN CM/SEC)
  ATOM        X          Y          Z                X          Y          Z
   1    H   -1.13938    0.00000    0.00002    -579103.0        3.6       64.0
   2   Cl    0.03239   -0.00000   -0.00000      16421.9       -0.1       -2.3


          FINAL GEOMETRY OBTAINED                                 CHARGE
 OLDGEO IRC=1 DRC T-PRIORITY LARGE BIGCYCLES=1  HTML
 One complete vibrational cycle in hydrogen chloride
 (To see H-Cl distance, click on "Script" at the bottom.)
   H    0.000000  0    0.000000  0    0.000000  0   0  0  0    0.1896      38AA*
  Cl    1.171767  1    0.000000  0    0.000000  0   1  0  0   -0.1896      38AB*


 FEMTOSECONDS  POINT  POTENTIAL + KINETIC  =   TOTAL     ERROR    REF%   MOVEMENT
     3.800      38   -16.82708    4.67889   -12.14819   0.00079    39   %  0.0950
                CARTESIAN GEOMETRY           VELOCITY (IN CM/SEC)
  ATOM        X          Y          Z                X          Y          Z
   1    H   -1.14535    0.00000    0.00002    -614617.7        3.6       64.6
   2   Cl    0.03256   -0.00000   -0.00000      17430.7       -0.1       -2.3


          FINAL GEOMETRY OBTAINED                                 CHARGE
 OLDGEO IRC=1 DRC T-PRIORITY LARGE BIGCYCLES=1  HTML
 One complete vibrational cycle in hydrogen chloride
 (To see H-Cl distance, click on "Script" at the bottom.)
   H    0.000000  0    0.000000  0    0.000000  0   0  0  0    0.1918      39AA*
  Cl    1.177908  1    0.000000  0    0.000000  0   1  0  0   -0.1918      39AB*


 FEMTOSECONDS  POINT  POTENTIAL + KINETIC  =   TOTAL     ERROR    REF%   MOVEMENT
     3.900      39   -17.33960    5.19132   -12.14829   0.00070    40   %  0.0885
                CARTESIAN GEOMETRY           VELOCITY (IN CM/SEC)
  ATOM        X          Y          Z                X          Y          Z
   1    H   -1.15166    0.00000    0.00002    -647401.0        3.7       65.1
   2   Cl    0.03274   -0.00000   -0.00000      18361.9       -0.1       -2.3


          FINAL GEOMETRY OBTAINED                                 CHARGE
 OLDGEO IRC=1 DRC T-PRIORITY LARGE BIGCYCLES=1  HTML
 One complete vibrational cycle in hydrogen chloride
 (To see H-Cl distance, click on "Script" at the bottom.)
   H    0.000000  0    0.000000  0    0.000000  0   0  0  0    0.1942      40AA*
  Cl    1.184399  1    0.000000  0    0.000000  0   1  0  0   -0.1942      40AB*


 FEMTOSECONDS  POINT  POTENTIAL + KINETIC  =   TOTAL     ERROR    REF%   MOVEMENT
     4.000      40   -17.83161    5.68321   -12.14840   0.00058    41   %  0.0817
                CARTESIAN GEOMETRY           VELOCITY (IN CM/SEC)
  ATOM        X          Y          Z                X          Y          Z
   1    H   -1.15829    0.00000    0.00002    -677379.2        3.7       65.7
   2   Cl    0.03292   -0.00000   -0.00000      19213.6       -0.1       -2.3


          FINAL GEOMETRY OBTAINED                                 CHARGE
 OLDGEO IRC=1 DRC T-PRIORITY LARGE BIGCYCLES=1  HTML
 One complete vibrational cycle in hydrogen chloride
 (To see H-Cl distance, click on "Script" at the bottom.)
   H    0.000000  0    0.000000  0    0.000000  0   0  0  0    0.1966      41AA*
  Cl    1.191214  1    0.000000  0    0.000000  0   1  0  0   -0.1966      41AB*


 FEMTOSECONDS  POINT  POTENTIAL + KINETIC  =   TOTAL     ERROR    REF%   MOVEMENT
     4.100      41   -18.29593    6.14740   -12.14853   0.00046    42   %  0.0746
                CARTESIAN GEOMETRY           VELOCITY (IN CM/SEC)
  ATOM        X          Y          Z                X          Y          Z
   1    H   -1.16520    0.00000    0.00002    -704500.4        3.7       66.1
   2   Cl    0.03312   -0.00000   -0.00000      19984.2       -0.1       -2.3


          FINAL GEOMETRY OBTAINED                                 CHARGE
 OLDGEO IRC=1 DRC T-PRIORITY LARGE BIGCYCLES=1  HTML
 One complete vibrational cycle in hydrogen chloride
 (To see H-Cl distance, click on "Script" at the bottom.)
   H    0.000000  0    0.000000  0    0.000000  0   0  0  0    0.1991      42AA*
  Cl    1.198322  1    0.000000  0    0.000000  0   1  0  0   -0.1991      42AB*


 FEMTOSECONDS  POINT  POTENTIAL + KINETIC  =   TOTAL     ERROR    REF%   MOVEMENT
     4.200      42   -18.72622    6.57755   -12.14867   0.00032    43   %  0.0672
                CARTESIAN GEOMETRY           VELOCITY (IN CM/SEC)
  ATOM        X          Y          Z                X          Y          Z
   1    H   -1.17237    0.00000    0.00002    -728732.3        3.8       66.6
   2   Cl    0.03332   -0.00000   -0.00000      20672.8       -0.1       -2.4


          FINAL GEOMETRY OBTAINED                                 CHARGE
 OLDGEO IRC=1 DRC T-PRIORITY LARGE BIGCYCLES=1  HTML
 One complete vibrational cycle in hydrogen chloride
 (To see H-Cl distance, click on "Script" at the bottom.)
   H    0.000000  0    0.000000  0    0.000000  0   0  0  0    0.2017      43AA*
  Cl    1.205694  1    0.000000  0    0.000000  0   1  0  0   -0.2017      43AB*


 FEMTOSECONDS  POINT  POTENTIAL + KINETIC  =   TOTAL     ERROR    REF%   MOVEMENT
     4.300      43   -19.11703    6.96823   -12.14881   0.00018    44   %  0.0596
                CARTESIAN GEOMETRY           VELOCITY (IN CM/SEC)
  ATOM        X          Y          Z                X          Y          Z
   1    H   -1.17977    0.00000    0.00002    -750062.1        3.8       67.0
   2   Cl    0.03353   -0.00000   -0.00000      21279.1       -0.1       -2.4


          FINAL GEOMETRY OBTAINED                                 CHARGE
 OLDGEO IRC=1 DRC T-PRIORITY LARGE BIGCYCLES=1  HTML
 One complete vibrational cycle in hydrogen chloride
 (To see H-Cl distance, click on "Script" at the bottom.)
   H    0.000000  0    0.000000  0    0.000000  0   0  0  0    0.2043      44AA*
  Cl    1.213300  1    0.000000  0    0.000000  0   1  0  0   -0.2043      44AB*


 FEMTOSECONDS  POINT  POTENTIAL + KINETIC  =   TOTAL     ERROR    REF%   MOVEMENT
     4.400      44   -19.46385    7.31490   -12.14895   0.00003    45   %  0.0518
                CARTESIAN GEOMETRY           VELOCITY (IN CM/SEC)
  ATOM        X          Y          Z                X          Y          Z
   1    H   -1.18736    0.00000    0.00002    -768494.0        3.8       67.3
   2   Cl    0.03375   -0.00000   -0.00000      21803.0       -0.1       -2.4


          FINAL GEOMETRY OBTAINED                                 CHARGE
 OLDGEO IRC=1 DRC T-PRIORITY LARGE BIGCYCLES=1  HTML
 One complete vibrational cycle in hydrogen chloride
 (To see H-Cl distance, click on "Script" at the bottom.)
   H    0.000000  0    0.000000  0    0.000000  0   0  0  0    0.2069      45AA*
  Cl    1.221111  1    0.000000  0    0.000000  0   1  0  0   -0.2069      45AB*


 FEMTOSECONDS  POINT  POTENTIAL + KINETIC  =   TOTAL     ERROR    REF%   MOVEMENT
     4.500      45   -19.76309    7.61400   -12.14909  -0.00010    46   %  0.0438
                CARTESIAN GEOMETRY           VELOCITY (IN CM/SEC)
  ATOM        X          Y          Z                X          Y          Z
   1    H   -1.19513    0.00000    0.00002    -784048.7        3.8       67.6
   2   Cl    0.03397   -0.00000   -0.00000      22245.3       -0.1       -2.4


          FINAL GEOMETRY OBTAINED                                 CHARGE
 OLDGEO IRC=1 DRC T-PRIORITY LARGE BIGCYCLES=1  HTML
 One complete vibrational cycle in hydrogen chloride
 (To see H-Cl distance, click on "Script" at the bottom.)
   H    0.000000  0    0.000000  0    0.000000  0   0  0  0    0.2096      46AA*
  Cl    1.229096  1    0.000000  0    0.000000  0   1  0  0   -0.2096      46AB*


 FEMTOSECONDS  POINT  POTENTIAL + KINETIC  =   TOTAL     ERROR    REF%   MOVEMENT
     4.600      46   -20.01213    7.86291   -12.14922  -0.00024    47   %  0.0357
                CARTESIAN GEOMETRY           VELOCITY (IN CM/SEC)
  ATOM        X          Y          Z                X          Y          Z
   1    H   -1.20303    0.00000    0.00002    -796761.3        3.8       67.9
   2   Cl    0.03419   -0.00000   -0.00000      22606.9       -0.1       -2.4


          FINAL GEOMETRY OBTAINED                                 CHARGE
 OLDGEO IRC=1 DRC T-PRIORITY LARGE BIGCYCLES=1  HTML
 One complete vibrational cycle in hydrogen chloride
 (To see H-Cl distance, click on "Script" at the bottom.)
   H    0.000000  0    0.000000  0    0.000000  0   0  0  0    0.2124      47AA*
  Cl    1.237227  1    0.000000  0    0.000000  0   1  0  0   -0.2124      47AB*


 FEMTOSECONDS  POINT  POTENTIAL + KINETIC  =   TOTAL     ERROR    REF%   MOVEMENT
     4.700      47   -20.20923    8.05988   -12.14934  -0.00036    48   %  0.0274
                CARTESIAN GEOMETRY           VELOCITY (IN CM/SEC)
  ATOM        X          Y          Z                X          Y          Z
   1    H   -1.21105    0.00000    0.00003    -806679.6        3.8       68.1
   2   Cl    0.03442   -0.00000   -0.00000      22889.2       -0.1       -2.4


          FINAL GEOMETRY OBTAINED                                 CHARGE
 OLDGEO IRC=1 DRC T-PRIORITY LARGE BIGCYCLES=1  HTML
 One complete vibrational cycle in hydrogen chloride
 (To see H-Cl distance, click on "Script" at the bottom.)
   H    0.000000  0    0.000000  0    0.000000  0   0  0  0    0.2151      48AA*
  Cl    1.245474  1    0.000000  0    0.000000  0   1  0  0   -0.2151      48AB*


 FEMTOSECONDS  POINT  POTENTIAL + KINETIC  =   TOTAL     ERROR    REF%   MOVEMENT
     4.800      48   -20.35352    8.20406   -12.14946  -0.00047    49   %  0.0191
                CARTESIAN GEOMETRY           VELOCITY (IN CM/SEC)
  ATOM        X          Y          Z                X          Y          Z
   1    H   -1.21916    0.00000    0.00003    -813863.2        3.9       68.2
   2   Cl    0.03465   -0.00000   -0.00000      23093.8       -0.1       -2.4


          FINAL GEOMETRY OBTAINED                                 CHARGE
 OLDGEO IRC=1 DRC T-PRIORITY LARGE BIGCYCLES=1  HTML
 One complete vibrational cycle in hydrogen chloride
 (To see H-Cl distance, click on "Script" at the bottom.)
   H    0.000000  0    0.000000  0    0.000000  0   0  0  0    0.2178      49AA*
  Cl    1.253809  1    0.000000  0    0.000000  0   1  0  0   -0.2178      49AB*


 FEMTOSECONDS  POINT  POTENTIAL + KINETIC  =   TOTAL     ERROR    REF%   MOVEMENT
     4.900      49   -20.44495    8.29540   -12.14955  -0.00057    50   %  0.0101
                CARTESIAN GEOMETRY           VELOCITY (IN CM/SEC)
  ATOM        X          Y          Z                X          Y          Z
   1    H   -1.22732    0.00000    0.00003    -818381.0        3.9       68.3
   2   Cl    0.03488   -0.00000   -0.00000      23222.7       -0.1       -2.4


          FINAL GEOMETRY OBTAINED                                 CHARGE
 OLDGEO IRC=1 DRC T-PRIORITY LARGE BIGCYCLES=1  HTML
 One complete vibrational cycle in hydrogen chloride
 (To see H-Cl distance, click on "Script" at the bottom.)
   H    0.000000  0    0.000000  0    0.000000  0   0  0  0    0.2206      50AA*
  Cl    1.262204  1    0.000000  0    0.000000  0   1  0  0   -0.2206      50AB*


 FEMTOSECONDS  POINT  POTENTIAL + KINETIC  =   TOTAL     ERROR    REF%   MOVEMENT
     5.000      50   -20.48419    8.33456   -12.14964  -0.00065    51   %  0.0031
                CARTESIAN GEOMETRY           VELOCITY (IN CM/SEC)
  ATOM        X          Y          Z                X          Y          Z
   1    H   -1.23552    0.00000    0.00003    -820310.5        3.9       68.4
   2   Cl    0.03512   -0.00000   -0.00000      23278.0       -0.1       -2.4


          FINAL GEOMETRY OBTAINED                                 CHARGE
 OLDGEO IRC=1 DRC T-PRIORITY LARGE BIGCYCLES=1  HTML
 One complete vibrational cycle in hydrogen chloride
 (To see H-Cl distance, click on "Script" at the bottom.)
   H    0.000000  0    0.000000  0    0.000000  0   0  0  0    0.2233      51AA*
  Cl    1.270632  1    0.000000  0    0.000000  0   1  0  0   -0.2233      51AB*


 FEMTOSECONDS  POINT  POTENTIAL + KINETIC  =   TOTAL     ERROR    REF%   MOVEMENT
     5.100      51   -20.47259    8.32288   -12.14971  -0.00072    52   %  0.0062
                CARTESIAN GEOMETRY           VELOCITY (IN CM/SEC)
  ATOM        X          Y          Z                X          Y          Z
   1    H   -1.24372    0.00000    0.00003    -819736.0        3.9       68.3
   2   Cl    0.03535   -0.00000   -0.00000      23262.2       -0.1       -2.4


          FINAL GEOMETRY OBTAINED                                 CHARGE
 OLDGEO IRC=1 DRC T-PRIORITY LARGE BIGCYCLES=1  HTML
 One complete vibrational cycle in hydrogen chloride
 (To see H-Cl distance, click on "Script" at the bottom.)
   H    0.000000  0    0.000000  0    0.000000  0   0  0  0    0.2260      52AA*
  Cl    1.279067  1    0.000000  0    0.000000  0   1  0  0   -0.2260      52AB*


 FEMTOSECONDS  POINT  POTENTIAL + KINETIC  =   TOTAL     ERROR    REF%   MOVEMENT
     5.200      52   -20.41206    8.26230   -12.14976  -0.00077    53   %  0.0146
                CARTESIAN GEOMETRY           VELOCITY (IN CM/SEC)
  ATOM        X          Y          Z                X          Y          Z
   1    H   -1.25190    0.00000    0.00003    -816747.0        3.9       68.3
   2   Cl    0.03558   -0.00000   -0.00000      23177.9       -0.1       -2.4


          FINAL GEOMETRY OBTAINED                                 CHARGE
 OLDGEO IRC=1 DRC T-PRIORITY LARGE BIGCYCLES=1  HTML
 One complete vibrational cycle in hydrogen chloride
 (To see H-Cl distance, click on "Script" at the bottom.)
   H    0.000000  0    0.000000  0    0.000000  0   0  0  0    0.2287      53AA*
  Cl    1.287484  1    0.000000  0    0.000000  0   1  0  0   -0.2287      53AB*


 FEMTOSECONDS  POINT  POTENTIAL + KINETIC  =   TOTAL     ERROR    REF%   MOVEMENT
     5.300      53   -20.30503    8.15522   -12.14981  -0.00082    54   %  0.0230
                CARTESIAN GEOMETRY           VELOCITY (IN CM/SEC)
  ATOM        X          Y          Z                X          Y          Z
   1    H   -1.26005    0.00000    0.00003    -811437.7        3.8       68.1
   2   Cl    0.03581   -0.00000   -0.00000      23027.5       -0.1       -2.4


          FINAL GEOMETRY OBTAINED                                 CHARGE
 OLDGEO IRC=1 DRC T-PRIORITY LARGE BIGCYCLES=1  HTML
 One complete vibrational cycle in hydrogen chloride
 (To see H-Cl distance, click on "Script" at the bottom.)
   H    0.000000  0    0.000000  0    0.000000  0   0  0  0    0.2314      54AA*
  Cl    1.295857  1    0.000000  0    0.000000  0   1  0  0   -0.2314      54AB*


 FEMTOSECONDS  POINT  POTENTIAL + KINETIC  =   TOTAL     ERROR    REF%   MOVEMENT
     5.400      54   -20.15434    8.00451   -12.14983  -0.00084    55   %  0.0313
                CARTESIAN GEOMETRY           VELOCITY (IN CM/SEC)
  ATOM        X          Y          Z                X          Y          Z
   1    H   -1.26812    0.00000    0.00003    -803904.9        3.8       68.0
   2   Cl    0.03604   -0.00000   -0.00000      22814.0       -0.1       -2.4


          FINAL GEOMETRY OBTAINED                                 CHARGE
 OLDGEO IRC=1 DRC T-PRIORITY LARGE BIGCYCLES=1  HTML
 One complete vibrational cycle in hydrogen chloride
 (To see H-Cl distance, click on "Script" at the bottom.)
   H    0.000000  0    0.000000  0    0.000000  0   0  0  0    0.2340      55AA*
  Cl    1.304165  1    0.000000  0    0.000000  0   1  0  0   -0.2340      55AB*


 FEMTOSECONDS  POINT  POTENTIAL + KINETIC  =   TOTAL     ERROR    REF%   MOVEMENT
     5.500      55   -19.96319    7.81334   -12.14985  -0.00086    56   %  0.0395
                CARTESIAN GEOMETRY           VELOCITY (IN CM/SEC)
  ATOM        X          Y          Z                X          Y          Z
   1    H   -1.27612    0.00000    0.00003    -794247.8        3.8       67.7
   2   Cl    0.03627   -0.00000   -0.00000      22540.2       -0.1       -2.4


          FINAL GEOMETRY OBTAINED                                 CHARGE
 OLDGEO IRC=1 DRC T-PRIORITY LARGE BIGCYCLES=1  HTML
 One complete vibrational cycle in hydrogen chloride
 (To see H-Cl distance, click on "Script" at the bottom.)
   H    0.000000  0    0.000000  0    0.000000  0   0  0  0    0.2366      56AA*
  Cl    1.312384  1    0.000000  0    0.000000  0   1  0  0   -0.2366      56AB*


 FEMTOSECONDS  POINT  POTENTIAL + KINETIC  =   TOTAL     ERROR    REF%   MOVEMENT
     5.600      56   -19.73506    7.58520   -12.14986  -0.00086    57   %  0.0476
                CARTESIAN GEOMETRY           VELOCITY (IN CM/SEC)
  ATOM        X          Y          Z                X          Y          Z
   1    H   -1.28400    0.00000    0.00003    -782566.6        3.8       67.4
   2   Cl    0.03649   -0.00000   -0.00000      22208.8       -0.1       -2.4


          FINAL GEOMETRY OBTAINED                                 CHARGE
 OLDGEO IRC=1 DRC T-PRIORITY LARGE BIGCYCLES=1  HTML
 One complete vibrational cycle in hydrogen chloride
 (To see H-Cl distance, click on "Script" at the bottom.)
   H    0.000000  0    0.000000  0    0.000000  0   0  0  0    0.2391      57AA*
  Cl    1.320494  1    0.000000  0    0.000000  0   1  0  0   -0.2391      57AB*


 FEMTOSECONDS  POINT  POTENTIAL + KINETIC  =   TOTAL     ERROR    REF%   MOVEMENT
     5.700      57   -19.47360    7.32375   -12.14985  -0.00086    58   %  0.0556
                CARTESIAN GEOMETRY           VELOCITY (IN CM/SEC)
  ATOM        X          Y          Z                X          Y          Z
   1    H   -1.29176    0.00000    0.00003    -768961.7        3.8       67.1
   2   Cl    0.03671   -0.00000   -0.00000      21822.7       -0.1       -2.4


          FINAL GEOMETRY OBTAINED                                 CHARGE
 OLDGEO IRC=1 DRC T-PRIORITY LARGE BIGCYCLES=1  HTML
 One complete vibrational cycle in hydrogen chloride
 (To see H-Cl distance, click on "Script" at the bottom.)
   H    0.000000  0    0.000000  0    0.000000  0   0  0  0    0.2416      58AA*
  Cl    1.328473  1    0.000000  0    0.000000  0   1  0  0   -0.2416      58AB*


 FEMTOSECONDS  POINT  POTENTIAL + KINETIC  =   TOTAL     ERROR    REF%   MOVEMENT
     5.800      58   -19.18264    7.03281   -12.14984  -0.00084    59   %  0.0634
                CARTESIAN GEOMETRY           VELOCITY (IN CM/SEC)
  ATOM        X          Y          Z                X          Y          Z
   1    H   -1.29938    0.00000    0.00003    -753533.2        3.8       66.7
   2   Cl    0.03693   -0.00000   -0.00000      21384.7       -0.1       -2.4


          FINAL GEOMETRY OBTAINED                                 CHARGE
 OLDGEO IRC=1 DRC T-PRIORITY LARGE BIGCYCLES=1  HTML
 One complete vibrational cycle in hydrogen chloride
 (To see H-Cl distance, click on "Script" at the bottom.)
   H    0.000000  0    0.000000  0    0.000000  0   0  0  0    0.2440      59AA*
  Cl    1.336303  1    0.000000  0    0.000000  0   1  0  0   -0.2440      59AB*


 FEMTOSECONDS  POINT  POTENTIAL + KINETIC  =   TOTAL     ERROR    REF%   MOVEMENT
     5.900      59   -18.86608    6.71626   -12.14982  -0.00082    60   %  0.0711
                CARTESIAN GEOMETRY           VELOCITY (IN CM/SEC)
  ATOM        X          Y          Z                X          Y          Z
   1    H   -1.30683    0.00000    0.00003    -736380.3        3.7       66.3
   2   Cl    0.03714   -0.00000   -0.00000      20897.8       -0.1       -2.3


          FINAL GEOMETRY OBTAINED                                 CHARGE
 OLDGEO IRC=1 DRC T-PRIORITY LARGE BIGCYCLES=1  HTML
 One complete vibrational cycle in hydrogen chloride
 (To see H-Cl distance, click on "Script" at the bottom.)
   H    0.000000  0    0.000000  0    0.000000  0   0  0  0    0.2463      60AA*
  Cl    1.343965  1    0.000000  0    0.000000  0   1  0  0   -0.2463      60AB*


 FEMTOSECONDS  POINT  POTENTIAL + KINETIC  =   TOTAL     ERROR    REF%   MOVEMENT
     6.000      60   -18.52784    6.37805   -12.14979  -0.00080    61   %  0.0786
                CARTESIAN GEOMETRY           VELOCITY (IN CM/SEC)
  ATOM        X          Y          Z                X          Y          Z
   1    H   -1.31410    0.00000    0.00003    -717600.4        3.7       65.8
   2   Cl    0.03735   -0.00000   -0.00000      20364.6       -0.1       -2.3


          FINAL GEOMETRY OBTAINED                                 CHARGE
 OLDGEO IRC=1 DRC T-PRIORITY LARGE BIGCYCLES=1  HTML
 One complete vibrational cycle in hydrogen chloride
 (To see H-Cl distance, click on "Script" at the bottom.)
   H    0.000000  0    0.000000  0    0.000000  0   0  0  0    0.2485      61AA*
  Cl    1.351442  1    0.000000  0    0.000000  0   1  0  0   -0.2485      61AB*


 FEMTOSECONDS  POINT  POTENTIAL + KINETIC  =   TOTAL     ERROR    REF%   MOVEMENT
     6.100      61   -18.17185    6.02209   -12.14976  -0.00076    62   %  0.0858
                CARTESIAN GEOMETRY           VELOCITY (IN CM/SEC)
  ATOM        X          Y          Z                X          Y          Z
   1    H   -1.32117    0.00000    0.00003    -697289.1        3.7       65.2
   2   Cl    0.03755   -0.00000   -0.00000      19787.8       -0.1       -2.3


          FINAL GEOMETRY OBTAINED                                 CHARGE
 OLDGEO IRC=1 DRC T-PRIORITY LARGE BIGCYCLES=1  HTML
 One complete vibrational cycle in hydrogen chloride
 (To see H-Cl distance, click on "Script" at the bottom.)
   H    0.000000  0    0.000000  0    0.000000  0   0  0  0    0.2507      62AA*
  Cl    1.358719  1    0.000000  0    0.000000  0   1  0  0   -0.2507      62AB*


 FEMTOSECONDS  POINT  POTENTIAL + KINETIC  =   TOTAL     ERROR    REF%   MOVEMENT
     6.200      62   -17.80199    5.65227   -12.14972  -0.00073    63   %  0.0929
                CARTESIAN GEOMETRY           VELOCITY (IN CM/SEC)
  ATOM        X          Y          Z                X          Y          Z
   1    H   -1.32804    0.00000    0.00004    -675539.6        3.7       64.7
   2   Cl    0.03774   -0.00000   -0.00000      19170.1       -0.1       -2.3


          FINAL GEOMETRY OBTAINED                                 CHARGE
 OLDGEO IRC=1 DRC T-PRIORITY LARGE BIGCYCLES=1  HTML
 One complete vibrational cycle in hydrogen chloride
 (To see H-Cl distance, click on "Script" at the bottom.)
   H    0.000000  0    0.000000  0    0.000000  0   0  0  0    0.2528      63AA*
  Cl    1.365779  1    0.000000  0    0.000000  0   1  0  0   -0.2528      63AB*


 FEMTOSECONDS  POINT  POTENTIAL + KINETIC  =   TOTAL     ERROR    REF%   MOVEMENT
     6.300      63   -17.42204    5.27236   -12.14968  -0.00069    64   %  0.0997
                CARTESIAN GEOMETRY           VELOCITY (IN CM/SEC)
  ATOM        X          Y          Z                X          Y          Z
   1    H   -1.33468    0.00000    0.00004    -652442.8        3.6       64.0
   2   Cl    0.03793   -0.00000   -0.00000      18514.1       -0.1       -2.3


          FINAL GEOMETRY OBTAINED                                 CHARGE
 OLDGEO IRC=1 DRC T-PRIORITY LARGE BIGCYCLES=1  HTML
 One complete vibrational cycle in hydrogen chloride
 (To see H-Cl distance, click on "Script" at the bottom.)
   H    0.000000  0    0.000000  0    0.000000  0   0  0  0    0.2549      64AA*
  Cl    1.372608  1    0.000000  0    0.000000  0   1  0  0   -0.2549      64AB*


 FEMTOSECONDS  POINT  POTENTIAL + KINETIC  =   TOTAL     ERROR    REF%   MOVEMENT
     6.400      64   -17.03569    4.88605   -12.14964  -0.00065    65   %  0.1063
                CARTESIAN GEOMETRY           VELOCITY (IN CM/SEC)
  ATOM        X          Y          Z                X          Y          Z
   1    H   -1.34108    0.00000    0.00004    -628086.5        3.6       63.4
   2   Cl    0.03811   -0.00000   -0.00000      17822.3       -0.1       -2.3


          FINAL GEOMETRY OBTAINED                                 CHARGE
 OLDGEO IRC=1 DRC T-PRIORITY LARGE BIGCYCLES=1  HTML
 One complete vibrational cycle in hydrogen chloride
 (To see H-Cl distance, click on "Script" at the bottom.)
   H    0.000000  0    0.000000  0    0.000000  0   0  0  0    0.2568      65AA*
  Cl    1.379193  1    0.000000  0    0.000000  0   1  0  0   -0.2568      65AB*


 FEMTOSECONDS  POINT  POTENTIAL + KINETIC  =   TOTAL     ERROR    REF%   MOVEMENT
     6.500      65   -16.64649    4.49689   -12.14960  -0.00061    66   %  0.1126
                CARTESIAN GEOMETRY           VELOCITY (IN CM/SEC)
  ATOM        X          Y          Z                X          Y          Z
   1    H   -1.34724    0.00000    0.00004    -602555.8        3.5       62.7
   2   Cl    0.03829   -0.00000   -0.00000      17097.1       -0.1       -2.2


          FINAL GEOMETRY OBTAINED                                 CHARGE
 OLDGEO IRC=1 DRC T-PRIORITY LARGE BIGCYCLES=1  HTML
 One complete vibrational cycle in hydrogen chloride
 (To see H-Cl distance, click on "Script" at the bottom.)
   H    0.000000  0    0.000000  0    0.000000  0   0  0  0    0.2586      66AA*
  Cl    1.385522  1    0.000000  0    0.000000  0   1  0  0   -0.2586      66AB*


 FEMTOSECONDS  POINT  POTENTIAL + KINETIC  =   TOTAL     ERROR    REF%   MOVEMENT
     6.600      66   -16.25784    4.10827   -12.14956  -0.00057    67   %  0.1187
                CARTESIAN GEOMETRY           VELOCITY (IN CM/SEC)
  ATOM        X          Y          Z                X          Y          Z
   1    H   -1.35313    0.00000    0.00004    -575932.7        3.5       61.9
   2   Cl    0.03845   -0.00000   -0.00000      16340.8       -0.1       -2.2


          FINAL GEOMETRY OBTAINED                                 CHARGE
 OLDGEO IRC=1 DRC T-PRIORITY LARGE BIGCYCLES=1  HTML
 One complete vibrational cycle in hydrogen chloride
 (To see H-Cl distance, click on "Script" at the bottom.)
   H    0.000000  0    0.000000  0    0.000000  0   0  0  0    0.2604      67AA*
  Cl    1.391582  1    0.000000  0    0.000000  0   1  0  0   -0.2604      67AB*


 FEMTOSECONDS  POINT  POTENTIAL + KINETIC  =   TOTAL     ERROR    REF%   MOVEMENT
     6.700      67   -15.87296    3.72344   -12.14952  -0.00052    68   %  0.1245
                CARTESIAN GEOMETRY           VELOCITY (IN CM/SEC)
  ATOM        X          Y          Z                X          Y          Z
   1    H   -1.35875    0.00000    0.00004    -548296.5        3.5       61.1
   2   Cl    0.03861   -0.00000   -0.00000      15555.6       -0.1       -2.2


          FINAL GEOMETRY OBTAINED                                 CHARGE
 OLDGEO IRC=1 DRC T-PRIORITY LARGE BIGCYCLES=1  HTML
 One complete vibrational cycle in hydrogen chloride
 (To see H-Cl distance, click on "Script" at the bottom.)
   H    0.000000  0    0.000000  0    0.000000  0   0  0  0    0.2621      68AA*
  Cl    1.397364  1    0.000000  0    0.000000  0   1  0  0   -0.2621      68AB*


 FEMTOSECONDS  POINT  POTENTIAL + KINETIC  =   TOTAL     ERROR    REF%   MOVEMENT
     6.800      68   -15.49493    3.34544   -12.14949  -0.00049    69   %  0.1300
                CARTESIAN GEOMETRY           VELOCITY (IN CM/SEC)
  ATOM        X          Y          Z                X          Y          Z
   1    H   -1.36409    0.00000    0.00004    -519722.3        3.4       60.3
   2   Cl    0.03876   -0.00000   -0.00000      14743.8       -0.1       -2.2


          FINAL GEOMETRY OBTAINED                                 CHARGE
 OLDGEO IRC=1 DRC T-PRIORITY LARGE BIGCYCLES=1  HTML
 One complete vibrational cycle in hydrogen chloride
 (To see H-Cl distance, click on "Script" at the bottom.)
   H    0.000000  0    0.000000  0    0.000000  0   0  0  0    0.2638      69AA*
  Cl    1.402856  1    0.000000  0    0.000000  0   1  0  0   -0.2638      69AB*


 FEMTOSECONDS  POINT  POTENTIAL + KINETIC  =   TOTAL     ERROR    REF%   MOVEMENT
     6.900      69   -15.12665    2.97716   -12.14949  -0.00049    70   %  0.1352
                CARTESIAN GEOMETRY           VELOCITY (IN CM/SEC)
  ATOM        X          Y          Z                X          Y          Z
   1    H   -1.36914    0.00000    0.00004    -490281.9        3.4       59.5
   2   Cl    0.03891   -0.00000   -0.00000      13907.4       -0.1       -2.2


          FINAL GEOMETRY OBTAINED                                 CHARGE
 OLDGEO IRC=1 DRC T-PRIORITY LARGE BIGCYCLES=1  HTML
 One complete vibrational cycle in hydrogen chloride
 (To see H-Cl distance, click on "Script" at the bottom.)
   H    0.000000  0    0.000000  0    0.000000  0   0  0  0    0.2654      70AA*
  Cl    1.408050  1    0.000000  0    0.000000  0   1  0  0   -0.2654      70AB*


 FEMTOSECONDS  POINT  POTENTIAL + KINETIC  =   TOTAL     ERROR    REF%   MOVEMENT
     7.000      69   -14.77081    2.62130   -12.14951  -0.00051    71   %  0.1401
                CARTESIAN GEOMETRY           VELOCITY (IN CM/SEC)
  ATOM        X          Y          Z                X          Y          Z
   1    H   -1.37389    0.00000    0.00004    -460046.7        3.3       58.6
   2   Cl    0.03904   -0.00000   -0.00000      13048.4       -0.1       -2.1


          FINAL GEOMETRY OBTAINED                                 CHARGE
 OLDGEO IRC=1 DRC T-PRIORITY LARGE BIGCYCLES=1  HTML
 One complete vibrational cycle in hydrogen chloride
 (To see H-Cl distance, click on "Script" at the bottom.)
   H    0.000000  0    0.000000  0    0.000000  0   0  0  0    0.2654      71AA*
  Cl    1.412936  1    0.000000  0    0.000000  0   1  0  0   -0.2654      71AB*


 FEMTOSECONDS  POINT  POTENTIAL + KINETIC  =   TOTAL     ERROR    REF%   MOVEMENT
     7.100      70   -14.42977    2.28023   -12.14953  -0.00054    72   %  0.1446
                CARTESIAN GEOMETRY           VELOCITY (IN CM/SEC)
  ATOM        X          Y          Z                X          Y          Z
   1    H   -1.37834    0.00000    0.00004    -429080.8        3.3       57.7
   2   Cl    0.03917   -0.00000   -0.00000      12168.7       -0.1       -2.1


          FINAL GEOMETRY OBTAINED                                 CHARGE
 OLDGEO IRC=1 DRC T-PRIORITY LARGE BIGCYCLES=1  HTML
 One complete vibrational cycle in hydrogen chloride
 (To see H-Cl distance, click on "Script" at the bottom.)
   H    0.000000  0    0.000000  0    0.000000  0   0  0  0    0.2670      72AA*
  Cl    1.417509  1    0.000000  0    0.000000  0   1  0  0   -0.2670      72AB*


 FEMTOSECONDS  POINT  POTENTIAL + KINETIC  =   TOTAL     ERROR    REF%   MOVEMENT
     7.200      71   -14.10594    1.95638   -12.14956  -0.00056    73   %  0.1489
                CARTESIAN GEOMETRY           VELOCITY (IN CM/SEC)
  ATOM        X          Y          Z                X          Y          Z
   1    H   -1.38247    0.00000    0.00004    -397452.6        3.2       56.7
   2   Cl    0.03928   -0.00000   -0.00000      11270.1       -0.1       -2.1


          FINAL GEOMETRY OBTAINED                                 CHARGE
 OLDGEO IRC=1 DRC T-PRIORITY LARGE BIGCYCLES=1  HTML
 One complete vibrational cycle in hydrogen chloride
 (To see H-Cl distance, click on "Script" at the bottom.)
   H    0.000000  0    0.000000  0    0.000000  0   0  0  0    0.2685      73AA*
  Cl    1.421759  1    0.000000  0    0.000000  0   1  0  0   -0.2685      73AB*


 FEMTOSECONDS  POINT  POTENTIAL + KINETIC  =   TOTAL     ERROR    REF%   MOVEMENT
     7.300      72   -13.80148    1.65190   -12.14958  -0.00058    74   %  0.1528
                CARTESIAN GEOMETRY           VELOCITY (IN CM/SEC)
  ATOM        X          Y          Z                X          Y          Z
   1    H   -1.38629    0.00000    0.00004    -365225.5        3.1       55.7
   2   Cl    0.03939   -0.00000   -0.00000      10354.6       -0.1       -2.0


          FINAL GEOMETRY OBTAINED                                 CHARGE
 OLDGEO IRC=1 DRC T-PRIORITY LARGE BIGCYCLES=1  HTML
 One complete vibrational cycle in hydrogen chloride
 (To see H-Cl distance, click on "Script" at the bottom.)
   H    0.000000  0    0.000000  0    0.000000  0   0  0  0    0.2699      74AA*
  Cl    1.425682  1    0.000000  0    0.000000  0   1  0  0   -0.2699      74AB*


 FEMTOSECONDS  POINT  POTENTIAL + KINETIC  =   TOTAL     ERROR    REF%   MOVEMENT
     7.400      73   -13.51838    1.36879   -12.14959  -0.00059    75   %  0.1564
                CARTESIAN GEOMETRY           VELOCITY (IN CM/SEC)
  ATOM        X          Y          Z                X          Y          Z
   1    H   -1.38978    0.00000    0.00004    -332461.6        3.1       54.7
   2   Cl    0.03949   -0.00000   -0.00000       9423.8       -0.1       -2.0


          FINAL GEOMETRY OBTAINED                                 CHARGE
 OLDGEO IRC=1 DRC T-PRIORITY LARGE BIGCYCLES=1  HTML
 One complete vibrational cycle in hydrogen chloride
 (To see H-Cl distance, click on "Script" at the bottom.)
   H    0.000000  0    0.000000  0    0.000000  0   0  0  0    0.2711      75AA*
  Cl    1.429269  1    0.000000  0    0.000000  0   1  0  0   -0.2711      75AB*


 FEMTOSECONDS  POINT  POTENTIAL + KINETIC  =   TOTAL     ERROR    REF%   MOVEMENT
     7.500      74   -13.25846    1.10886   -12.14960  -0.00061    76   %  0.1596
                CARTESIAN GEOMETRY           VELOCITY (IN CM/SEC)
  ATOM        X          Y          Z                X          Y          Z
   1    H   -1.39294    0.00000    0.00004    -299222.8        3.0       53.7
   2   Cl    0.03958   -0.00000   -0.00000       8479.5       -0.1       -2.0


          FINAL GEOMETRY OBTAINED                                 CHARGE
 OLDGEO IRC=1 DRC T-PRIORITY LARGE BIGCYCLES=1  HTML
 One complete vibrational cycle in hydrogen chloride
 (To see H-Cl distance, click on "Script" at the bottom.)
   H    0.000000  0    0.000000  0    0.000000  0   0  0  0    0.2722      76AA*
  Cl    1.432517  1    0.000000  0    0.000000  0   1  0  0   -0.2722      76AB*


 FEMTOSECONDS  POINT  POTENTIAL + KINETIC  =   TOTAL     ERROR    REF%   MOVEMENT
     7.600      74   -13.02282    0.87321   -12.14961  -0.00062    77   %  0.1625
                CARTESIAN GEOMETRY           VELOCITY (IN CM/SEC)
  ATOM        X          Y          Z                X          Y          Z
   1    H   -1.39576    0.00000    0.00004    -265546.6        3.0       52.7
   2   Cl    0.03966   -0.00000   -0.00000       7522.8       -0.1       -2.0


          FINAL GEOMETRY OBTAINED                                 CHARGE
 OLDGEO IRC=1 DRC T-PRIORITY LARGE BIGCYCLES=1  HTML
 One complete vibrational cycle in hydrogen chloride
 (To see H-Cl distance, click on "Script" at the bottom.)
   H    0.000000  0    0.000000  0    0.000000  0   0  0  0    0.2722      77AA*
  Cl    1.435421  1    0.000000  0    0.000000  0   1  0  0   -0.2722      77AB*


 FEMTOSECONDS  POINT  POTENTIAL + KINETIC  =   TOTAL     ERROR    REF%   MOVEMENT
     7.700      75   -12.81318    0.66356   -12.14962  -0.00062    78   %  0.1651
                CARTESIAN GEOMETRY           VELOCITY (IN CM/SEC)
  ATOM        X          Y          Z                X          Y          Z
   1    H   -1.39825    0.00000    0.00004    -231499.4        2.9       51.6
   2   Cl    0.03973   -0.00000   -0.00000       6555.7       -0.1       -1.9


          FINAL GEOMETRY OBTAINED                                 CHARGE
 OLDGEO IRC=1 DRC T-PRIORITY LARGE BIGCYCLES=1  HTML
 One complete vibrational cycle in hydrogen chloride
 (To see H-Cl distance, click on "Script" at the bottom.)
   H    0.000000  0    0.000000  0    0.000000  0   0  0  0    0.2731      78AA*
  Cl    1.437977  1    0.000000  0    0.000000  0   1  0  0   -0.2731      78AB*


 FEMTOSECONDS  POINT  POTENTIAL + KINETIC  =   TOTAL     ERROR    REF%   MOVEMENT
     7.800      76   -12.63088    0.48125   -12.14962  -0.00063    79   %  0.1673
                CARTESIAN GEOMETRY           VELOCITY (IN CM/SEC)
  ATOM        X          Y          Z                X          Y          Z
   1    H   -1.40039    0.00000    0.00004    -197142.7        2.9       50.5
   2   Cl    0.03979   -0.00000   -0.00000       5579.7       -0.1       -1.9


          FINAL GEOMETRY OBTAINED                                 CHARGE
 OLDGEO IRC=1 DRC T-PRIORITY LARGE BIGCYCLES=1  HTML
 One complete vibrational cycle in hydrogen chloride
 (To see H-Cl distance, click on "Script" at the bottom.)
   H    0.000000  0    0.000000  0    0.000000  0   0  0  0    0.2737      79AA*
  Cl    1.440181  1    0.000000  0    0.000000  0   1  0  0   -0.2737      79AB*


 FEMTOSECONDS  POINT  POTENTIAL + KINETIC  =   TOTAL     ERROR    REF%   MOVEMENT
     7.900      76   -12.47660    0.32697   -12.14963  -0.00063    80   %  0.1691
                CARTESIAN GEOMETRY           VELOCITY (IN CM/SEC)
  ATOM        X          Y          Z                X          Y          Z
   1    H   -1.40219    0.00000    0.00005    -162511.1        2.8       49.4
   2   Cl    0.03984   -0.00000   -0.00000       4595.9       -0.1       -1.9


          FINAL GEOMETRY OBTAINED                                 CHARGE
 OLDGEO IRC=1 DRC T-PRIORITY LARGE BIGCYCLES=1  HTML
 One complete vibrational cycle in hydrogen chloride
 (To see H-Cl distance, click on "Script" at the bottom.)
   H    0.000000  0    0.000000  0    0.000000  0   0  0  0    0.2737      80AA*
  Cl    1.442030  1    0.000000  0    0.000000  0   1  0  0   -0.2737      80AB*


[...]
 OLDGEO IRC=1 DRC T-PRIORITY LARGE BIGCYCLES=1  HTML
 One complete vibrational cycle in hydrogen chloride
 (To see H-Cl distance, click on "Script" at the bottom.)
   H    0.000000  0    0.000000  0    0.000000  0   0  0  0    0.2628      96AA*
  Cl    1.422679  1    0.000000  0    0.000000  0   1  0  0   -0.2628      96AB*


 FEMTOSECONDS  POINT  POTENTIAL + KINETIC  =   TOTAL     ERROR    REF%   MOVEMENT
     9.600      85   -14.35519    2.20720   -12.14800   0.00100    97   %  0.1456
                CARTESIAN GEOMETRY           VELOCITY (IN CM/SEC)
  ATOM        X          Y          Z                X          Y          Z
   1    H   -1.37931    0.00000    0.00005     422103.1        1.7       30.0
   2   Cl    0.03919   -0.00000   -0.00000     -12003.8       -0.1       -1.3


          FINAL GEOMETRY OBTAINED                                 CHARGE
 OLDGEO IRC=1 DRC T-PRIORITY LARGE BIGCYCLES=1  HTML
 One complete vibrational cycle in hydrogen chloride
 (To see H-Cl distance, click on "Script" at the bottom.)
   H    0.000000  0    0.000000  0    0.000000  0   0  0  0    0.2628      97AA*
  Cl    1.418499  1    0.000000  0    0.000000  0   1  0  0   -0.2628      97AB*


 FEMTOSECONDS  POINT  POTENTIAL + KINETIC  =   TOTAL     ERROR    REF%   MOVEMENT
     9.700      86   -14.69285    2.54489   -12.14796   0.00104    98   %  0.1411
                CARTESIAN GEOMETRY           VELOCITY (IN CM/SEC)
  ATOM        X          Y          Z                X          Y          Z
   1    H   -1.37493    0.00000    0.00005     453229.9        1.6       28.8
   2   Cl    0.03907   -0.00000   -0.00000     -12887.7       -0.1       -1.3


          FINAL GEOMETRY OBTAINED                                 CHARGE
 OLDGEO IRC=1 DRC T-PRIORITY LARGE BIGCYCLES=1  HTML
 One complete vibrational cycle in hydrogen chloride
 (To see H-Cl distance, click on "Script" at the bottom.)
   H    0.000000  0    0.000000  0    0.000000  0   0  0  0    0.2611      98AA*
  Cl    1.413996  1    0.000000  0    0.000000  0   1  0  0   -0.2611      98AB*


 FEMTOSECONDS  POINT  POTENTIAL + KINETIC  =   TOTAL     ERROR    REF%   MOVEMENT
     9.800      87   -15.04542    2.89741   -12.14802   0.00098    99   %  0.1363
                CARTESIAN GEOMETRY           VELOCITY (IN CM/SEC)
  ATOM        X          Y          Z                X          Y          Z
   1    H   -1.37025    0.00000    0.00005     483626.0        1.6       27.6
   2   Cl    0.03893   -0.00000   -0.00000     -13751.0       -0.1       -1.3


          FINAL GEOMETRY OBTAINED                                 CHARGE
 OLDGEO IRC=1 DRC T-PRIORITY LARGE BIGCYCLES=1  HTML
 One complete vibrational cycle in hydrogen chloride
 (To see H-Cl distance, click on "Script" at the bottom.)
   H    0.000000  0    0.000000  0    0.000000  0   0  0  0    0.2591      99AA*
  Cl    1.409178  1    0.000000  0    0.000000  0   1  0  0   -0.2591      99AB*


 FEMTOSECONDS  POINT  POTENTIAL + KINETIC  =   TOTAL     ERROR    REF%   MOVEMENT
     9.900      88   -15.41120    3.26287   -12.14833   0.00067   100   %  0.1312
                CARTESIAN GEOMETRY           VELOCITY (IN CM/SEC)
  ATOM        X          Y          Z                X          Y          Z
   1    H   -1.36526    0.00000    0.00005     513227.5        1.5       26.4
   2   Cl    0.03879   -0.00000   -0.00000     -14591.8       -0.1       -1.2


          FINAL GEOMETRY OBTAINED                                 CHARGE
 OLDGEO IRC=1 DRC T-PRIORITY LARGE BIGCYCLES=1  HTML
 One complete vibrational cycle in hydrogen chloride
 (To see H-Cl distance, click on "Script" at the bottom.)
   H    0.000000  0    0.000000  0    0.000000  0   0  0  0    0.2572     100AA*
  Cl    1.404052  1    0.000000  0    0.000000  0   1  0  0   -0.2572     100AB*


 FEMTOSECONDS  POINT  POTENTIAL + KINETIC  =   TOTAL     ERROR    REF%   MOVEMENT
    10.000      88   -15.78733    3.63899   -12.14835   0.00065   101   %  0.1257
                CARTESIAN GEOMETRY           VELOCITY (IN CM/SEC)
  ATOM        X          Y          Z                X          Y          Z
   1    H   -1.35998    0.00000    0.00005     542004.3        1.4       25.3
   2   Cl    0.03864   -0.00000   -0.00000     -15409.3       -0.1       -1.2


          FINAL GEOMETRY OBTAINED                                 CHARGE
 OLDGEO IRC=1 DRC T-PRIORITY LARGE BIGCYCLES=1  HTML
 One complete vibrational cycle in hydrogen chloride
 (To see H-Cl distance, click on "Script" at the bottom.)
   H    0.000000  0    0.000000  0    0.000000  0   0  0  0    0.2572     101AA*
  Cl    1.398625  1    0.000000  0    0.000000  0   1  0  0   -0.2572     101AB*


 FEMTOSECONDS  POINT  POTENTIAL + KINETIC  =   TOTAL     ERROR    REF%   MOVEMENT
    10.100      89   -16.17101    4.02259   -12.14841   0.00058   102   %  0.1200
                CARTESIAN GEOMETRY           VELOCITY (IN CM/SEC)
  ATOM        X          Y          Z                X          Y          Z
   1    H   -1.35442    0.00000    0.00005     569857.6        1.4       24.2
   2   Cl    0.03848   -0.00000   -0.00000     -16200.6       -0.1       -1.2


          FINAL GEOMETRY OBTAINED                                 CHARGE
 OLDGEO IRC=1 DRC T-PRIORITY LARGE BIGCYCLES=1  HTML
 One complete vibrational cycle in hydrogen chloride
 (To see H-Cl distance, click on "Script" at the bottom.)
   H    0.000000  0    0.000000  0    0.000000  0   0  0  0    0.2553     102AA*
  Cl    1.392906  1    0.000000  0    0.000000  0   1  0  0   -0.2553     102AB*


 FEMTOSECONDS  POINT  POTENTIAL + KINETIC  =   TOTAL     ERROR    REF%   MOVEMENT
    10.200      90   -16.55917    4.41071   -12.14845   0.00055   103   %  0.1140
                CARTESIAN GEOMETRY           VELOCITY (IN CM/SEC)
  ATOM        X          Y          Z                X          Y          Z
   1    H   -1.34859    0.00000    0.00005     596716.9        1.3       23.1
   2   Cl    0.03832   -0.00000   -0.00000     -16963.7       -0.1       -1.1


          FINAL GEOMETRY OBTAINED                                 CHARGE
 OLDGEO IRC=1 DRC T-PRIORITY LARGE BIGCYCLES=1  HTML
 One complete vibrational cycle in hydrogen chloride
 (To see H-Cl distance, click on "Script" at the bottom.)
   H    0.000000  0    0.000000  0    0.000000  0   0  0  0    0.2533     103AA*
  Cl    1.386907  1    0.000000  0    0.000000  0   1  0  0   -0.2533     103AB*


 FEMTOSECONDS  POINT  POTENTIAL + KINETIC  =   TOTAL     ERROR    REF%   MOVEMENT
    10.300      91   -16.94861    4.80022   -12.14839   0.00061   104   %  0.1078
                CARTESIAN GEOMETRY           VELOCITY (IN CM/SEC)
  ATOM        X          Y          Z                X          Y          Z
   1    H   -1.34249    0.00000    0.00005     622507.8        1.2       22.0
   2   Cl    0.03814   -0.00000   -0.00000     -17696.4       -0.1       -1.1


          FINAL GEOMETRY OBTAINED                                 CHARGE
 OLDGEO IRC=1 DRC T-PRIORITY LARGE BIGCYCLES=1  HTML
 One complete vibrational cycle in hydrogen chloride
 (To see H-Cl distance, click on "Script" at the bottom.)
   H    0.000000  0    0.000000  0    0.000000  0   0  0  0    0.2512     104AA*
  Cl    1.380636  1    0.000000  0    0.000000  0   1  0  0   -0.2512     104AB*


 FEMTOSECONDS  POINT  POTENTIAL + KINETIC  =   TOTAL     ERROR    REF%   MOVEMENT
    10.400      92   -17.33598    5.18764   -12.14834   0.00066   105   %  0.1012
                CARTESIAN GEOMETRY           VELOCITY (IN CM/SEC)
  ATOM        X          Y          Z                X          Y          Z
   1    H   -1.33614    0.00000    0.00005     647142.0        1.2       21.0
   2   Cl    0.03796   -0.00000   -0.00000     -18396.2       -0.1       -1.1


          FINAL GEOMETRY OBTAINED                                 CHARGE
 OLDGEO IRC=1 DRC T-PRIORITY LARGE BIGCYCLES=1  HTML
 One complete vibrational cycle in hydrogen chloride
 (To see H-Cl distance, click on "Script" at the bottom.)
   H    0.000000  0    0.000000  0    0.000000  0   0  0  0    0.2491     105AA*
  Cl    1.374106  1    0.000000  0    0.000000  0   1  0  0   -0.2491     105AB*


 FEMTOSECONDS  POINT  POTENTIAL + KINETIC  =   TOTAL     ERROR    REF%   MOVEMENT
    10.500      93   -17.71775    5.56947   -12.14828   0.00072   106   %  0.0944
                CARTESIAN GEOMETRY           VELOCITY (IN CM/SEC)
  ATOM        X          Y          Z                X          Y          Z
   1    H   -1.32955    0.00000    0.00005     670535.5        1.1       20.1
   2   Cl    0.03778   -0.00000   -0.00000     -19060.6       -0.1       -1.0


          FINAL GEOMETRY OBTAINED                                 CHARGE
 OLDGEO IRC=1 DRC T-PRIORITY LARGE BIGCYCLES=1  HTML
 One complete vibrational cycle in hydrogen chloride
 (To see H-Cl distance, click on "Script" at the bottom.)
   H    0.000000  0    0.000000  0    0.000000  0   0  0  0    0.2468     106AA*
  Cl    1.367329  1    0.000000  0    0.000000  0   1  0  0   -0.2468     106AB*


 FEMTOSECONDS  POINT  POTENTIAL + KINETIC  =   TOTAL     ERROR    REF%   MOVEMENT
    10.600      94   -18.09026    5.94204   -12.14823   0.00077   107   %  0.0874
                CARTESIAN GEOMETRY           VELOCITY (IN CM/SEC)
  ATOM        X          Y          Z                X          Y          Z
   1    H   -1.32274    0.00000    0.00005     692601.0        1.1       19.2
   2   Cl    0.03758   -0.00000   -0.00000     -19687.4       -0.1       -1.0


          FINAL GEOMETRY OBTAINED                                 CHARGE
 OLDGEO IRC=1 DRC T-PRIORITY LARGE BIGCYCLES=1  HTML
 One complete vibrational cycle in hydrogen chloride
 (To see H-Cl distance, click on "Script" at the bottom.)
   H    0.000000  0    0.000000  0    0.000000  0   0  0  0    0.2445     107AA*
  Cl    1.360319  1    0.000000  0    0.000000  0   1  0  0   -0.2445     107AB*


 FEMTOSECONDS  POINT  POTENTIAL + KINETIC  =   TOTAL     ERROR    REF%   MOVEMENT
    10.700      95   -18.44976    6.30158   -12.14817   0.00083   108   %  0.0802
                CARTESIAN GEOMETRY           VELOCITY (IN CM/SEC)
  ATOM        X          Y          Z                X          Y          Z
   1    H   -1.31571    0.00000    0.00005     713248.2        1.0       18.3
   2   Cl    0.03738   -0.00000   -0.00000     -20273.7       -0.1       -1.0


          FINAL GEOMETRY OBTAINED                                 CHARGE
 OLDGEO IRC=1 DRC T-PRIORITY LARGE BIGCYCLES=1  HTML
 One complete vibrational cycle in hydrogen chloride
 (To see H-Cl distance, click on "Script" at the bottom.)
   H    0.000000  0    0.000000  0    0.000000  0   0  0  0    0.2421     108AA*
  Cl    1.353088  1    0.000000  0    0.000000  0   1  0  0   -0.2421     108AB*


 FEMTOSECONDS  POINT  POTENTIAL + KINETIC  =   TOTAL     ERROR    REF%   MOVEMENT
    10.800      96   -18.79237    6.64424   -12.14812   0.00088   109   %  0.0728
                CARTESIAN GEOMETRY           VELOCITY (IN CM/SEC)
  ATOM        X          Y          Z                X          Y          Z
   1    H   -1.30848    0.00000    0.00005     732384.2        1.0       17.5
   2   Cl    0.03718   -0.00000   -0.00000     -20817.1       -0.1       -1.0


          FINAL GEOMETRY OBTAINED                                 CHARGE
 OLDGEO IRC=1 DRC T-PRIORITY LARGE BIGCYCLES=1  HTML
 One complete vibrational cycle in hydrogen chloride
 (To see H-Cl distance, click on "Script" at the bottom.)
   H    0.000000  0    0.000000  0    0.000000  0   0  0  0    0.2397     109AA*
  Cl    1.345653  1    0.000000  0    0.000000  0   1  0  0   -0.2397     109AB*


 FEMTOSECONDS  POINT  POTENTIAL + KINETIC  =   TOTAL     ERROR    REF%   MOVEMENT
    10.900      97   -19.11417    6.96610   -12.14807   0.00093   110   %  0.0651
                CARTESIAN GEOMETRY           VELOCITY (IN CM/SEC)
  ATOM        X          Y          Z                X          Y          Z
   1    H   -1.30106    0.00000    0.00005     749913.9        0.9       16.7
   2   Cl    0.03697   -0.00000   -0.00000     -21314.8       -0.1       -1.0


          FINAL GEOMETRY OBTAINED                                 CHARGE
 OLDGEO IRC=1 DRC T-PRIORITY LARGE BIGCYCLES=1  HTML
 One complete vibrational cycle in hydrogen chloride
 (To see H-Cl distance, click on "Script" at the bottom.)
   H    0.000000  0    0.000000  0    0.000000  0   0  0  0    0.2372     110AA*
  Cl    1.338029  1    0.000000  0    0.000000  0   1  0  0   -0.2372     110AB*


 FEMTOSECONDS  POINT  POTENTIAL + KINETIC  =   TOTAL     ERROR    REF%   MOVEMENT
    11.000      98   -19.41124    7.26321   -12.14803   0.00097   111   %  0.0574
                CARTESIAN GEOMETRY           VELOCITY (IN CM/SEC)
  ATOM        X          Y          Z                X          Y          Z
   1    H   -1.29348    0.00000    0.00005     765740.0        0.9       16.0
   2   Cl    0.03675   -0.00000   -0.00000     -21764.1       -0.1       -0.9


          FINAL GEOMETRY OBTAINED                                 CHARGE
 OLDGEO IRC=1 DRC T-PRIORITY LARGE BIGCYCLES=1  HTML
 One complete vibrational cycle in hydrogen chloride
 (To see H-Cl distance, click on "Script" at the bottom.)
   H    0.000000  0    0.000000  0    0.000000  0   0  0  0    0.2346     111AA*
  Cl    1.330234  1    0.000000  0    0.000000  0   1  0  0   -0.2346     111AB*


 FEMTOSECONDS  POINT  POTENTIAL + KINETIC  =   TOTAL     ERROR    REF%   MOVEMENT
    11.100      99   -19.67966    7.53167   -12.14799   0.00102   112   %  0.0494
                CARTESIAN GEOMETRY           VELOCITY (IN CM/SEC)
  ATOM        X          Y          Z                X          Y          Z
   1    H   -1.28575    0.00000    0.00006     779763.6        0.9       15.4
   2   Cl    0.03653   -0.00000   -0.00000     -22162.1       -0.1       -0.9


          FINAL GEOMETRY OBTAINED                                 CHARGE
 OLDGEO IRC=1 DRC T-PRIORITY LARGE BIGCYCLES=1  HTML
 One complete vibrational cycle in hydrogen chloride
 (To see H-Cl distance, click on "Script" at the bottom.)
   H    0.000000  0    0.000000  0    0.000000  0   0  0  0    0.2320     112AA*
  Cl    1.322285  1    0.000000  0    0.000000  0   1  0  0   -0.2320     112AB*


 FEMTOSECONDS  POINT  POTENTIAL + KINETIC  =   TOTAL     ERROR    REF%   MOVEMENT
    11.200     100   -19.91558    7.76763   -12.14795   0.00105   113   %  0.0413
                CARTESIAN GEOMETRY           VELOCITY (IN CM/SEC)
  ATOM        X          Y          Z                X          Y          Z
   1    H   -1.27789    0.00000    0.00006     791884.7        0.8       14.9
   2   Cl    0.03631   -0.00000   -0.00000     -22506.0       -0.1       -0.9


          FINAL GEOMETRY OBTAINED                                 CHARGE
 OLDGEO IRC=1 DRC T-PRIORITY LARGE BIGCYCLES=1  HTML
 One complete vibrational cycle in hydrogen chloride
 (To see H-Cl distance, click on "Script" at the bottom.)
   H    0.000000  0    0.000000  0    0.000000  0   0  0  0    0.2294     113AA*
  Cl    1.314201  1    0.000000  0    0.000000  0   1  0  0   -0.2294     113AB*


 FEMTOSECONDS  POINT  POTENTIAL + KINETIC  =   TOTAL     ERROR    REF%   MOVEMENT
    11.300     101   -20.11530    7.96737   -12.14793   0.00108   114   %  0.0331
                CARTESIAN GEOMETRY           VELOCITY (IN CM/SEC)
  ATOM        X          Y          Z                X          Y          Z
   1    H   -1.26992    0.00000    0.00006     802002.7        0.8       14.4
   2   Cl    0.03608   -0.00000   -0.00000     -22793.0       -0.1       -0.9


          FINAL GEOMETRY OBTAINED                                 CHARGE
 OLDGEO IRC=1 DRC T-PRIORITY LARGE BIGCYCLES=1  HTML
 One complete vibrational cycle in hydrogen chloride
 (To see H-Cl distance, click on "Script" at the bottom.)
   H    0.000000  0    0.000000  0    0.000000  0   0  0  0    0.2267     114AA*
  Cl    1.306004  1    0.000000  0    0.000000  0   1  0  0   -0.2267     114AB*


 FEMTOSECONDS  POINT  POTENTIAL + KINETIC  =   TOTAL     ERROR    REF%   MOVEMENT
    11.400     102   -20.27530    8.12739   -12.14791   0.00109   115   %  0.0248
                CARTESIAN GEOMETRY           VELOCITY (IN CM/SEC)
  ATOM        X          Y          Z                X          Y          Z
   1    H   -1.26186    0.00000    0.00006     810017.0        0.8       14.1
   2   Cl    0.03585   -0.00000   -0.00000     -23020.1       -0.0       -0.9


          FINAL GEOMETRY OBTAINED                                 CHARGE
 OLDGEO IRC=1 DRC T-PRIORITY LARGE BIGCYCLES=1  HTML
 One complete vibrational cycle in hydrogen chloride
 (To see H-Cl distance, click on "Script" at the bottom.)
   H    0.000000  0    0.000000  0    0.000000  0   0  0  0    0.2240     115AA*
  Cl    1.297712  1    0.000000  0    0.000000  0   1  0  0   -0.2240     115AB*


 FEMTOSECONDS  POINT  POTENTIAL + KINETIC  =   TOTAL     ERROR    REF%   MOVEMENT
    11.500     103   -20.39231    8.24440   -12.14791   0.00110   116   %  0.0165
                CARTESIAN GEOMETRY           VELOCITY (IN CM/SEC)
  ATOM        X          Y          Z                X          Y          Z
   1    H   -1.25373    0.00000    0.00006     815828.2        0.8       13.8
   2   Cl    0.03562   -0.00000   -0.00000     -23184.7       -0.0       -0.9


          FINAL GEOMETRY OBTAINED                                 CHARGE
 OLDGEO IRC=1 DRC T-PRIORITY LARGE BIGCYCLES=1  HTML
 One complete vibrational cycle in hydrogen chloride
 (To see H-Cl distance, click on "Script" at the bottom.)
   H    0.000000  0    0.000000  0    0.000000  0   0  0  0    0.2212     116AA*
  Cl    1.289350  1    0.000000  0    0.000000  0   1  0  0   -0.2212     116AB*


 FEMTOSECONDS  POINT  POTENTIAL + KINETIC  =   TOTAL     ERROR    REF%   MOVEMENT
    11.600     104   -20.46340    8.31549   -12.14791   0.00109   117   %  0.0080
                CARTESIAN GEOMETRY           VELOCITY (IN CM/SEC)
  ATOM        X          Y          Z                X          Y          Z
   1    H   -1.24555    0.00000    0.00006     819338.6        0.8       13.6
   2   Cl    0.03539   -0.00000   -0.00000     -23283.8       -0.0       -0.9


          FINAL GEOMETRY OBTAINED                                 CHARGE
 OLDGEO IRC=1 DRC T-PRIORITY LARGE BIGCYCLES=1  HTML
 One complete vibrational cycle in hydrogen chloride
 (To see H-Cl distance, click on "Script" at the bottom.)
   H    0.000000  0    0.000000  0    0.000000  0   0  0  0    0.2185     117AA*
  Cl    1.280940  1    0.000000  0    0.000000  0   1  0  0   -0.2185     117AB*


 FEMTOSECONDS  POINT  POTENTIAL + KINETIC  =   TOTAL     ERROR    REF%   MOVEMENT
    11.700     105   -20.48604    8.33811   -12.14794   0.00107   118   %  0.0010
                CARTESIAN GEOMETRY           VELOCITY (IN CM/SEC)
  ATOM        X          Y          Z                X          Y          Z
   1    H   -1.23735    0.00000    0.00006     820453.3        0.8       13.6
   2   Cl    0.03516   -0.00000   -0.00000     -23314.8       -0.0       -0.9


          FINAL GEOMETRY OBTAINED                                 CHARGE
 OLDGEO IRC=1 DRC T-PRIORITY LARGE BIGCYCLES=1  HTML
 One complete vibrational cycle in hydrogen chloride
 (To see H-Cl distance, click on "Script" at the bottom.)
   H    0.000000  0    0.000000  0    0.000000  0   0  0  0    0.2157     118AA*
  Cl    1.272505  1    0.000000  0    0.000000  0   1  0  0   -0.2157     118AB*



 **********************
 *                    *
 * JOB ENDED NORMALLY *
 *                    *
 **********************



 TOTAL JOB TIME:             1.02 SECONDS

 == MOPAC DONE ==
