 *******************************************************************************
 ** Site#: 9602  E-mail support:    MrMOPAC@ATT.net    Version 17.210W 64BITS **
 *******************************************************************************
 ** Cite this program as: MOPAC2016, Version: 17.210W, James J. P. Stewart,   **
 ** Stewart Computational Chemistry, web: HTTP://OpenMOPAC.net. Days left: 371**
 *******************************************************************************
 **                                                                           **
 **                                MOPAC2016                                  **
 **                                                                           **
 *******************************************************************************

                              PM7 CALCULATION RESULTS


 *******************************************************************************
 *  CALCULATION DONE:                                Wed Aug 09 05:33:58 2017  *
 *  START_RES  - STARTING RESIDUE NUMBERS DEFINED
 *  Keyword:   START_RES=(2A 1301A) 
 *  CHAINS     - PDB CHAIN LETTERS EXPLICITLY DEFINED
 *  Keyword:   CHAINS=(A) 
 *  MOZYME     - USE LOCALIZED M.O.s IN SOLVING THE SCF EQUATIONS
 *  OPT        - OPTIMIZE COORDINATES OF ALL ATOMS
 *
 *
 *
 *                 CHARGE ON SYSTEM =    -2
 *
 *
 *
 *  EPS= 78.40 - USE ANDREAS KLAMT'S COSMO IMPLICIT SOLVATION MODEL
 *  RESTART    - CALCULATION RESTARTED
 *  T=         - A TIME OF      2.0 WEEKS   REQUESTED
 *  DUMP=N     - RESTART FILE WRITTEN EVERY  7200.000 SECONDS
 *  GNORM=     - EXIT WHEN GRADIENT NORM DROPS BELOW   5.00    
 *  OUTPUT     - MINIMIZE OUTPUT
 *  HTML       - WRITE HTML SCRIPT TO READ PDB FILE USING JSMOL
 *******************************************************************************
 START_RES=(2A 1301A) HTML OUTPUT MOZYME  gnorm=5 opt  chains=(A) CHARGE=-2 T=2W eps=78.4 restart
 Optimize all atom positions in 1BVR ENE

 

 General Reference for PM7:
 "Optimization of Parameters for Semiempirical Methods VI: More Modifications to the 
 NDDO Approximations and Re-optimization of Parameters", J. J. P. Stewart, J. Mol. Mod., 1:32, 19 (2013)
 http://www.springerlink.com/openurl.asp?genre=article&id=doi:10.1007/s00894-012-1667-x

           Empirical Formula: C1304 H2302 N356 O499 S11 P2  =  4474 atoms


   Ion Atom No.           Label               Charge (Distances are between charged sites predicted by Lewis structure theory)
 
    1   N   85   (ATOM     85  NZ  LYS A   8)   +1  (4.9 Angstroms from anion  O 3699, Label: ATOM   3699  OD2 ASP A 248)
    2   N 2712   (ATOM   2712  NZ  LYS A 181)   +1  (2.9 Angstroms from anion  O 2680, Label: ATOM   2680  OE2 GLU A 178)
    3   C 2921   (ATOM   2921  CZ  ARG A 195)   +1  (3.5 Angstroms from anion  O 3261, Label: ATOM   3261  OE2 GLU A 219)
 
    1   O 2680   (ATOM   2680  OE2 GLU A 178)   -1  (2.9 Angstroms from cation  N 2712, Label: ATOM   2712  NZ  LYS A 181)
    2   O 3261   (ATOM   3261  OE2 GLU A 219)   -1  (3.5 Angstroms from cation  C 2921, Label: ATOM   2921  CZ  ARG A 195)
    3   O 3699   (ATOM   3699  OD2 ASP A 248)   -1  (4.9 Angstroms from cation  N   85, Label: ATOM     85  NZ  LYS A   8)
    4   O 4015   (HETATM 4016  O2A NAD A1301)   -1
    5   O 4038   (HETATM 4039  O2N NAD A1301)   -1

          COMPUTED CHARGE ON SYSTEM: -2

          Geometry optimization using L-BFGS


          RESTORING DATA FROM DISK

          TOTAL TIME USED SO FAR:    491422.25 SECONDS

 CYCLE:  1813 TIME: 630.256 TIME LEFT:  2.00W  GRAD.:    12.997 HEAT: -32505.49
 CYCLE:  1814 TIME: 200.273 TIME LEFT:  2.00W  GRAD.:    11.484 HEAT: -32505.56
 CYCLE:  1815 TIME: 206.451 TIME LEFT:  2.00W  GRAD.:    13.104 HEAT: -32506.15
 CYCLE:  1816 TIME: 184.531 TIME LEFT:  2.00W  GRAD.:    13.288 HEAT: -32506.26
 CYCLE:  1817 TIME: 190.461 TIME LEFT:  2.00W  GRAD.:    15.888 HEAT: -32506.86
 CYCLE:  1818 TIME: 182.287 TIME LEFT:  2.00W  GRAD.:    12.753 HEAT: -32506.33
 CYCLE:  1819 TIME: 181.318 TIME LEFT:  2.00W  GRAD.:    17.897 HEAT: -32505.62
 CYCLE:  1820 TIME: 170.477 TIME LEFT:  2.00W  GRAD.:    13.449 HEAT: -32505.33
 CYCLE:  1821 TIME: 176.188 TIME LEFT:  2.00W  GRAD.:    11.949 HEAT: -32505.27
 CYCLE:  1822 TIME: 174.564 TIME LEFT:  2.00W  GRAD.:    11.509 HEAT: -32506.08
 CYCLE:  1823 TIME: 183.971 TIME LEFT:  2.00W  GRAD.:    45.391 HEAT: -32506.33
 CYCLE:  1824 TIME: 166.779 TIME LEFT:  2.00W  GRAD.:    19.572 HEAT: -32506.13
 CYCLE:  1825 TIME: 212.676 TIME LEFT:  2.00W  GRAD.:    11.637 HEAT: -32506.45
 CYCLE:  1826 TIME: 202.566 TIME LEFT:  1.99W  GRAD.:    10.420 HEAT: -32506.29
 CYCLE:  1827 TIME: 199.945 TIME LEFT:  1.99W  GRAD.:    12.729 HEAT: -32506.25
 CYCLE:  1828 TIME: 195.281 TIME LEFT:  1.99W  GRAD.:    23.344 HEAT: -32507.01
 CYCLE:  1829 TIME: 196.186 TIME LEFT:  1.99W  GRAD.:    70.622 HEAT: -32506.97
 CYCLE:  1830 TIME: 186.328 TIME LEFT:  1.99W  GRAD.:    20.955 HEAT: -32506.75
 CYCLE:  1831 TIME: 196.887 TIME LEFT:  1.99W  GRAD.:    17.540 HEAT: -32507.02
 CYCLE:  1832 TIME: 197.762 TIME LEFT:  1.99W  GRAD.:    14.641 HEAT: -32507.05
 CYCLE:  1833 TIME: 193.643 TIME LEFT:  1.99W  GRAD.:    14.664 HEAT: -32507.22
 CYCLE:  1834 TIME: 178.215 TIME LEFT:  1.99W  GRAD.:    14.728 HEAT: -32506.09
 CYCLE:  1835 TIME: 173.395 TIME LEFT:  1.99W  GRAD.:    21.201 HEAT: -32506.02
 CYCLE:  1836 TIME: 182.521 TIME LEFT:  1.99W  GRAD.:    19.225 HEAT: -32506.36
 CYCLE:  1837 TIME: 174.828 TIME LEFT:  1.99W  GRAD.:    13.850 HEAT: -32505.90
 CYCLE:  1838 TIME: 178.668 TIME LEFT:  1.99W  GRAD.:    16.550 HEAT: -32505.73
 CYCLE:  1839 TIME: 187.527 TIME LEFT:  1.99W  GRAD.:    12.426 HEAT: -32505.29
 CYCLE:  1840 TIME: 188.387 TIME LEFT:  1.99W  GRAD.:    19.128 HEAT: -32506.65
 CYCLE:  1841 TIME: 198.057 TIME LEFT:  1.99W  GRAD.:    13.105 HEAT: -32507.07
 CYCLE:  1842 TIME: 198.869 TIME LEFT:  1.99W  GRAD.:    15.622 HEAT: -32507.49
 CYCLE:  1843 TIME: 197.949 TIME LEFT:  1.99W  GRAD.:    10.607 HEAT: -32507.57
 CYCLE:  1844 TIME: 184.783 TIME LEFT:  1.99W  GRAD.:    11.835 HEAT: -32506.88
 CYCLE:  1845 TIME: 193.736 TIME LEFT:  1.99W  GRAD.:    10.027 HEAT: -32507.23
 CYCLE:  1846 TIME: 183.830 TIME LEFT:  1.99W  GRAD.:    12.574 HEAT: -32507.05
 CYCLE:  1847 TIME: 199.932 TIME LEFT:  1.99W  GRAD.:    11.447 HEAT: -32507.86
 RESTART FILE WRITTEN,      TIME LEFT:  1.99W  GRAD.:    56.717 HEAT: -32506.60
 CYCLE:  1849 TIME: 182.910 TIME LEFT:  1.99W  GRAD.:    16.937 HEAT: -32506.79
 CYCLE:  1850 TIME: 192.316 TIME LEFT:  1.99W  GRAD.:    11.565 HEAT: -32507.51
 CYCLE:  1851 TIME: 202.035 TIME LEFT:  1.99W  GRAD.:    10.654 HEAT: -32507.43
 CYCLE:  1852 TIME: 181.430 TIME LEFT:  1.99W  GRAD.:    13.476 HEAT: -32505.51
 CYCLE:  1853 TIME: 176.889 TIME LEFT:  1.99W  GRAD.:    11.949 HEAT: -32507.19
 CYCLE:  1854 TIME: 184.752 TIME LEFT:  1.99W  GRAD.:    12.101 HEAT: -32506.99
 CYCLE:  1855 TIME: 172.441 TIME LEFT:  1.99W  GRAD.:    12.159 HEAT: -32506.68
 CYCLE:  1856 TIME: 186.311 TIME LEFT:  1.99W  GRAD.:    14.459 HEAT: -32506.30
 CYCLE:  1857 TIME: 180.867 TIME LEFT:  1.99W  GRAD.:    16.272 HEAT: -32507.15
 CYCLE:  1858 TIME: 176.795 TIME LEFT:  1.99W  GRAD.:    12.820 HEAT: -32507.21
 CYCLE:  1859 TIME: 223.018 TIME LEFT:  1.98W  GRAD.:    11.333 HEAT: -32507.57
 CYCLE:  1860 TIME: 196.094 TIME LEFT:  1.98W  GRAD.:    18.924 HEAT: -32507.46
 CYCLE:  1861 TIME: 186.107 TIME LEFT:  1.98W  GRAD.:    11.392 HEAT: -32507.73
 CYCLE:  1862 TIME: 195.438 TIME LEFT:  1.98W  GRAD.:    10.783 HEAT: -32507.51
 CYCLE:  1863 TIME: 195.328 TIME LEFT:  1.98W  GRAD.:    12.591 HEAT: -32507.47
 CYCLE:  1864 TIME: 191.396 TIME LEFT:  1.98W  GRAD.:    12.891 HEAT: -32507.27
 CYCLE:  1865 TIME: 171.539 TIME LEFT:  1.98W  GRAD.:    12.637 HEAT: -32507.11
 CYCLE:  1866 TIME: 170.945 TIME LEFT:  1.98W  GRAD.:    17.239 HEAT: -32507.12
 CYCLE:  1867 TIME: 195.498 TIME LEFT:  1.98W  GRAD.:    11.866 HEAT: -32507.76
 CYCLE:  1868 TIME: 192.707 TIME LEFT:  1.98W  GRAD.:    12.824 HEAT: -32508.05
 CYCLE:  1869 TIME: 203.678 TIME LEFT:  1.98W  GRAD.:    11.672 HEAT: -32507.80
 CYCLE:  1870 TIME: 193.648 TIME LEFT:  1.98W  GRAD.:    13.014 HEAT: -32507.48
 CYCLE:  1871 TIME: 188.902 TIME LEFT:  1.98W  GRAD.:    17.234 HEAT: -32507.42
 CYCLE:  1872 TIME: 191.199 TIME LEFT:  1.98W  GRAD.:    35.328 HEAT: -32507.37
 CYCLE:  1873 TIME: 179.885 TIME LEFT:  1.98W  GRAD.:    55.139 HEAT: -32506.91
 CYCLE:  1874 TIME: 183.314 TIME LEFT:  1.98W  GRAD.:    31.164 HEAT: -32506.62
 CYCLE:  1875 TIME: 180.680 TIME LEFT:  1.98W  GRAD.:    18.164 HEAT: -32506.94
 CYCLE:  1876 TIME: 196.467 TIME LEFT:  1.98W  GRAD.:    21.573 HEAT: -32507.18
 CYCLE:  1877 TIME: 225.080 TIME LEFT:  1.98W  GRAD.:    10.865 HEAT: -32507.90
 CYCLE:  1878 TIME: 189.947 TIME LEFT:  1.98W  GRAD.:    17.188 HEAT: -32507.06
 CYCLE:  1879 TIME: 187.910 TIME LEFT:  1.98W  GRAD.:    11.880 HEAT: -32507.13
 CYCLE:  1880 TIME: 188.668 TIME LEFT:  1.98W  GRAD.:    15.355 HEAT: -32507.32
 CYCLE:  1881 TIME: 196.125 TIME LEFT:  1.98W  GRAD.:     9.790 HEAT: -32507.35
 CYCLE:  1882 TIME: 183.879 TIME LEFT:  1.98W  GRAD.:    10.861 HEAT: -32506.87
 CYCLE:  1883 TIME: 246.191 TIME LEFT:  1.98W  GRAD.:    13.685 HEAT: -32506.86
 CYCLE:  1884 TIME: 190.363 TIME LEFT:  1.98W  GRAD.:    15.537 HEAT: -32506.76
 CYCLE:  1885 TIME: 185.406 TIME LEFT:  1.98W  GRAD.:    24.462 HEAT: -32507.26
 RESTART FILE WRITTEN,      TIME LEFT:  1.98W  GRAD.:    13.680 HEAT: -32507.20
 CYCLE:  1887 TIME: 178.605 TIME LEFT:  1.98W  GRAD.:    13.446 HEAT: -32506.99
 CYCLE:  1888 TIME: 178.762 TIME LEFT:  1.98W  GRAD.:    11.747 HEAT: -32507.24
 CYCLE:  1889 TIME: 227.262 TIME LEFT:  1.98W  GRAD.:    16.388 HEAT: -32507.90
 CYCLE:  1890 TIME: 215.684 TIME LEFT:  1.97W  GRAD.:    13.896 HEAT: -32507.96
 CYCLE:  1891 TIME: 187.590 TIME LEFT:  1.97W  GRAD.:    16.288 HEAT: -32506.39
 CYCLE:  1892 TIME: 197.074 TIME LEFT:  1.97W  GRAD.:    12.907 HEAT: -32506.65
 CYCLE:  1893 TIME: 197.598 TIME LEFT:  1.97W  GRAD.:    14.919 HEAT: -32506.88
 CYCLE:  1894 TIME: 188.238 TIME LEFT:  1.97W  GRAD.:    13.462 HEAT: -32505.68
 CYCLE:  1895 TIME: 193.664 TIME LEFT:  1.97W  GRAD.:    28.092 HEAT: -32505.43
 CYCLE:  1896 TIME: 186.262 TIME LEFT:  1.97W  GRAD.:    23.430 HEAT: -32505.46
 CYCLE:  1897 TIME: 191.180 TIME LEFT:  1.97W  GRAD.:    14.848 HEAT: -32506.36
 CYCLE:  1898 TIME: 200.359 TIME LEFT:  1.97W  GRAD.:    13.362 HEAT: -32506.34
 CYCLE:  1899 TIME: 182.395 TIME LEFT:  1.97W  GRAD.:    14.230 HEAT: -32505.93
 CYCLE:  1900 TIME: 194.098 TIME LEFT:  1.97W  GRAD.:    16.336 HEAT: -32507.07
 CYCLE:  1901 TIME: 189.094 TIME LEFT:  1.97W  GRAD.:    14.009 HEAT: -32507.10
 CYCLE:  1902 TIME: 191.195 TIME LEFT:  1.97W  GRAD.:    10.789 HEAT: -32507.21
 CYCLE:  1903 TIME: 202.113 TIME LEFT:  1.97W  GRAD.:    13.377 HEAT: -32506.94
 CYCLE:  1904 TIME: 189.535 TIME LEFT:  1.97W  GRAD.:    10.510 HEAT: -32507.04
 CYCLE:  1905 TIME: 201.969 TIME LEFT:  1.97W  GRAD.:    14.540 HEAT: -32507.33
 CYCLE:  1906 TIME: 224.727 TIME LEFT:  1.97W  GRAD.:    11.436 HEAT: -32507.37
 CYCLE:  1907 TIME: 210.359 TIME LEFT:  1.97W  GRAD.:    18.710 HEAT: -32506.38
 CYCLE:  1908 TIME: 197.375 TIME LEFT:  1.97W  GRAD.:    10.565 HEAT: -32506.97
 CYCLE:  1909 TIME: 185.453 TIME LEFT:  1.97W  GRAD.:    10.964 HEAT: -32507.06
 CYCLE:  1910 TIME: 188.570 TIME LEFT:  1.97W  GRAD.:    19.057 HEAT: -32507.16
 CYCLE:  1911 TIME: 183.410 TIME LEFT:  1.97W  GRAD.:    16.738 HEAT: -32507.21
 CYCLE:  1912 TIME: 187.746 TIME LEFT:  1.97W  GRAD.:    13.970 HEAT: -32506.89
 CYCLE:  1913 TIME: 192.301 TIME LEFT:  1.97W  GRAD.:    10.570 HEAT: -32507.21
 CYCLE:  1914 TIME: 179.871 TIME LEFT:  1.97W  GRAD.:    12.883 HEAT: -32506.68
 CYCLE:  1915 TIME: 207.730 TIME LEFT:  1.97W  GRAD.:    12.405 HEAT: -32506.56
 CYCLE:  1916 TIME: 203.562 TIME LEFT:  1.97W  GRAD.:    13.343 HEAT: -32506.88
 CYCLE:  1917 TIME: 204.734 TIME LEFT:  1.97W  GRAD.:    15.983 HEAT: -32506.09
 CYCLE:  1918 TIME: 198.633 TIME LEFT:  1.97W  GRAD.:    12.043 HEAT: -32506.17
 CYCLE:  1919 TIME: 182.043 TIME LEFT:  1.97W  GRAD.:    13.844 HEAT: -32506.23
 CYCLE:  1920 TIME: 192.148 TIME LEFT:  1.97W  GRAD.:    14.310 HEAT: -32507.32
 CYCLE:  1921 TIME: 183.297 TIME LEFT:  1.96W  GRAD.:    15.531 HEAT: -32507.04
 CYCLE:  1922 TIME: 188.812 TIME LEFT:  1.96W  GRAD.:    11.227 HEAT: -32507.19
 CYCLE:  1923 TIME: 192.715 TIME LEFT:  1.96W  GRAD.:    12.758 HEAT: -32506.94
 RESTART FILE WRITTEN,      TIME LEFT:  1.96W  GRAD.:    12.937 HEAT: -32507.20
 CYCLE:  1925 TIME: 189.879 TIME LEFT:  1.96W  GRAD.:     9.527 HEAT: -32507.28
 CYCLE:  1926 TIME: 186.691 TIME LEFT:  1.96W  GRAD.:    16.319 HEAT: -32505.78
 CYCLE:  1927 TIME: 178.453 TIME LEFT:  1.96W  GRAD.:    75.410 HEAT: -32505.47
 CYCLE:  1928 TIME: 202.074 TIME LEFT:  1.96W  GRAD.:    30.554 HEAT: -32505.74
 CYCLE:  1929 TIME: 186.238 TIME LEFT:  1.96W  GRAD.:    54.682 HEAT: -32506.02
 CYCLE:  1930 TIME: 199.129 TIME LEFT:  1.96W  GRAD.:    59.599 HEAT: -32506.03
 CYCLE:  1931 TIME: 189.031 TIME LEFT:  1.96W  GRAD.:    52.275 HEAT: -32505.92
 CYCLE:  1932 TIME: 191.289 TIME LEFT:  1.96W  GRAD.:    68.794 HEAT: -32505.85
 CYCLE:  1933 TIME: 191.023 TIME LEFT:  1.96W  GRAD.:    66.595 HEAT: -32505.95
 CYCLE:  1934 TIME: 171.574 TIME LEFT:  1.96W  GRAD.:    68.497 HEAT: -32505.95
 CYCLE:  1935 TIME: 177.668 TIME LEFT:  1.96W  GRAD.:    39.129 HEAT: -32505.87
 CYCLE:  1936 TIME: 179.320 TIME LEFT:  1.96W  GRAD.:    32.745 HEAT: -32505.81
 CYCLE:  1937 TIME: 184.832 TIME LEFT:  1.96W  GRAD.:   127.562 HEAT: -32502.73
 CYCLE:  1938 TIME: 205.965 TIME LEFT:  1.96W  GRAD.:    18.252 HEAT: -32506.31
 CYCLE:  1939 TIME: 204.578 TIME LEFT:  1.96W  GRAD.:    66.749 HEAT: -32505.02
 CYCLE:  1940 TIME: 215.109 TIME LEFT:  1.96W  GRAD.:    14.636 HEAT: -32506.06
 CYCLE:  1941 TIME: 193.207 TIME LEFT:  1.96W  GRAD.:    26.649 HEAT: -32505.96
 CYCLE:  1942 TIME: 200.461 TIME LEFT:  1.96W  GRAD.:    15.569 HEAT: -32506.85
 CYCLE:  1943 TIME: 183.645 TIME LEFT:  1.96W  GRAD.:    74.740 HEAT: -32504.83
 CYCLE:  1944 TIME: 186.730 TIME LEFT:  1.96W  GRAD.:   130.268 HEAT: -32502.74
 CYCLE:  1945 TIME: 190.867 TIME LEFT:  1.96W  GRAD.:    71.901 HEAT: -32506.55
 CYCLE:  1946 TIME: 183.504 TIME LEFT:  1.96W  GRAD.:   194.100 HEAT: -32498.14
 CYCLE:  1947 TIME: 186.402 TIME LEFT:  1.96W  GRAD.:   297.102 HEAT: -32489.31
 CYCLE:  1948 TIME: 206.391 TIME LEFT:  1.96W  GRAD.:    64.388 HEAT: -32505.65
 CYCLE:  1949 TIME: 204.000 TIME LEFT:  1.96W  GRAD.:    60.295 HEAT: -32505.32
 CYCLE:  1950 TIME: 204.578 TIME LEFT:  1.96W  GRAD.:    65.561 HEAT: -32505.85
 CYCLE:  1951 TIME: 204.531 TIME LEFT:  1.96W  GRAD.:    46.995 HEAT: -32506.05
 CYCLE:  1952 TIME: 204.797 TIME LEFT:  1.95W  GRAD.:    37.062 HEAT: -32505.76
 CYCLE:  1953 TIME: 207.324 TIME LEFT:  1.95W  GRAD.:    22.805 HEAT: -32506.23
 CYCLE:  1954 TIME: 173.691 TIME LEFT:  1.95W  GRAD.:    13.664 HEAT: -32506.55
 CYCLE:  1955 TIME: 179.309 TIME LEFT:  1.95W  GRAD.:     8.510 HEAT: -32506.43
 CYCLE:  1956 TIME: 178.855 TIME LEFT:  1.95W  GRAD.:     9.160 HEAT: -32506.92
 CYCLE:  1957 TIME: 181.238 TIME LEFT:  1.95W  GRAD.:     9.157 HEAT: -32506.46
 CYCLE:  1958 TIME: 182.785 TIME LEFT:  1.95W  GRAD.:    16.293 HEAT: -32506.97
 CYCLE:  1959 TIME: 170.355 TIME LEFT:  1.95W  GRAD.:    10.581 HEAT: -32506.58
 CYCLE:  1960 TIME: 182.801 TIME LEFT:  1.95W  GRAD.:     9.901 HEAT: -32506.50
 CYCLE:  1961 TIME: 176.855 TIME LEFT:  1.95W  GRAD.:     8.708 HEAT: -32506.43
 RESTART FILE WRITTEN,      TIME LEFT:  1.95W  GRAD.:     9.897 HEAT: -32506.62
 CYCLE:  1963 TIME: 182.133 TIME LEFT:  1.95W  GRAD.:    10.264 HEAT: -32506.01
 CYCLE:  1964 TIME: 174.566 TIME LEFT:  1.95W  GRAD.:     8.618 HEAT: -32506.71
 CYCLE:  1965 TIME: 217.254 TIME LEFT:  1.95W  GRAD.:    11.722 HEAT: -32506.40
 CYCLE:  1966 TIME: 194.516 TIME LEFT:  1.95W  GRAD.:    19.130 HEAT: -32506.21
 CYCLE:  1967 TIME: 200.820 TIME LEFT:  1.95W  GRAD.:    11.951 HEAT: -32506.40
 CYCLE:  1968 TIME: 193.832 TIME LEFT:  1.95W  GRAD.:    16.054 HEAT: -32506.45
 CYCLE:  1969 TIME: 181.199 TIME LEFT:  1.95W  GRAD.:    12.274 HEAT: -32506.46
 CYCLE:  1970 TIME: 196.652 TIME LEFT:  1.95W  GRAD.:     8.200 HEAT: -32506.38



          ****   JOB STOPPED BY OPERATOR   ****
 RESTART FILE WRITTEN,      TIME LEFT:  0.00S  GRAD.:    12.483 HEAT: -32506.44
                    THERE IS NOT ENOUGH TIME FOR ANOTHER CYCLE
                              NOW GOING TO FINAL


           - THE CALCULATION IS BEING DUMPED TO DISK
             RESTART IT USING THE KEYWORD "RESTART"


          CURRENT BEST VALUE OF HEAT OF FORMATION = -32508.054378
 START_RES=(2A 1301A) HTML OUTPUT MOZYME  gnorm=5 opt  chains=(A) CHARGE=-2 T=2W eps=78.4 restart
 Optimize all atom positions in 1BVR ENE

  N(ATOM      1  N   THR A   2)   6.86942464 +1   3.14601804 +1  36.36280476 +1
  C(ATOM      2  CA  THR A   2)   6.02820137 +1   1.94127333 +1  36.25478886 +1
  C(ATOM      3  C   THR A   2)   4.91772722 +1   2.14261110 +1  35.20584399 +1
  O(ATOM      4  O   THR A   2)   4.73769818 +1   3.22245786 +1  34.66777428 +1
  C(ATOM      5  CB  THR A   2)   5.38826836 +1   1.63300314 +1  37.60761006 +1
  H(ATOM      6 1H   THR A   2)   7.29719838 +1   3.37298974 +1  35.47139952 +1
  H(ATOM      7 2H   THR A   2)   6.31988723 +1   3.95597337 +1  36.63138636 +1
  H(ATOM      8  HA  THR A   2)   6.68913635 +1   1.09046634 +1  35.93356271 +1
  H(ATOM      9 1HB  THR A   2)   6.15184392 +1   1.58108864 +1  38.39857087 +1
  H(ATOM     10 2HB  THR A   2)   4.67135519 +1   2.40667211 +1  37.91438024 +1
  H(ATOM     11 3HB  THR A   2)   4.85457153 +1   0.67652820 +1  37.61062177 +1
  N(ATOM     12  N   GLY A   3)   4.14830249 +1   1.05662978 +1  34.87340942 +1
  C(ATOM     13  CA  GLY A   3)   3.04229911 +1   1.21543136 +1  33.94275822 +1
  C(ATOM     14  C   GLY A   3)   3.37509249 +1   0.52627703 +1  32.62179756 +1
  O(ATOM     15  O   GLY A   3)   3.37378574 +1  -0.69698615 +1  32.52625724 +1
  H(ATOM     16  H   GLY A   3)   4.20728359 +1   0.17017773 +1  35.35687260 +1
  H(ATOM     17 1HA  GLY A   3)   2.78986957 +1   2.29639519 +1  33.79047108 +1
  H(ATOM     18 2HA  GLY A   3)   2.10652664 +1   0.74949317 +1  34.35162076 +1
  N(ATOM     19  N   LEU A   4)   3.65342627 +1   1.32073091 +1  31.55056496 +1
  C(ATOM     20  CA  LEU A   4)   3.55879514 +1   0.81338515 +1  30.17174353 +1
  C(ATOM     21  C   LEU A   4)   4.74280686 +1  -0.09553626 +1  29.81339858 +1
  O(ATOM     22  O   LEU A   4)   4.57808093 +1  -1.06890899 +1  29.08858847 +1
  C(ATOM     23  CB  LEU A   4)   3.42208621 +1   2.04270305 +1  29.25791814 +1
  C(ATOM     24  CG  LEU A   4)   3.17067914 +1   1.78293108 +1  27.76528397 +1
  C(ATOM     25  CD1 LEU A   4)   4.49612790 +1   1.57044625 +1  27.03213785 +1
  C(ATOM     26  CD2 LEU A   4)   2.21832825 +1   0.61534404 +1  27.51853497 +1
  H(ATOM     27  H   LEU A   4)   3.70742019 +1   2.34553954 +1  31.64872830 +1
  H(ATOM     28  HA  LEU A   4)   2.62961085 +1   0.17064614 +1  30.07671227 +1
  H(ATOM     29 1HB  LEU A   4)   4.30769521 +1   2.70267566 +1  29.36498391 +1
  H(ATOM     30 2HB  LEU A   4)   2.57590087 +1   2.66087822 +1  29.64396035 +1
  H(ATOM     31  HG  LEU A   4)   2.69875692 +1   2.71411224 +1  27.34977647 +1
  H(ATOM     32 1HD1 LEU A   4)   5.19835232 +1   2.38519536 +1  27.23900577 +1
  H(ATOM     33 2HD1 LEU A   4)   4.96471981 +1   0.61990449 +1  27.31542656 +1
  H(ATOM     34 3HD1 LEU A   4)   4.33739559 +1   1.55590291 +1  25.94902591 +1
  H(ATOM     35 1HD2 LEU A   4)   1.28380064 +1   0.73113676 +1  28.07840806 +1
  H(ATOM     36 2HD2 LEU A   4)   1.95130977 +1   0.54195527 +1  26.45718223 +1
  H(ATOM     37 3HD2 LEU A   4)   2.67503963 +1  -0.34195512 +1  27.80388728 +1
  N(ATOM     38  N   LEU A   5)   6.00020570 +1   0.16551792 +1  30.28569545 +1
  C(ATOM     39  CA  LEU A   5)   7.07202426 +1  -0.81621664 +1  30.09132814 +1
  C(ATOM     40  C   LEU A   5)   7.25281132 +1  -1.70142481 +1  31.33856117 +1
  O(ATOM     41  O   LEU A   5)   8.22119304 +1  -2.44054638 +1  31.42657386 +1
  C(ATOM     42  CB  LEU A   5)   8.42568382 +1  -0.12351885 +1  29.83950369 +1
  C(ATOM     43  CG  LEU A   5)   8.80740837 +1  -0.03795088 +1  28.35227484 +1
  C(ATOM     44  CD1 LEU A   5)   8.75548606 +1  -1.40890836 +1  27.66974304 +1
  C(ATOM     45  CD2 LEU A   5)   7.89365606 +1   0.93643607 +1  27.61535581 +1
  H(ATOM     46  H   LEU A   5)   6.17288750 +1   0.85650739 +1  31.02356499 +1
  H(ATOM     47  HA  LEU A   5)   6.80680338 +1  -1.49519618 +1  29.22952914 +1
  H(ATOM     48 1HB  LEU A   5)   9.23411027 +1  -0.66679948 +1  30.37905448 +1
  H(ATOM     49 2HB  LEU A   5)   8.42965321 +1   0.89394869 +1  30.28405904 +1
  H(ATOM     50  HG  LEU A   5)   9.85688434 +1   0.34797714 +1  28.29357929 +1
  H(ATOM     51 1HD1 LEU A   5)   9.15264855 +1  -2.19966584 +1  28.31722530 +1
  H(ATOM     52 2HD1 LEU A   5)   7.72647532 +1  -1.67537240 +1  27.39942781 +1
  H(ATOM     53 3HD1 LEU A   5)   9.33378762 +1  -1.40571512 +1  26.73866437 +1
  H(ATOM     54 1HD2 LEU A   5)   7.99054545 +1   1.95452428 +1  28.00455085 +1
  H(ATOM     55 2HD2 LEU A   5)   8.11752617 +1   0.94952291 +1  26.54187261 +1
  H(ATOM     56 3HD2 LEU A   5)   6.83913311 +1   0.64817622 +1  27.71861973 +1
  N(ATOM     57  N   ASP A   6)   6.30335634 +1  -1.68785828 +1  32.32593848 +1
  C(ATOM     58  CA  ASP A   6)   6.60456319 +1  -2.28828220 +1  33.63049685 +1
  C(ATOM     59  C   ASP A   6)   7.35343943 +1  -3.62950511 +1  33.47067147 +1
  O(ATOM     60  O   ASP A   6)   6.79308957 +1  -4.64276836 +1  33.08866074 +1
  C(ATOM     61  CB  ASP A   6)   5.29272998 +1  -2.55255124 +1  34.38508027 +1
  C(ATOM     62  CG  ASP A   6)   5.41086331 +1  -2.16319980 +1  35.81766440 +1
  O(ATOM     63  OD1 ASP A   6)   4.23443312 +1  -1.68781048 +1  36.27900654 +1
  O(ATOM     64  OD2 ASP A   6)   6.38914295 +1  -2.18983932 +1  36.52413103 +1
  H(ATOM     65  H   ASP A   6)   5.58482635 +1  -0.96309850 +1  32.35081773 +1
  H(ATOM     66  HA  ASP A   6)   7.24638479 +1  -1.56391806 +1  34.21683505 +1
  H(ATOM     67 1HB  ASP A   6)   4.98216541 +1  -3.62943247 +1  34.31818126 +1
  H(ATOM     68 2HB  ASP A   6)   4.42218030 +1  -2.03405404 +1  33.90076443 +1
  H(ATOM     69  HD1 ASP A   6)   4.18524889 +1  -1.55191018 +1  37.26984989 +1
  N(ATOM     70  N   GLY A   7)   8.62849838 +1  -3.63561199 +1  33.97492829 +1
  C(ATOM     71  CA  GLY A   7)   9.36036784 +1  -4.88747081 +1  34.09512023 +1
  C(ATOM     72  C   GLY A   7)  10.19073580 +1  -5.30058769 +1  32.88682512 +1
  O(ATOM     73  O   GLY A   7)  10.81288538 +1  -6.35783115 +1  32.91874449 +1
  H(ATOM     74  H   GLY A   7)   9.17015245 +1  -2.77122065 +1  34.04443367 +1
  H(ATOM     75 1HA  GLY A   7)   8.65272311 +1  -5.72847149 +1  34.33213918 +1
  H(ATOM     76 2HA  GLY A   7)  10.04876786 +1  -4.81740821 +1  34.98097202 +1
  N(ATOM     77  N   LYS A   8)  10.22900751 +1  -4.49314326 +1  31.79142975 +1
  C(ATOM     78  CA  LYS A   8)  11.00706066 +1  -4.87693862 +1  30.62254018 +1
  C(ATOM     79  C   LYS A   8)  12.36952719 +1  -4.15305298 +1  30.68374725 +1
  O(ATOM     80  O   LYS A   8)  12.49633567 +1  -2.97831649 +1  30.98106744 +1
  C(ATOM     81  CB  LYS A   8)  10.31530521 +1  -4.43179208 +1  29.31993307 +1
  C(ATOM     82  CG  LYS A   8)   9.27031279 +1  -5.44873217 +1  28.84427170 +1
  C(ATOM     83  CD  LYS A   8)   9.05774511 +1  -5.33624930 +1  27.33025685 +1
  C(ATOM     84  CE  LYS A   8)   8.23985771 +1  -6.52039297 +1  26.81066974 +1
  N(ATOM     85  NZ  LYS A   8)   8.19768806 +1  -6.48921781 +1  25.29487290 +1
  H(ATOM     86  H   LYS A   8)   9.70991967 +1  -3.61998905 +1  31.74266618 +1
  H(ATOM     87  HA  LYS A   8)  11.16559474 +1  -5.99786385 +1  30.63049627 +1
  H(ATOM     88 1HB  LYS A   8)  11.07796734 +1  -4.25745252 +1  28.53465376 +1
  H(ATOM     89 2HB  LYS A   8)   9.83351468 +1  -3.43909603 +1  29.47537692 +1
  H(ATOM     90 1HG  LYS A   8)   8.31138911 +1  -5.28485949 +1  29.38044065 +1
  H(ATOM     91 2HG  LYS A   8)   9.56811834 +1  -6.47967636 +1  29.12193754 +1
  H(ATOM     92 1HD  LYS A   8)  10.02451237 +1  -5.26930375 +1  26.79052173 +1
  H(ATOM     93 2HD  LYS A   8)   8.55341454 +1  -4.37699164 +1  27.08902477 +1
  H(ATOM     94 1HE  LYS A   8)   8.65906965 +1  -7.49994451 +1  27.13856534 +1
  H(ATOM     95 2HE  LYS A   8)   7.19412250 +1  -6.48745582 +1  27.20546330 +1
  H(ATOM     96 1HZ  LYS A   8)   9.07200026 +1  -6.85557712 +1  24.89217813 +1
  H(ATOM     97 2HZ  LYS A   8)   7.39331488 +1  -7.04277907 +1  24.93345308 +1
  H(ATOM     98 3HZ  LYS A   8)   8.04889020 +1  -5.50395218 +1  24.95687325 +1
  N(ATOM     99  N   ARG A   9)  13.44706735 +1  -4.91870149 +1  30.31680039 +1
  C(ATOM    100  CA  ARG A   9)  14.73852517 +1  -4.28879023 +1  30.06374995 +1
  C(ATOM    101  C   ARG A   9)  14.78810336 +1  -3.96941354 +1  28.56102451 +1
  O(ATOM    102  O   ARG A   9)  14.39948161 +1  -4.77914849 +1  27.72252482 +1
  C(ATOM    103  CB  ARG A   9)  15.89770916 +1  -5.24363258 +1  30.38165592 +1
  C(ATOM    104  CG  ARG A   9)  16.01907497 +1  -5.42086375 +1  31.89488174 +1
  C(ATOM    105  CD  ARG A   9)  16.94994995 +1  -6.59665492 +1  32.22207763 +1
  N(ATOM    106  NE  ARG A   9)  16.47614941 +1  -7.35835131 +1  33.39280759 +1
  C(ATOM    107  CZ  ARG A   9)  17.13217134 +1  -7.29138937 +1  34.63745258 +1
  N(ATOM    108  NH1 ARG A   9)  18.40506281 +1  -6.69203082 +1  34.74706871 +1
  N(ATOM    109  NH2 ARG A   9)  16.51506508 +1  -7.81880950 +1  35.66003255 +1
  H(ATOM    110  H   ARG A   9)  13.37145773 +1  -5.90975942 +1  30.08348587 +1
  H(ATOM    111  HA  ARG A   9)  14.83186125 +1  -3.34166900 +1  30.67302784 +1
  H(ATOM    112 1HB  ARG A   9)  16.84426250 +1  -4.83857040 +1  29.96937051 +1
  H(ATOM    113 2HB  ARG A   9)  15.74336236 +1  -6.22613565 +1  29.88012289 +1
  H(ATOM    114 1HG  ARG A   9)  15.01339898 +1  -5.57483396 +1  32.34028963 +1
  H(ATOM    115 2HG  ARG A   9)  16.40989061 +1  -4.49205545 +1  32.35995237 +1
  H(ATOM    116 1HD  ARG A   9)  16.98275527 +1  -7.32080086 +1  31.36601824 +1
  H(ATOM    117 2HD  ARG A   9)  17.99400510 +1  -6.22705648 +1  32.33922790 +1
  H(ATOM    118  HE  ARG A   9)  15.44742300 +1  -7.36568558 +1  33.45516584 +1
  H(ATOM    119 1HH1 ARG A   9)  19.18357551 +1  -7.31350147 +1  34.93061356 +1
  H(ATOM    120 2HH1 ARG A   9)  18.66656108 +1  -5.98995678 +1  34.05368823 +1
  H(ATOM    121  HH2 ARG A   9)  17.02097953 +1  -7.87718027 +1  36.53502371 +1
  N(ATOM    122  N   ILE A  10)  15.30186804 +1  -2.77220991 +1  28.18520073 +1
  C(ATOM    123  CA  ILE A  10)  15.34447481 +1  -2.41460735 +1  26.76986658 +1
  C(ATOM    124  C   ILE A  10)  16.72218502 +1  -1.79917829 +1  26.52414004 +1
  O(ATOM    125  O   ILE A  10)  17.19825569 +1  -0.97623160 +1  27.28915487 +1
  C(ATOM    126  CB  ILE A  10)  14.26046865 +1  -1.36666323 +1  26.39928363 +1
  C(ATOM    127  CG1 ILE A  10)  12.85516225 +1  -1.98321546 +1  26.52419069 +1
  C(ATOM    128  CG2 ILE A  10)  14.51013689 +1  -0.82600450 +1  24.99266471 +1
  C(ATOM    129  CD1 ILE A  10)  12.19091917 +1  -1.58395447 +1  27.83759258 +1
  H(ATOM    130  H   ILE A  10)  15.56793711 +1  -2.05203863 +1  28.86120849 +1
  H(ATOM    131  HA  ILE A  10)  15.19862529 +1  -3.34589146 +1  26.14232968 +1
  H(ATOM    132  HB  ILE A  10)  14.34108114 +1  -0.51187960 +1  27.11362611 +1
  H(ATOM    133 1HG1 ILE A  10)  12.21889755 +1  -1.66028565 +1  25.67689811 +1
  H(ATOM    134 2HG1 ILE A  10)  12.90899744 +1  -3.08737174 +1  26.45956648 +1
  H(ATOM    135 1HG2 ILE A  10)  15.41794019 +1  -0.20929807 +1  24.94475588 +1
  H(ATOM    136 2HG2 ILE A  10)  14.63430596 +1  -1.62313396 +1  24.25037075 +1
  H(ATOM    137 3HG2 ILE A  10)  13.68716242 +1  -0.18316740 +1  24.65650004 +1
  H(ATOM    138 1HD1 ILE A  10)  11.21667063 +1  -2.07175615 +1  27.95361308 +1
  H(ATOM    139 2HD1 ILE A  10)  12.79800697 +1  -1.87638295 +1  28.70647739 +1
  H(ATOM    140 3HD1 ILE A  10)  12.02405999 +1  -0.50251061 +1  27.88652473 +1
  N(ATOM    141  N   LEU A  11)  17.40748705 +1  -2.21597079 +1  25.40824414 +1
  C(ATOM    142  CA  LEU A  11)  18.50542747 +1  -1.36907699 +1  24.94441599 +1
  C(ATOM    143  C   LEU A  11)  17.87319566 +1  -0.32326766 +1  24.01128039 +1
  O(ATOM    144  O   LEU A  11)  17.11841702 +1  -0.69901002 +1  23.12334779 +1
  C(ATOM    145  CB  LEU A  11)  19.55870514 +1  -2.16160673 +1  24.15802980 +1
  C(ATOM    146  CG  LEU A  11)  20.65114886 +1  -1.21161676 +1  23.61750608 +1
  C(ATOM    147  CD1 LEU A  11)  22.03467516 +1  -1.85382521 +1  23.75276853 +1
  C(ATOM    148  CD2 LEU A  11)  20.36863794 +1  -0.84092069 +1  22.15858356 +1
  H(ATOM    149  H   LEU A  11)  16.96669812 +1  -2.84487247 +1  24.73491514 +1
  H(ATOM    150  HA  LEU A  11)  18.99451237 +1  -0.88237251 +1  25.84221185 +1
  H(ATOM    151 1HB  LEU A  11)  19.08940155 +1  -2.72056488 +1  23.32544524 +1
  H(ATOM    152 2HB  LEU A  11)  20.00266232 +1  -2.92810129 +1  24.82344585 +1
  H(ATOM    153  HG  LEU A  11)  20.65580319 +1  -0.27227097 +1  24.22927630 +1
  H(ATOM    154 1HD1 LEU A  11)  22.29804959 +1  -2.01474960 +1  24.80475422 +1
  H(ATOM    155 2HD1 LEU A  11)  22.09177149 +1  -2.81610509 +1  23.23165233 +1
  H(ATOM    156 3HD1 LEU A  11)  22.81330288 +1  -1.21090668 +1  23.32551568 +1
  H(ATOM    157 1HD2 LEU A  11)  19.30569451 +1  -0.64680088 +1  21.97134628 +1
  H(ATOM    158 2HD2 LEU A  11)  20.90732823 +1   0.06576421 +1  21.85971095 +1
  H(ATOM    159 3HD2 LEU A  11)  20.67202880 +1  -1.63187963 +1  21.46558012 +1
  N(ATOM    160  N   VAL A  12)  18.11318358 +1   1.00023491 +1  24.23287325 +1
  C(ATOM    161  CA  VAL A  12)  17.64539302 +1   1.99753950 +1  23.27309572 +1
  C(ATOM    162  C   VAL A  12)  18.89940809 +1   2.54033959 +1  22.55906408 +1
  O(ATOM    163  O   VAL A  12)  19.80680170 +1   3.07871948 +1  23.19120709 +1
  C(ATOM    164  CB  VAL A  12)  16.92302738 +1   3.19171903 +1  23.95131523 +1
  C(ATOM    165  CG1 VAL A  12)  16.37713753 +1   4.13480400 +1  22.88067076 +1
  C(ATOM    166  CG2 VAL A  12)  15.78972199 +1   2.69732575 +1  24.85009621 +1
  H(ATOM    167  H   VAL A  12)  18.80736662 +1   1.30108119 +1  24.92231675 +1
  H(ATOM    168  HA  VAL A  12)  16.93732984 +1   1.51549186 +1  22.54198838 +1
  H(ATOM    169  HB  VAL A  12)  17.67206910 +1   3.75287740 +1  24.56583931 +1
  H(ATOM    170 1HG1 VAL A  12)  17.13601066 +1   4.39016187 +1  22.12612520 +1
  H(ATOM    171 2HG1 VAL A  12)  15.51522388 +1   3.71819677 +1  22.35122121 +1
  H(ATOM    172 3HG1 VAL A  12)  16.04996676 +1   5.08817571 +1  23.32825576 +1
  H(ATOM    173 1HG2 VAL A  12)  16.17312478 +1   2.10288110 +1  25.68924062 +1
  H(ATOM    174 2HG2 VAL A  12)  15.22819659 +1   3.54434198 +1  25.26495474 +1
  H(ATOM    175 3HG2 VAL A  12)  15.07799413 +1   2.07342682 +1  24.29837265 +1
  N(ATOM    176  N   SER A  13)  18.99202564 +1   2.32762701 +1  21.22391493 +1
  C(ATOM    177  CA  SER A  13)  20.05597539 +1   2.94331109 +1  20.43087326 +1
  C(ATOM    178  C   SER A  13)  19.54359368 +1   4.30582453 +1  19.93702538 +1
  O(ATOM    179  O   SER A  13)  18.35401283 +1   4.57154532 +1  19.97119584 +1
  C(ATOM    180  CB  SER A  13)  20.35827652 +1   2.01873324 +1  19.22830883 +1
  O(ATOM    181  OG  SER A  13)  19.63626605 +1   2.42831293 +1  18.09472299 +1
  H(ATOM    182  H   SER A  13)  18.24169713 +1   1.89922636 +1  20.66843607 +1
  H(ATOM    183  HA  SER A  13)  20.98302040 +1   3.07545250 +1  21.05543061 +1
  H(ATOM    184 1HB  SER A  13)  21.44214849 +1   1.98846785 +1  19.00943373 +1
  H(ATOM    185 2HB  SER A  13)  19.98810894 +1   0.98585911 +1  19.40705725 +1
  H(ATOM    186  HG  SER A  13)  20.07294099 +1   3.20460983 +1  17.65245894 +1
  N(ATOM    187  N   GLY A  14)  20.45211774 +1   5.17640890 +1  19.39048006 +1
  C(ATOM    188  CA  GLY A  14)  19.97089412 +1   6.43296899 +1  18.82992491 +1
  C(ATOM    189  C   GLY A  14)  20.05148762 +1   7.65926229 +1  19.72561923 +1
  O(ATOM    190  O   GLY A  14)  19.34946952 +1   8.64165458 +1  19.50744476 +1
  H(ATOM    191  H   GLY A  14)  21.45624906 +1   5.05563075 +1  19.45462900 +1
  H(ATOM    192 1HA  GLY A  14)  18.89611942 +1   6.32843764 +1  18.49899458 +1
  H(ATOM    193 2HA  GLY A  14)  20.53324208 +1   6.65013546 +1  17.87838987 +1
  N(ATOM    194  N   ILE A  15)  20.97304723 +1   7.71460702 +1  20.74564989 +1
  C(ATOM    195  CA  ILE A  15)  20.98563272 +1   8.90173333 +1  21.60725599 +1
  C(ATOM    196  C   ILE A  15)  22.27377998 +1   9.65294658 +1  21.23688782 +1
  O(ATOM    197  O   ILE A  15)  23.36654815 +1   9.27394969 +1  21.63829595 +1
  C(ATOM    198  CB  ILE A  15)  21.00480758 +1   8.53956679 +1  23.11525200 +1
  C(ATOM    199  CG1 ILE A  15)  19.64842815 +1   7.90155571 +1  23.46051714 +1
  C(ATOM    200  CG2 ILE A  15)  21.26566048 +1   9.80795452 +1  23.92760505 +1
  C(ATOM    201  CD1 ILE A  15)  19.52523222 +1   7.52673785 +1  24.93392418 +1
  H(ATOM    202  H   ILE A  15)  21.39090834 +1   6.86574575 +1  21.12158869 +1
  H(ATOM    203  HA  ILE A  15)  20.08621878 +1   9.55055630 +1  21.39595938 +1
  H(ATOM    204  HB  ILE A  15)  21.82420895 +1   7.80144170 +1  23.30283206 +1
  H(ATOM    205 1HG1 ILE A  15)  18.83089892 +1   8.58578923 +1  23.17073535 +1
  H(ATOM    206 2HG1 ILE A  15)  19.51507070 +1   6.98466660 +1  22.84478303 +1
  H(ATOM    207 1HG2 ILE A  15)  22.25123333 +1  10.23738459 +1  23.70316276 +1
  H(ATOM    208 2HG2 ILE A  15)  20.52201253 +1  10.58906675 +1  23.72348561 +1
  H(ATOM    209 3HG2 ILE A  15)  21.25647106 +1   9.60402558 +1  25.00324901 +1
  H(ATOM    210 1HD1 ILE A  15)  18.61332737 +1   6.93967486 +1  25.10557666 +1
  H(ATOM    211 2HD1 ILE A  15)  20.38012662 +1   6.91040868 +1  25.24272441 +1
  H(ATOM    212 3HD1 ILE A  15)  19.48240819 +1   8.41209563 +1  25.57710945 +1
  N(ATOM    213  N   ILE A  16)  22.14774499 +1  10.77358477 +1  20.46077723 +1
  C(ATOM    214  CA  ILE A  16)  23.30190032 +1  11.63561065 +1  20.20619024 +1
  C(ATOM    215  C   ILE A  16)  23.21754603 +1  12.88318549 +1  21.10490509 +1
  O(ATOM    216  O   ILE A  16)  24.23491384 +1  13.32436965 +1  21.63095436 +1
  C(ATOM    217  CB  ILE A  16)  23.42671325 +1  12.02790386 +1  18.70806862 +1
  C(ATOM    218  CG1 ILE A  16)  24.91230566 +1  12.06145884 +1  18.29333287 +1
  C(ATOM    219  CG2 ILE A  16)  22.78483204 +1  13.37625006 +1  18.39458090 +1
  C(ATOM    220  CD1 ILE A  16)  25.22757559 +1  11.10513905 +1  17.14863384 +1
  H(ATOM    221  H   ILE A  16)  21.26454698 +1  11.02728992 +1  19.99515777 +1
  H(ATOM    222  HA  ILE A  16)  24.24543185 +1  11.08985201 +1  20.52001464 +1
  H(ATOM    223  HB  ILE A  16)  22.89487407 +1  11.24411049 +1  18.10394797 +1
  H(ATOM    224 1HG1 ILE A  16)  25.57093129 +1  11.83352114 +1  19.15198252 +1
  H(ATOM    225 2HG1 ILE A  16)  25.18859672 +1  13.09089434 +1  17.98447479 +1
  H(ATOM    226 1HG2 ILE A  16)  21.73007983 +1  13.41917946 +1  18.69372507 +1
  H(ATOM    227 2HG2 ILE A  16)  23.31803457 +1  14.21231347 +1  18.86384811 +1
  H(ATOM    228 3HG2 ILE A  16)  22.79774460 +1  13.56570906 +1  17.30843931 +1
  H(ATOM    229 1HD1 ILE A  16)  25.16929263 +1  10.06040502 +1  17.47159086 +1
  H(ATOM    230 2HD1 ILE A  16)  24.55292614 +1  11.26116575 +1  16.29582343 +1
  H(ATOM    231 3HD1 ILE A  16)  26.24475513 +1  11.26844771 +1  16.76820851 +1
  N(ATOM    232  N   THR A  17)  22.00577314 +1  13.47556573 +1  21.30960486 +1
  C(ATOM    233  CA  THR A  17)  21.83109903 +1  14.52189484 +1  22.30569993 +1
  C(ATOM    234  C   THR A  17)  20.99872228 +1  13.93122020 +1  23.45505726 +1
  O(ATOM    235  O   THR A  17)  20.47738112 +1  12.83286915 +1  23.38125527 +1
  C(ATOM    236  CB  THR A  17)  21.02819439 +1  15.72074510 +1  21.70692275 +1
  O(ATOM    237  OG1 THR A  17)  19.77703096 +1  15.14556042 +1  21.36056786 +1
  C(ATOM    238  CG2 THR A  17)  21.67562823 +1  16.31992459 +1  20.47972631 +1
  H(ATOM    239  H   THR A  17)  21.14865109 +1  13.13990070 +1  20.86628325 +1
  H(ATOM    240  HA  THR A  17)  22.82833703 +1  14.89624048 +1  22.67525925 +1
  H(ATOM    241  HB  THR A  17)  20.85460883 +1  16.49350420 +1  22.49364833 +1
  H(ATOM    242  HG1 THR A  17)  19.05966142 +1  15.83822362 +1  21.26388334 +1
  H(ATOM    243 1HG2 THR A  17)  21.14010628 +1  17.21975734 +1  20.14380254 +1
  H(ATOM    244 2HG2 THR A  17)  22.72404353 +1  16.60443427 +1  20.66571006 +1
  H(ATOM    245 3HG2 THR A  17)  21.68151850 +1  15.61735060 +1  19.63218305 +1
  N(ATOM    246  N   ASP A  18)  20.75442928 +1  14.73611566 +1  24.54887954 +1
  C(ATOM    247  CA  ASP A  18)  19.67775733 +1  14.36447533 +1  25.47073033 +1
  C(ATOM    248  C   ASP A  18)  18.30788659 +1  14.87284987 +1  24.94379832 +1
  O(ATOM    249  O   ASP A  18)  17.44957737 +1  15.32354042 +1  25.67313573 +1
  C(ATOM    250  CB  ASP A  18)  19.90586251 +1  14.87737299 +1  26.89216290 +1
  C(ATOM    251  CG  ASP A  18)  20.20321466 +1  16.33633664 +1  26.97554906 +1
  O(ATOM    252  OD1 ASP A  18)  20.60906529 +1  17.05966467 +1  26.08977771 +1
  O(ATOM    253  OD2 ASP A  18)  19.99193990 +1  16.79716305 +1  28.21645024 +1
  H(ATOM    254  H   ASP A  18)  21.13768013 +1  15.67157480 +1  24.65993043 +1
  H(ATOM    255  HA  ASP A  18)  19.60222109 +1  13.22839150 +1  25.50584134 +1
  H(ATOM    256 1HB  ASP A  18)  20.72944063 +1  14.30190651 +1  27.39683755 +1
  H(ATOM    257 2HB  ASP A  18)  19.00206850 +1  14.63153035 +1  27.51626578 +1
  H(ATOM    258  HD2 ASP A  18)  20.22669912 +1  17.76504196 +1  28.34761132 +1
  N(ATOM    259  N   SER A  19)  18.10693488 +1  14.66456310 +1  23.60155379 +1
  C(ATOM    260  CA  SER A  19)  16.90772915 +1  15.10327334 +1  22.89646643 +1
  C(ATOM    261  C   SER A  19)  16.77613524 +1  14.33761131 +1  21.57307416 +1
  O(ATOM    262  O   SER A  19)  15.79704930 +1  14.50287018 +1  20.85985988 +1
  C(ATOM    263  CB  SER A  19)  16.95857817 +1  16.62314983 +1  22.62411347 +1
  O(ATOM    264  OG  SER A  19)  17.71354291 +1  16.85400559 +1  21.45377283 +1
  H(ATOM    265  H   SER A  19)  18.90219198 +1  14.51582148 +1  22.98530637 +1
  H(ATOM    266  HA  SER A  19)  15.99222924 +1  14.86936475 +1  23.52518140 +1
  H(ATOM    267 1HB  SER A  19)  15.94510491 +1  17.04975407 +1  22.51770823 +1
  H(ATOM    268 2HB  SER A  19)  17.49445467 +1  17.16010513 +1  23.43250096 +1
  H(ATOM    269  HG  SER A  19)  17.11629206 +1  17.18861190 +1  20.73087944 +1
  N(ATOM    270  N   SER A  20)  17.72704213 +1  13.43671499 +1  21.16341162 +1
  C(ATOM    271  CA  SER A  20)  17.43085757 +1  12.59211666 +1  20.00415598 +1
  C(ATOM    272  C   SER A  20)  16.08006166 +1  11.91528322 +1  20.27425904 +1
  O(ATOM    273  O   SER A  20)  15.72946620 +1  11.64545417 +1  21.41969441 +1
  C(ATOM    274  CB  SER A  20)  18.51257907 +1  11.48993804 +1  19.85583285 +1
  O(ATOM    275  OG  SER A  20)  19.74560408 +1  12.09218611 +1  19.58310364 +1
  H(ATOM    276  H   SER A  20)  18.57122724 +1  13.21661616 +1  21.67849553 +1
  H(ATOM    277  HA  SER A  20)  17.39743573 +1  13.22535535 +1  19.07214361 +1
  H(ATOM    278 1HB  SER A  20)  18.67139239 +1  10.93344480 +1  20.79894825 +1
  H(ATOM    279 2HB  SER A  20)  18.25032458 +1  10.77803849 +1  19.04413672 +1
  H(ATOM    280  HG  SER A  20)  19.86633025 +1  12.24045113 +1  18.57057995 +1
  N(ATOM    281  N   ILE A  21)  15.25425664 +1  11.64921811 +1  19.21672450 +1
  C(ATOM    282  CA  ILE A  21)  14.06158669 +1  10.83130856 +1  19.48356332 +1
  C(ATOM    283  C   ILE A  21)  14.37941370 +1   9.71792148 +1  20.50021844 +1
  O(ATOM    284  O   ILE A  21)  13.65003771 +1   9.54625159 +1  21.47026462 +1
  C(ATOM    285  CB  ILE A  21)  13.50157354 +1  10.19116210 +1  18.18705289 +1
  C(ATOM    286  CG1 ILE A  21)  12.85830981 +1  11.26197962 +1  17.28834796 +1
  C(ATOM    287  CG2 ILE A  21)  12.47583183 +1   9.12197337 +1  18.56598827 +1
  C(ATOM    288  CD1 ILE A  21)  12.52361509 +1  10.70076615 +1  15.90749423 +1
  H(ATOM    289  H   ILE A  21)  15.63817418 +1  11.62023044 +1  18.23585184 +1
  H(ATOM    290  HA  ILE A  21)  13.28144837 +1  11.49306161 +1  19.96010697 +1
  H(ATOM    291  HB  ILE A  21)  14.34395370 +1   9.70965670 +1  17.62241170 +1
  H(ATOM    292 1HG1 ILE A  21)  11.94256713 +1  11.66230897 +1  17.76205024 +1
  H(ATOM    293 2HG1 ILE A  21)  13.55107589 +1  12.11953857 +1  17.16877829 +1
  H(ATOM    294 1HG2 ILE A  21)  12.94154144 +1   8.26036703 +1  19.05996068 +1
  H(ATOM    295 2HG2 ILE A  21)  11.69829525 +1   9.50988843 +1  19.23413197 +1
  H(ATOM    296 3HG2 ILE A  21)  11.97658753 +1   8.72742023 +1  17.67168533 +1
  H(ATOM    297 1HD1 ILE A  21)  12.19479798 +1  11.49414017 +1  15.22361830 +1
  H(ATOM    298 2HD1 ILE A  21)  13.39907476 +1  10.23024293 +1  15.43806200 +1
  H(ATOM    299 3HD1 ILE A  21)  11.73177049 +1   9.94780240 +1  15.94329831 +1
  N(ATOM    300  N   ALA A  22)  15.49496458 +1   8.95583566 +1  20.31071854 +1
  C(ATOM    301  CA  ALA A  22)  15.75711935 +1   7.81790760 +1  21.19297254 +1
  C(ATOM    302  C   ALA A  22)  15.96082776 +1   8.23999297 +1  22.64931792 +1
  O(ATOM    303  O   ALA A  22)  15.63087048 +1   7.46569891 +1  23.53466253 +1
  C(ATOM    304  CB  ALA A  22)  17.02381155 +1   7.08144281 +1  20.78440209 +1
  H(ATOM    305  H   ALA A  22)  16.06288536 +1   8.98030348 +1  19.43292042 +1
  H(ATOM    306  HA  ALA A  22)  14.86885568 +1   7.11792783 +1  21.16789311 +1
  H(ATOM    307 1HB  ALA A  22)  17.05307675 +1   6.88497703 +1  19.70215886 +1
  H(ATOM    308 2HB  ALA A  22)  17.92989333 +1   7.64869085 +1  21.03639042 +1
  H(ATOM    309 3HB  ALA A  22)  17.10678027 +1   6.10269864 +1  21.28121947 +1
  N(ATOM    310  N   PHE A  23)  16.60610810 +1   9.41822716 +1  22.92182347 +1
  C(ATOM    311  CA  PHE A  23)  16.69914572 +1   9.86682931 +1  24.31513627 +1
  C(ATOM    312  C   PHE A  23)  15.27790779 +1   9.97390658 +1  24.89597120 +1
  O(ATOM    313  O   PHE A  23)  14.99356548 +1   9.45614446 +1  25.96174461 +1
  C(ATOM    314  CB  PHE A  23)  17.41859903 +1  11.22065871 +1  24.38128625 +1
  C(ATOM    315  CG  PHE A  23)  17.40639796 +1  11.74918649 +1  25.78083880 +1
  C(ATOM    316  CD1 PHE A  23)  16.33864888 +1  12.53873155 +1  26.21354383 +1
  C(ATOM    317  CD2 PHE A  23)  18.46887822 +1  11.47629577 +1  26.64472170 +1
  C(ATOM    318  CE1 PHE A  23)  16.33732939 +1  13.06256147 +1  27.50379371 +1
  C(ATOM    319  CE2 PHE A  23)  18.47694543 +1  12.02799517 +1  27.92344529 +1
  C(ATOM    320  CZ  PHE A  23)  17.41247543 +1  12.81727642 +1  28.35561075 +1
  H(ATOM    321  H   PHE A  23)  16.69942460 +1  10.14005203 +1  22.20514399 +1
  H(ATOM    322  HA  PHE A  23)  17.25661643 +1   9.09082155 +1  24.91667503 +1
  H(ATOM    323 1HB  PHE A  23)  16.94696578 +1  11.94992383 +1  23.68121910 +1
  H(ATOM    324 2HB  PHE A  23)  18.46189610 +1  11.11492650 +1  24.00312315 +1
  H(ATOM    325  HD1 PHE A  23)  15.51180963 +1  12.75667738 +1  25.53824294 +1
  H(ATOM    326  HD2 PHE A  23)  19.29055460 +1  10.84466743 +1  26.31460299 +1
  H(ATOM    327  HE1 PHE A  23)  15.50328405 +1  13.68071629 +1  27.83415837 +1
  H(ATOM    328  HE2 PHE A  23)  19.32411839 +1  11.85263516 +1  28.58975095 +1
  H(ATOM    329  HZ  PHE A  23)  17.42532983 +1  13.24611469 +1  29.35767584 +1
  N(ATOM    330  N   HIS A  24)  14.35117492 +1  10.65473540 +1  24.15424534 +1
  C(ATOM    331  CA  HIS A  24)  12.95575957 +1  10.68806184 +1  24.58934752 +1
  C(ATOM    332  C   HIS A  24)  12.40830827 +1   9.25981149 +1  24.79194361 +1
  O(ATOM    333  O   HIS A  24)  11.89474415 +1   8.95466758 +1  25.85622933 +1
  C(ATOM    334  CB  HIS A  24)  12.10305519 +1  11.46132318 +1  23.56575761 +1
  C(ATOM    335  CG  HIS A  24)  12.49820433 +1  12.88113478 +1  23.58209554 +1
  N(ATOM    336  ND1 HIS A  24)  11.94697992 +1  13.78860611 +1  24.49135431 +1
  C(ATOM    337  CD2 HIS A  24)  13.45349714 +1  13.59009990 +1  22.85012934 +1
  N(ATOM    338  NE2 HIS A  24)  13.49058903 +1  14.90163947 +1  23.29860586 +1
  C(ATOM    339  CE1 HIS A  24)  12.58220784 +1  15.00371835 +1  24.29402081 +1
  H(ATOM    340  H   HIS A  24)  14.55894259 +1  10.96181341 +1  23.19907318 +1
  H(ATOM    341  HA  HIS A  24)  12.90647160 +1  11.19701107 +1  25.59512184 +1
  H(ATOM    342 1HB  HIS A  24)  11.02361737 +1  11.34256982 +1  23.81618011 +1
  H(ATOM    343 2HB  HIS A  24)  12.22928596 +1  11.02556013 +1  22.54349508 +1
  H(ATOM    344  HD1 HIS A  24)  11.25547107 +1  13.54991436 +1  25.19714100 +1
  H(ATOM    345  HD2 HIS A  24)  14.10485407 +1  13.23946186 +1  22.06753935 +1
  H(ATOM    346  HE1 HIS A  24)  12.35890300 +1  15.89686223 +1  24.85964387 +1
  N(ATOM    347  N   ILE A  25)  12.51022133 +1   8.37735572 +1  23.75302477 +1
  C(ATOM    348  CA  ILE A  25)  12.11468896 +1   6.97771223 +1  23.93420548 +1
  C(ATOM    349  C   ILE A  25)  12.60725295 +1   6.44881299 +1  25.29437330 +1
  O(ATOM    350  O   ILE A  25)  11.84650565 +1   5.86487290 +1  26.04766915 +1
  C(ATOM    351  CB  ILE A  25)  12.69374208 +1   6.06222153 +1  22.82403178 +1
  C(ATOM    352  CG1 ILE A  25)  12.21005829 +1   6.50584282 +1  21.43542081 +1
  C(ATOM    353  CG2 ILE A  25)  12.26717646 +1   4.61966278 +1  23.10859241 +1
  C(ATOM    354  CD1 ILE A  25)  12.96999632 +1   5.78851905 +1  20.32202572 +1
  H(ATOM    355  H   ILE A  25)  13.10371166 +1   8.60093941 +1  22.94831875 +1
  H(ATOM    356  HA  ILE A  25)  10.98922429 +1   6.91728405 +1  23.93401505 +1
  H(ATOM    357  HB  ILE A  25)  13.81301812 +1   6.12520111 +1  22.85910696 +1
  H(ATOM    358 1HG1 ILE A  25)  12.32899738 +1   7.60308365 +1  21.31028775 +1
  H(ATOM    359 2HG1 ILE A  25)  11.12264450 +1   6.31496399 +1  21.33150103 +1
  H(ATOM    360 1HG2 ILE A  25)  12.61669430 +1   4.27020328 +1  24.08779440 +1
  H(ATOM    361 2HG2 ILE A  25)  11.17470182 +1   4.51016585 +1  23.09512624 +1
  H(ATOM    362 3HG2 ILE A  25)  12.67716399 +1   3.93768235 +1  22.35460608 +1
  H(ATOM    363 1HD1 ILE A  25)  12.82293542 +1   6.28871594 +1  19.35504636 +1
  H(ATOM    364 2HD1 ILE A  25)  14.05259587 +1   5.76378360 +1  20.50158379 +1
  H(ATOM    365 3HD1 ILE A  25)  12.63201140 +1   4.75114868 +1  20.20218720 +1
  N(ATOM    366  N   ALA A  26)  13.94353287 +1   6.57360761 +1  25.55598633 +1
  C(ATOM    367  CA  ALA A  26)  14.52810754 +1   6.02235502 +1  26.77720281 +1
  C(ATOM    368  C   ALA A  26)  13.82657905 +1   6.60804800 +1  28.01777157 +1
  O(ATOM    369  O   ALA A  26)  13.34194484 +1   5.87617631 +1  28.86709924 +1
  C(ATOM    370  CB  ALA A  26)  16.01979351 +1   6.34830916 +1  26.82314638 +1
  H(ATOM    371  H   ALA A  26)  14.52903393 +1   7.22747257 +1  25.02511534 +1
  H(ATOM    372  HA  ALA A  26)  14.35003322 +1   4.90938719 +1  26.78026014 +1
  H(ATOM    373 1HB  ALA A  26)  16.55829909 +1   5.85932326 +1  25.99900937 +1
  H(ATOM    374 2HB  ALA A  26)  16.20306448 +1   7.43278743 +1  26.71892389 +1
  H(ATOM    375 3HB  ALA A  26)  16.47840384 +1   6.03959501 +1  27.77054755 +1
  N(ATOM    376  N   ARG A  27)  13.80998172 +1   7.96549220 +1  28.11590497 +1
  C(ATOM    377  CA  ARG A  27)  13.15709588 +1   8.65273994 +1  29.23166978 +1
  C(ATOM    378  C   ARG A  27)  11.76152904 +1   8.07122537 +1  29.50128282 +1
  O(ATOM    379  O   ARG A  27)  11.42492572 +1   7.78026670 +1  30.64074887 +1
  C(ATOM    380  CB  ARG A  27)  13.07678815 +1  10.15000879 +1  28.88481375 +1
  C(ATOM    381  CG  ARG A  27)  12.01994307 +1  10.89373202 +1  29.69434685 +1
  C(ATOM    382  CD  ARG A  27)  12.01430851 +1  12.38736189 +1  29.33524964 +1
  N(ATOM    383  NE  ARG A  27)  11.54035651 +1  12.66326244 +1  27.97035359 +1
  C(ATOM    384  CZ  ARG A  27)  10.18849021 +1  12.51860045 +1  27.63230121 +1
  N(ATOM    385  NH1 ARG A  27)   9.23982302 +1  12.49193835 +1  28.66352016 +1
  N(ATOM    386  NH2 ARG A  27)   9.90284892 +1  12.59834818 +1  26.34944446 +1
  H(ATOM    387  H   ARG A  27)  14.02414627 +1   8.53949365 +1  27.29141471 +1
  H(ATOM    388  HA  ARG A  27)  13.76937142 +1   8.47485447 +1  30.16855192 +1
  H(ATOM    389 1HB  ARG A  27)  12.85604962 +1  10.26408296 +1  27.79823831 +1
  H(ATOM    390 2HB  ARG A  27)  14.07632280 +1  10.61548815 +1  29.03184137 +1
  H(ATOM    391 1HG  ARG A  27)  12.18773780 +1  10.77801205 +1  30.78470544 +1
  H(ATOM    392 2HG  ARG A  27)  11.01541479 +1  10.45962730 +1  29.51864176 +1
  H(ATOM    393 1HD  ARG A  27)  11.39876542 +1  12.95902986 +1  30.06779957 +1
  H(ATOM    394 2HD  ARG A  27)  13.04493699 +1  12.81541817 +1  29.41204384 +1
  H(ATOM    395  HE  ARG A  27)  12.18121251 +1  12.37603866 +1  27.23319156 +1
  H(ATOM    396 1HH1 ARG A  27)   8.28576761 +1  12.24746345 +1  28.40664370 +1
  H(ATOM    397 2HH1 ARG A  27)   9.48083859 +1  12.02072110 +1  29.53386586 +1
  H(ATOM    398  HH2 ARG A  27)   8.93937991 +1  12.56066583 +1  26.06929459 +1
  N(ATOM    399  N   VAL A  28)  10.90524528 +1   7.96191397 +1  28.44404545 +1
  C(ATOM    400  CA  VAL A  28)   9.55505974 +1   7.44457965 +1  28.64720788 +1
  C(ATOM    401  C   VAL A  28)   9.62294576 +1   5.97983674 +1  29.10333577 +1
  O(ATOM    402  O   VAL A  28)   8.96830484 +1   5.61176227 +1  30.07273475 +1
  C(ATOM    403  CB  VAL A  28)   8.71265264 +1   7.57154905 +1  27.35467727 +1
  C(ATOM    404  CG1 VAL A  28)   7.35179965 +1   6.91406285 +1  27.58730981 +1
  C(ATOM    405  CG2 VAL A  28)   8.54807390 +1   9.04556516 +1  26.98096437 +1
  H(ATOM    406  H   VAL A  28)  11.22514883 +1   8.08293424 +1  27.48126466 +1
  H(ATOM    407  HA  VAL A  28)   9.05769145 +1   8.02960372 +1  29.47861207 +1
  H(ATOM    408  HB  VAL A  28)   9.24458981 +1   7.04614097 +1  26.52033527 +1
  H(ATOM    409 1HG1 VAL A  28)   7.44485630 +1   5.83791610 +1  27.79151299 +1
  H(ATOM    410 2HG1 VAL A  28)   6.82580733 +1   7.35709277 +1  28.43910208 +1
  H(ATOM    411 3HG1 VAL A  28)   6.70864438 +1   7.00105602 +1  26.70332056 +1
  H(ATOM    412 1HG2 VAL A  28)   9.51448209 +1   9.50804370 +1  26.72723178 +1
  H(ATOM    413 2HG2 VAL A  28)   7.89737677 +1   9.16361717 +1  26.10757166 +1
  H(ATOM    414 3HG2 VAL A  28)   8.11487681 +1   9.63122516 +1  27.80058548 +1
  N(ATOM    415  N   ALA A  29)  10.41557191 +1   5.10454775 +1  28.42959915 +1
  C(ATOM    416  CA  ALA A  29)  10.47310478 +1   3.70044933 +1  28.84885187 +1
  C(ATOM    417  C   ALA A  29)  10.78524857 +1   3.60578476 +1  30.35472434 +1
  O(ATOM    418  O   ALA A  29)  10.16382204 +1   2.84186251 +1  31.08172069 +1
  C(ATOM    419  CB  ALA A  29)  11.54934171 +1   2.96208719 +1  28.05574347 +1
  H(ATOM    420  H   ALA A  29)  11.09722024 +1   5.41644987 +1  27.73262152 +1
  H(ATOM    421  HA  ALA A  29)   9.46009049 +1   3.22812058 +1  28.68845825 +1
  H(ATOM    422 1HB  ALA A  29)  11.37291382 +1   3.04702183 +1  26.97128898 +1
  H(ATOM    423 2HB  ALA A  29)  12.54893902 +1   3.38882618 +1  28.23498105 +1
  H(ATOM    424 3HB  ALA A  29)  11.56959038 +1   1.89493198 +1  28.30099710 +1
  N(ATOM    425  N   GLN A  30)  11.81038822 +1   4.37628514 +1  30.81900378 +1
  C(ATOM    426  CA  GLN A  30)  12.17488217 +1   4.40943749 +1  32.23556978 +1
  C(ATOM    427  C   GLN A  30)  10.98202404 +1   4.88929600 +1  33.08015263 +1
  O(ATOM    428  O   GLN A  30)  10.66679406 +1   4.27409779 +1  34.09921489 +1
  C(ATOM    429  CB  GLN A  30)  13.34655537 +1   5.37314236 +1  32.44747480 +1
  C(ATOM    430  CG  GLN A  30)  14.59129833 +1   4.85328155 +1  31.73149510 +1
  C(ATOM    431  CD  GLN A  30)  15.66557032 +1   5.90088044 +1  31.80221875 +1
  O(ATOM    432  OE1 GLN A  30)  15.39135768 +1   7.08595551 +1  31.94923580 +1
  N(ATOM    433  NE2 GLN A  30)  16.97252479 +1   5.51640285 +1  31.62200061 +1
  H(ATOM    434  H   GLN A  30)  12.23940957 +1   5.09047293 +1  30.21765188 +1
  H(ATOM    435  HA  GLN A  30)  12.45565521 +1   3.36560904 +1  32.56948139 +1
  H(ATOM    436 1HB  GLN A  30)  13.54767227 +1   5.50237165 +1  33.53191491 +1
  H(ATOM    437 2HB  GLN A  30)  13.08829846 +1   6.39190899 +1  32.06265431 +1
  H(ATOM    438 1HG  GLN A  30)  14.91606884 +1   3.88493358 +1  32.16598972 +1
  H(ATOM    439 2HG  GLN A  30)  14.36503698 +1   4.65145132 +1  30.65772076 +1
  H(ATOM    440 1HE2 GLN A  30)  17.69887227 +1   6.19939078 +1  31.80272005 +1
  H(ATOM    441 2HE2 GLN A  30)  17.25991839 +1   4.55427488 +1  31.67943328 +1
  N(ATOM    442  N   GLU A  31)  10.35272073 +1   6.02677913 +1  32.69330553 +1
  C(ATOM    443  CA  GLU A  31)   9.15251590 +1   6.51767914 +1  33.38235413 +1
  C(ATOM    444  C   GLU A  31)   8.09456668 +1   5.40267116 +1  33.51001880 +1
  O(ATOM    445  O   GLU A  31)   7.36537861 +1   5.32368489 +1  34.48274678 +1
  C(ATOM    446  CB  GLU A  31)   8.50281021 +1   7.65180064 +1  32.57063954 +1
  C(ATOM    447  CG  GLU A  31)   9.34942701 +1   8.92212483 +1  32.58493678 +1
  C(ATOM    448  CD  GLU A  31)   8.93777133 +1   9.90007384 +1  31.52982386 +1
  O(ATOM    449  OE1 GLU A  31)   7.85192224 +1   9.53251978 +1  30.85008882 +1
  O(ATOM    450  OE2 GLU A  31)   9.51850010 +1  10.93738620 +1  31.26610132 +1
  H(ATOM    451  H   GLU A  31)  10.55774759 +1   6.46495889 +1  31.78369175 +1
  H(ATOM    452  HA  GLU A  31)   9.43489767 +1   6.86415215 +1  34.41734175 +1
  H(ATOM    453 1HB  GLU A  31)   7.48895034 +1   7.87180513 +1  32.97158071 +1
  H(ATOM    454 2HB  GLU A  31)   8.33017690 +1   7.31412100 +1  31.52131479 +1
  H(ATOM    455 1HG  GLU A  31)   9.29149102 +1   9.42252095 +1  33.58174614 +1
  H(ATOM    456 2HG  GLU A  31)  10.43407271 +1   8.68556928 +1  32.43818950 +1
  H(ATOM    457  HE1 GLU A  31)   7.49698843 +1  10.22591573 +1  30.16758748 +1
  N(ATOM    458  N   GLN A  32)   8.03088747 +1   4.51736093 +1  32.47094991 +1
  C(ATOM    459  CA  GLN A  32)   6.99855926 +1   3.49726314 +1  32.37034329 +1
  C(ATOM    460  C   GLN A  32)   7.49162594 +1   2.14786673 +1  32.92376393 +1
  O(ATOM    461  O   GLN A  32)   6.85634142 +1   1.11768703 +1  32.73215758 +1
  C(ATOM    462  CB  GLN A  32)   6.59518921 +1   3.32898938 +1  30.89425689 +1
  C(ATOM    463  CG  GLN A  32)   6.05267039 +1   4.61750499 +1  30.28055769 +1
  C(ATOM    464  CD  GLN A  32)   4.80442013 +1   5.06489765 +1  30.99835491 +1
  O(ATOM    465  OE1 GLN A  32)   3.87717386 +1   4.30245269 +1  31.25472834 +1
  N(ATOM    466  NE2 GLN A  32)   4.70966107 +1   6.38537195 +1  31.33601028 +1
  H(ATOM    467  H   GLN A  32)   8.63041327 +1   4.62923363 +1  31.64610826 +1
  H(ATOM    468  HA  GLN A  32)   6.09323387 +1   3.78809699 +1  32.99490118 +1
  H(ATOM    469 1HB  GLN A  32)   5.81141390 +1   2.54673961 +1  30.82657257 +1
  H(ATOM    470 2HB  GLN A  32)   7.46769805 +1   2.97926443 +1  30.29836737 +1
  H(ATOM    471 1HG  GLN A  32)   6.83618447 +1   5.40803419 +1  30.26775347 +1
  H(ATOM    472 2HG  GLN A  32)   5.80682222 +1   4.45738304 +1  29.20495559 +1
  H(ATOM    473 1HE2 GLN A  32)   3.90934078 +1   6.74519618 +1  31.83142362 +1
  H(ATOM    474 2HE2 GLN A  32)   5.46958368 +1   7.02540724 +1  31.21920998 +1
  N(ATOM    475  N   GLY A  33)   8.58489927 +1   2.14917921 +1  33.74469442 +1
  C(ATOM    476  CA  GLY A  33)   9.03452037 +1   0.92892429 +1  34.39556694 +1
  C(ATOM    477  C   GLY A  33)  10.11351878 +1   0.13688148 +1  33.65722595 +1
  O(ATOM    478  O   GLY A  33)  10.23714180 +1  -1.06132088 +1  33.87396325 +1
  H(ATOM    479  H   GLY A  33)   9.19009299 +1   2.97115387 +1  33.79008881 +1
  H(ATOM    480 1HA  GLY A  33)   8.16567819 +1   0.24131395 +1  34.56853356 +1
  H(ATOM    481 2HA  GLY A  33)   9.43595232 +1   1.18422044 +1  35.41594750 +1
  N(ATOM    482  N   ALA A  34)  11.00780116 +1   0.80308230 +1  32.85837133 +1
  C(ATOM    483  CA  ALA A  34)  11.97270879 +1   0.03438121 +1  32.07597519 +1
  C(ATOM    484  C   ALA A  34)  13.39711817 +1   0.26582789 +1  32.61641344 +1
  O(ATOM    485  O   ALA A  34)  13.84115901 +1   1.36869727 +1  32.90875203 +1
  C(ATOM    486  CB  ALA A  34)  12.02077930 +1   0.50362692 +1  30.62173638 +1
  H(ATOM    487  H   ALA A  34)  10.80724613 +1   1.74676879 +1  32.52129995 +1
  H(ATOM    488  HA  ALA A  34)  11.70480902 +1  -1.06897408 +1  32.11776772 +1
  H(ATOM    489 1HB  ALA A  34)  11.01127143 +1   0.54016200 +1  30.18714458 +1
  H(ATOM    490 2HB  ALA A  34)  12.45061230 +1   1.51124620 +1  30.52719611 +1
  H(ATOM    491 3HB  ALA A  34)  12.62512882 +1  -0.18288787 +1  30.01348027 +1
  N(ATOM    492  N   GLN A  35)  14.17839211 +1  -0.85948467 +1  32.68568773 +1
  C(ATOM    493  CA  GLN A  35)  15.62370965 +1  -0.73932255 +1  32.89476457 +1
  C(ATOM    494  C   GLN A  35)  16.22544511 +1  -0.61347080 +1  31.48154393 +1
  O(ATOM    495  O   GLN A  35)  15.82883397 +1  -1.35979592 +1  30.59988434 +1
  C(ATOM    496  CB  GLN A  35)  16.17680999 +1  -2.01179390 +1  33.55116585 +1
  C(ATOM    497  CG  GLN A  35)  17.69804541 +1  -1.94295251 +1  33.69952692 +1
  C(ATOM    498  CD  GLN A  35)  18.20320303 +1  -3.30516375 +1  34.10814838 +1
  O(ATOM    499  OE1 GLN A  35)  18.63913191 +1  -4.11220169 +1  33.29496303 +1
  N(ATOM    500  NE2 GLN A  35)  18.14089493 +1  -3.65093931 +1  35.43080475 +1
  H(ATOM    501  H   GLN A  35)  13.85089146 +1  -1.74037051 +1  32.26955263 +1
  H(ATOM    502  HA  GLN A  35)  15.84983886 +1   0.15666862 +1  33.53575439 +1
  H(ATOM    503 1HB  GLN A  35)  15.69442996 +1  -2.15049042 +1  34.54581479 +1
  H(ATOM    504 2HB  GLN A  35)  15.88736903 +1  -2.90525820 +1  32.95243042 +1
  H(ATOM    505 1HG  GLN A  35)  17.99914357 +1  -1.15954683 +1  34.42691262 +1
  H(ATOM    506 2HG  GLN A  35)  18.19326210 +1  -1.65811990 +1  32.74416987 +1
  H(ATOM    507 1HE2 GLN A  35)  17.76774514 +1  -3.05010793 +1  36.14212863 +1
  H(ATOM    508 2HE2 GLN A  35)  18.36312958 +1  -4.59836625 +1  35.69347824 +1
  N(ATOM    509  N   LEU A  36)  17.17982118 +1   0.33459490 +1  31.25176903 +1
  C(ATOM    510  CA  LEU A  36)  17.61330401 +1   0.57385924 +1  29.87808298 +1
  C(ATOM    511  C   LEU A  36)  19.14859217 +1   0.54221946 +1  29.81517175 +1
  O(ATOM    512  O   LEU A  36)  19.83151264 +1   1.18941696 +1  30.60120630 +1
  C(ATOM    513  CB  LEU A  36)  17.25272102 +1   1.97680604 +1  29.36296780 +1
  C(ATOM    514  CG  LEU A  36)  15.74883535 +1   2.28195085 +1  29.39473574 +1
  C(ATOM    515  CD1 LEU A  36)  15.54921540 +1   3.64451290 +1  28.73025081 +1
  C(ATOM    516  CD2 LEU A  36)  14.94095564 +1   1.22666395 +1  28.64308498 +1
  H(ATOM    517  H   LEU A  36)  17.44198055 +1   1.05106068 +1  31.92548627 +1
  H(ATOM    518  HA  LEU A  36)  17.15574259 +1  -0.21074384 +1  29.20048832 +1
  H(ATOM    519 1HB  LEU A  36)  17.79189133 +1   2.75697349 +1  29.94151124 +1
  H(ATOM    520 2HB  LEU A  36)  17.62384464 +1   2.06920123 +1  28.31838413 +1
  H(ATOM    521  HG  LEU A  36)  15.39791857 +1   2.32436093 +1  30.45417995 +1
  H(ATOM    522 1HD1 LEU A  36)  16.13160745 +1   4.43015473 +1  29.22755877 +1
  H(ATOM    523 2HD1 LEU A  36)  15.85519345 +1   3.61811928 +1  27.67773250 +1
  H(ATOM    524 3HD1 LEU A  36)  14.49294527 +1   3.94894765 +1  28.76097779 +1
  H(ATOM    525 1HD2 LEU A  36)  14.90884904 +1   0.27749109 +1  29.19271436 +1
  H(ATOM    526 2HD2 LEU A  36)  13.90863526 +1   1.55254805 +1  28.48052980 +1
  H(ATOM    527 3HD2 LEU A  36)  15.38875535 +1   1.02188965 +1  27.66016239 +1
  N(ATOM    528  N   VAL A  37)  19.67199023 +1  -0.17192269 +1  28.77548879 +1
  C(ATOM    529  CA  VAL A  37)  21.04744178 +1   0.03507291 +1  28.32039346 +1
  C(ATOM    530  C   VAL A  37)  20.92413428 +1   0.89977881 +1  27.05393821 +1
  O(ATOM    531  O   VAL A  37)  19.95966418 +1   0.74157242 +1  26.30989527 +1
  C(ATOM    532  CB  VAL A  37)  21.71821773 +1  -1.30428294 +1  27.91105006 +1
  C(ATOM    533  CG1 VAL A  37)  23.17771231 +1  -1.03013182 +1  27.54657862 +1
  C(ATOM    534  CG2 VAL A  37)  21.62077932 +1  -2.31568541 +1  29.04942256 +1
  H(ATOM    535  H   VAL A  37)  19.03539355 +1  -0.59035206 +1  28.08174812 +1
  H(ATOM    536  HA  VAL A  37)  21.65502448 +1   0.54963504 +1  29.11620129 +1
  H(ATOM    537  HB  VAL A  37)  21.18556033 +1  -1.71489309 +1  27.01620534 +1
  H(ATOM    538 1HG1 VAL A  37)  23.27377122 +1  -0.51007428 +1  26.58485268 +1
  H(ATOM    539 2HG1 VAL A  37)  23.68191437 +1  -0.39580504 +1  28.28976976 +1
  H(ATOM    540 3HG1 VAL A  37)  23.75973025 +1  -1.95525410 +1  27.46742752 +1
  H(ATOM    541 1HG2 VAL A  37)  20.57394054 +1  -2.51864231 +1  29.31691568 +1
  H(ATOM    542 2HG2 VAL A  37)  22.08895135 +1  -3.26783822 +1  28.77204237 +1
  H(ATOM    543 3HG2 VAL A  37)  22.11174429 +1  -1.95735374 +1  29.96357295 +1
  N(ATOM    544  N   LEU A  38)  21.87005041 +1   1.82479462 +1  26.76208496 +1
  C(ATOM    545  CA  LEU A  38)  21.63755076 +1   2.71143247 +1  25.61680217 +1
  C(ATOM    546  C   LEU A  38)  22.91835101 +1   2.65596571 +1  24.78134150 +1
  O(ATOM    547  O   LEU A  38)  23.99999500 +1   2.47564628 +1  25.31992221 +1
  C(ATOM    548  CB  LEU A  38)  21.37705895 +1   4.16073243 +1  26.06310135 +1
  C(ATOM    549  CG  LEU A  38)  20.32892837 +1   4.25233500 +1  27.18673394 +1
  C(ATOM    550  CD1 LEU A  38)  20.39435428 +1   5.63569546 +1  27.83670628 +1
  C(ATOM    551  CD2 LEU A  38)  18.91684509 +1   3.98562364 +1  26.66820233 +1
  H(ATOM    552  H   LEU A  38)  22.65847934 +1   2.04151346 +1  27.37679374 +1
  H(ATOM    553  HA  LEU A  38)  20.75450852 +1   2.34724470 +1  25.01189861 +1
  H(ATOM    554 1HB  LEU A  38)  22.32226969 +1   4.62530506 +1  26.41245765 +1
  H(ATOM    555 2HB  LEU A  38)  21.05303688 +1   4.75594087 +1  25.18338875 +1
  H(ATOM    556  HG  LEU A  38)  20.56822907 +1   3.48795240 +1  27.96709218 +1
  H(ATOM    557 1HD1 LEU A  38)  21.40637323 +1   5.85867756 +1  28.19900868 +1
  H(ATOM    558 2HD1 LEU A  38)  20.11887273 +1   6.42614427 +1  27.13156584 +1
  H(ATOM    559 3HD1 LEU A  38)  19.71027924 +1   5.69557874 +1  28.69250450 +1
  H(ATOM    560 1HD2 LEU A  38)  18.81162080 +1   2.94586366 +1  26.33181782 +1
  H(ATOM    561 2HD2 LEU A  38)  18.16368616 +1   4.16144122 +1  27.44438560 +1
  H(ATOM    562 3HD2 LEU A  38)  18.67946497 +1   4.63947093 +1  25.81833667 +1
  N(ATOM    563  N   THR A  39)  22.83851442 +1   2.84568891 +1  23.42982947 +1
  C(ATOM    564  CA  THR A  39)  24.07710608 +1   2.86432809 +1  22.66039224 +1
  C(ATOM    565  C   THR A  39)  24.44442060 +1   4.32914190 +1  22.38774163 +1
  O(ATOM    566  O   THR A  39)  23.65612880 +1   5.14551126 +1  21.93617948 +1
  C(ATOM    567  CB  THR A  39)  23.98594792 +1   2.13283957 +1  21.29541249 +1
  O(ATOM    568  OG1 THR A  39)  23.03190326 +1   2.78798576 +1  20.48440671 +1
  C(ATOM    569  CG2 THR A  39)  23.52971469 +1   0.69077969 +1  21.44979838 +1
  H(ATOM    570  H   THR A  39)  21.96148485 +1   2.89265656 +1  22.92508077 +1
  H(ATOM    571  HA  THR A  39)  24.90040403 +1   2.35362522 +1  23.25587216 +1
  H(ATOM    572  HB  THR A  39)  24.98591583 +1   2.18391070 +1  20.79426399 +1
  H(ATOM    573  HG1 THR A  39)  23.47101042 +1   3.45378698 +1  19.90719306 +1
  H(ATOM    574 1HG2 THR A  39)  23.22272958 +1   0.27725625 +1  20.47824709 +1
  H(ATOM    575 2HG2 THR A  39)  24.34014906 +1   0.06239866 +1  21.84038974 +1
  H(ATOM    576 3HG2 THR A  39)  22.66900009 +1   0.59735940 +1  22.12564220 +1
  N(ATOM    577  N   GLY A  40)  25.71860564 +1   4.70280849 +1  22.73061754 +1
  C(ATOM    578  CA  GLY A  40)  26.21160675 +1   6.01083234 +1  22.30614029 +1
  C(ATOM    579  C   GLY A  40)  26.90095845 +1   5.79518232 +1  20.96532818 +1
  O(ATOM    580  O   GLY A  40)  27.37111672 +1   4.67379696 +1  20.74368741 +1
  H(ATOM    581  H   GLY A  40)  26.44069217 +1   4.00449773 +1  22.92625202 +1
  H(ATOM    582 1HA  GLY A  40)  26.94303804 +1   6.39893634 +1  23.07010211 +1
  H(ATOM    583 2HA  GLY A  40)  25.37619914 +1   6.75531979 +1  22.24844039 +1
  N(ATOM    584  N   PHE A  41)  27.01014350 +1   6.77297264 +1  20.03674639 +1
  C(ATOM    585  CA  PHE A  41)  27.65907854 +1   6.47440813 +1  18.74982218 +1
  C(ATOM    586  C   PHE A  41)  29.15521020 +1   6.83421339 +1  18.84640353 +1
  O(ATOM    587  O   PHE A  41)  30.00327949 +1   5.96395855 +1  18.76170504 +1
  C(ATOM    588  CB  PHE A  41)  26.94672338 +1   7.23253043 +1  17.62270902 +1
  C(ATOM    589  CG  PHE A  41)  27.70736649 +1   7.30432425 +1  16.33705390 +1
  C(ATOM    590  CD1 PHE A  41)  28.60540731 +1   6.31287381 +1  15.94509450 +1
  C(ATOM    591  CD2 PHE A  41)  27.47325065 +1   8.39880206 +1  15.49846859 +1
  C(ATOM    592  CE1 PHE A  41)  29.29629772 +1   6.44081681 +1  14.74174886 +1
  C(ATOM    593  CE2 PHE A  41)  28.14007906 +1   8.50583433 +1  14.28256996 +1
  C(ATOM    594  CZ  PHE A  41)  29.06185198 +1   7.52987137 +1  13.90687104 +1
  H(ATOM    595  H   PHE A  41)  26.48677954 +1   7.65987722 +1  20.08883895 +1
  H(ATOM    596  HA  PHE A  41)  27.61582633 +1   5.36215636 +1  18.53464902 +1
  H(ATOM    597 1HB  PHE A  41)  26.68560634 +1   8.26557285 +1  17.95729798 +1
  H(ATOM    598 2HB  PHE A  41)  25.96627248 +1   6.73510524 +1  17.41608903 +1
  H(ATOM    599  HD1 PHE A  41)  28.78028496 +1   5.43729935 +1  16.57410568 +1
  H(ATOM    600  HD2 PHE A  41)  26.76977359 +1   9.17614780 +1  15.79336042 +1
  H(ATOM    601  HE1 PHE A  41)  30.03302866 +1   5.69117397 +1  14.46094697 +1
  H(ATOM    602  HE2 PHE A  41)  27.94369278 +1   9.35464721 +1  13.62622747 +1
  H(ATOM    603  HZ  PHE A  41)  29.59627484 +1   7.62596689 +1  12.96205594 +1
  N(ATOM    604  N   ASP A  42)  29.49011641 +1   8.14371345 +1  19.06398317 +1
  C(ATOM    605  CA  ASP A  42)  30.89463484 +1   8.52617183 +1  19.14741290 +1
  C(ATOM    606  C   ASP A  42)  31.18588953 +1   9.35298367 +1  20.41342738 +1
  O(ATOM    607  O   ASP A  42)  32.34667267 +1   9.51402497 +1  20.78704727 +1
  C(ATOM    608  CB  ASP A  42)  31.34092205 +1   9.31224682 +1  17.90657401 +1
  C(ATOM    609  CG  ASP A  42)  30.48657191 +1  10.50337067 +1  17.64305572 +1
  O(ATOM    610  OD1 ASP A  42)  30.70787277 +1  11.00847533 +1  16.41668510 +1
  O(ATOM    611  OD2 ASP A  42)  29.67477788 +1  11.00451453 +1  18.38779892 +1
  H(ATOM    612  H   ASP A  42)  28.80252379 +1   8.90641148 +1  19.05513746 +1
  H(ATOM    613  HA  ASP A  42)  31.53446981 +1   7.58779338 +1  19.22610859 +1
  H(ATOM    614 1HB  ASP A  42)  31.35412167 +1   8.63736279 +1  17.01269135 +1
  H(ATOM    615 2HB  ASP A  42)  32.41185649 +1   9.62793947 +1  18.00722824 +1
  H(ATOM    616  HD1 ASP A  42)  30.17281315 +1  11.83189057 +1  16.21803771 +1
  N(ATOM    617  N   ARG A  43)  30.16124578 +1   9.85258544 +1  21.15414514 +1
  C(ATOM    618  CA  ARG A  43)  30.43556077 +1  10.64334100 +1  22.35412372 +1
  C(ATOM    619  C   ARG A  43)  30.32075968 +1   9.73501444 +1  23.58954959 +1
  O(ATOM    620  O   ARG A  43)  29.82545549 +1  10.14801671 +1  24.63746102 +1
  C(ATOM    621  CB  ARG A  43)  29.40542105 +1  11.77573095 +1  22.48573064 +1
  C(ATOM    622  CG  ARG A  43)  29.49699247 +1  12.76502837 +1  21.32463535 +1
  C(ATOM    623  CD  ARG A  43)  28.30212804 +1  13.73200273 +1  21.33075681 +1
  N(ATOM    624  NE  ARG A  43)  27.26195654 +1  13.29729578 +1  20.35536506 +1
  C(ATOM    625  CZ  ARG A  43)  27.31848646 +1  14.04846138 +1  19.12932163 +1
  N(ATOM    626  NH1 ARG A  43)  28.32586595 +1  13.64057647 +1  18.25631008 +1
  N(ATOM    627  NH2 ARG A  43)  26.49722715 +1  15.03705502 +1  18.93984483 +1
  H(ATOM    628  H   ARG A  43)  29.19203105 +1   9.85437780 +1  20.81488219 +1
  H(ATOM    629  HA  ARG A  43)  31.48300524 +1  11.07185648 +1  22.32154185 +1
  H(ATOM    630 1HB  ARG A  43)  29.57025745 +1  12.30558778 +1  23.45044377 +1
  H(ATOM    631 2HB  ARG A  43)  28.37918012 +1  11.34531809 +1  22.54152105 +1
  H(ATOM    632 1HG  ARG A  43)  30.44747980 +1  13.33287031 +1  21.38122575 +1
  H(ATOM    633 2HG  ARG A  43)  29.54867538 +1  12.22810814 +1  20.35476317 +1
  H(ATOM    634 1HD  ARG A  43)  27.83823975 +1  13.77493383 +1  22.34217549 +1
  H(ATOM    635 2HD  ARG A  43)  28.65864174 +1  14.76407097 +1  21.11203790 +1
  H(ATOM    636  HE  ARG A  43)  26.31632979 +1  13.33511439 +1  20.77602779 +1
  H(ATOM    637 1HH1 ARG A  43)  28.21873884 +1  13.86254056 +1  17.27498894 +1
  H(ATOM    638 2HH1 ARG A  43)  28.76914329 +1  12.74653408 +1  18.42101329 +1
  H(ATOM    639  HH2 ARG A  43)  26.44996909 +1  15.50658777 +1  18.04685879 +1
  N(ATOM    640  N   LEU A  44)  30.82420349 +1   8.46919353 +1  23.56141872 +1
  C(ATOM    641  CA  LEU A  44)  30.52546352 +1   7.53540606 +1  24.66595691 +1
  C(ATOM    642  C   LEU A  44)  30.30988345 +1   8.27871000 +1  25.98942412 +1
  O(ATOM    643  O   LEU A  44)  29.23950139 +1   8.16198567 +1  26.58838992 +1
  C(ATOM    644  CB  LEU A  44)  31.64878956 +1   6.49898400 +1  24.80717626 +1
  C(ATOM    645  CG  LEU A  44)  31.32354560 +1   5.32506341 +1  25.75624572 +1
  C(ATOM    646  CD1 LEU A  44)  31.60359119 +1   5.68649421 +1  27.21902860 +1
  C(ATOM    647  CD2 LEU A  44)  29.88477536 +1   4.81993761 +1  25.62335649 +1
  H(ATOM    648  H   LEU A  44)  31.13638556 +1   8.02142770 +1  22.69607559 +1
  H(ATOM    649  HA  LEU A  44)  29.55844931 +1   7.00286844 +1  24.40288087 +1
  H(ATOM    650 1HB  LEU A  44)  31.89061317 +1   6.09043355 +1  23.80162375 +1
  H(ATOM    651 2HB  LEU A  44)  32.58892064 +1   6.98935979 +1  25.13252593 +1
  H(ATOM    652  HG  LEU A  44)  32.01604536 +1   4.48929153 +1  25.47056075 +1
  H(ATOM    653 1HD1 LEU A  44)  32.59861405 +1   6.12756446 +1  27.34282389 +1
  H(ATOM    654 2HD1 LEU A  44)  30.87424234 +1   6.40616182 +1  27.60967077 +1
  H(ATOM    655 3HD1 LEU A  44)  31.55207454 +1   4.79701033 +1  27.85785586 +1
  H(ATOM    656 1HD2 LEU A  44)  29.57241053 +1   4.71829862 +1  24.57975582 +1
  H(ATOM    657 2HD2 LEU A  44)  29.76822368 +1   3.84137733 +1  26.10681131 +1
  H(ATOM    658 3HD2 LEU A  44)  29.17056576 +1   5.49820799 +1  26.11197733 +1
  N(ATOM    659  N   ARG A  45)  31.35508777 +1   8.94128060 +1  26.57163992 +1
  C(ATOM    660  CA  ARG A  45)  31.13570012 +1   9.57273974 +1  27.87436093 +1
  C(ATOM    661  C   ARG A  45)  30.22277472 +1  10.79967802 +1  27.75046097 +1
  O(ATOM    662  O   ARG A  45)  29.30483140 +1  10.95626495 +1  28.54593247 +1
  C(ATOM    663  CB  ARG A  45)  32.48761559 +1   9.96518779 +1  28.48833843 +1
  C(ATOM    664  CG  ARG A  45)  32.32021046 +1  10.69971086 +1  29.82341240 +1
  C(ATOM    665  CD  ARG A  45)  33.01836410 +1  12.07059804 +1  29.82404919 +1
  N(ATOM    666  NE  ARG A  45)  32.14023721 +1  13.07440995 +1  29.18345021 +1
  C(ATOM    667  CZ  ARG A  45)  32.66647969 +1  13.87700610 +1  28.15774438 +1
  N(ATOM    668  NH1 ARG A  45)  33.43527963 +1  13.22265597 +1  27.17623103 +1
  N(ATOM    669  NH2 ARG A  45)  32.38265999 +1  15.15560461 +1  28.16700677 +1
  H(ATOM    670  H   ARG A  45)  32.12239573 +1   9.30403890 +1  26.00213885 +1
  H(ATOM    671  HA  ARG A  45)  30.60878986 +1   8.83270186 +1  28.55162232 +1
  H(ATOM    672 1HB  ARG A  45)  33.07413421 +1  10.56820960 +1  27.76787918 +1
  H(ATOM    673 2HB  ARG A  45)  33.09693174 +1   9.04636687 +1  28.63017649 +1
  H(ATOM    674 1HG  ARG A  45)  31.24674150 +1  10.82618576 +1  30.08321693 +1
  H(ATOM    675 2HG  ARG A  45)  32.74154760 +1  10.08196091 +1  30.64312570 +1
  H(ATOM    676 1HD  ARG A  45)  33.23697688 +1  12.38329917 +1  30.87262526 +1
  H(ATOM    677 2HD  ARG A  45)  34.00567276 +1  12.00619059 +1  29.31667299 +1
  H(ATOM    678  HE  ARG A  45)  31.56022081 +1  13.59123877 +1  29.84462834 +1
  H(ATOM    679 1HH1 ARG A  45)  33.64526887 +1  13.76056308 +1  26.33993258 +1
  H(ATOM    680 2HH1 ARG A  45)  33.14564104 +1  12.28028719 +1  26.94774251 +1
  H(ATOM    681  HH2 ARG A  45)  32.65369371 +1  15.72848265 +1  27.37792022 +1
  N(ATOM    682  N   LEU A  46)  30.46751269 +1  11.73554355 +1  26.78061402 +1
  C(ATOM    683  CA  LEU A  46)  29.62505373 +1  12.93512185 +1  26.78432576 +1
  C(ATOM    684  C   LEU A  46)  28.13653472 +1  12.56114883 +1  26.72087623 +1
  O(ATOM    685  O   LEU A  46)  27.33581832 +1  13.05936717 +1  27.50337360 +1
  C(ATOM    686  CB  LEU A  46)  29.98987132 +1  13.88889843 +1  25.64323846 +1
  C(ATOM    687  CG  LEU A  46)  29.13650835 +1  15.17590254 +1  25.70121607 +1
  C(ATOM    688  CD1 LEU A  46)  30.02879343 +1  16.40968345 +1  25.54504083 +1
  C(ATOM    689  CD2 LEU A  46)  28.06527793 +1  15.16655607 +1  24.60601779 +1
  H(ATOM    690  H   LEU A  46)  30.99528943 +1  11.50222966 +1  25.93920557 +1
  H(ATOM    691  HA  LEU A  46)  29.78934900 +1  13.44687484 +1  27.77952822 +1
  H(ATOM    692 1HB  LEU A  46)  31.06901407 +1  14.13689069 +1  25.70126324 +1
  H(ATOM    693 2HB  LEU A  46)  29.88216849 +1  13.39251204 +1  24.65670347 +1
  H(ATOM    694  HG  LEU A  46)  28.61650862 +1  15.23580482 +1  26.69033290 +1
  H(ATOM    695 1HD1 LEU A  46)  30.74784109 +1  16.49944907 +1  26.36581511 +1
  H(ATOM    696 2HD1 LEU A  46)  30.60183193 +1  16.37786062 +1  24.61043296 +1
  H(ATOM    697 3HD1 LEU A  46)  29.43406287 +1  17.33104661 +1  25.52845795 +1
  H(ATOM    698 1HD2 LEU A  46)  27.47424344 +1  14.24357637 +1  24.62901612 +1
  H(ATOM    699 2HD2 LEU A  46)  27.37266733 +1  16.00958973 +1  24.72572631 +1
  H(ATOM    700 3HD2 LEU A  46)  28.51282027 +1  15.26401796 +1  23.61069187 +1
  N(ATOM    701  N   ILE A  47)  27.73022589 +1  11.69477126 +1  25.74130636 +1
  C(ATOM    702  CA  ILE A  47)  26.34041025 +1  11.26636229 +1  25.73699748 +1
  C(ATOM    703  C   ILE A  47)  26.00483988 +1  10.36301246 +1  26.92529651 +1
  O(ATOM    704  O   ILE A  47)  24.84754439 +1  10.39145586 +1  27.32921006 +1
  C(ATOM    705  CB  ILE A  47)  25.84902794 +1  10.62649574 +1  24.41801650 +1
  C(ATOM    706  CG1 ILE A  47)  26.67736567 +1   9.39182502 +1  24.03186777 +1
  C(ATOM    707  CG2 ILE A  47)  25.79103951 +1  11.72345872 +1  23.35931282 +1
  C(ATOM    708  CD1 ILE A  47)  26.79922034 +1   9.18328962 +1  22.52754582 +1
  H(ATOM    709  H   ILE A  47)  28.40278932 +1  11.15871615 +1  25.18885975 +1
  H(ATOM    710  HA  ILE A  47)  25.70127745 +1  12.21061478 +1  25.89531181 +1
  H(ATOM    711  HB  ILE A  47)  24.79160778 +1  10.28110915 +1  24.59568534 +1
  H(ATOM    712 1HG1 ILE A  47)  26.19688263 +1   8.49473311 +1  24.47593975 +1
  H(ATOM    713 2HG1 ILE A  47)  27.69000322 +1   9.42656251 +1  24.47739929 +1
  H(ATOM    714 1HG2 ILE A  47)  25.15821818 +1  12.56402838 +1  23.67441040 +1
  H(ATOM    715 2HG2 ILE A  47)  26.77865877 +1  12.13247905 +1  23.12614150 +1
  H(ATOM    716 3HG2 ILE A  47)  25.35507046 +1  11.35097397 +1  22.42223126 +1
  H(ATOM    717 1HD1 ILE A  47)  27.47683523 +1   8.35688572 +1  22.29368704 +1
  H(ATOM    718 2HD1 ILE A  47)  25.81628093 +1   8.98447728 +1  22.07954686 +1
  H(ATOM    719 3HD1 ILE A  47)  27.21419609 +1  10.06655524 +1  22.02193640 +1
  N(ATOM    720  N   GLN A  48)  26.92661577 +1   9.58250061 +1  27.56090687 +1
  C(ATOM    721  CA  GLN A  48)  26.54128942 +1   8.98249620 +1  28.84685560 +1
  C(ATOM    722  C   GLN A  48)  26.05819300 +1  10.09799876 +1  29.80096878 +1
  O(ATOM    723  O   GLN A  48)  24.95870009 +1   9.99326373 +1  30.34855253 +1
  C(ATOM    724  CB  GLN A  48)  27.69891376 +1   8.19561766 +1  29.47534292 +1
  C(ATOM    725  CG  GLN A  48)  27.21522435 +1   6.97936719 +1  30.26536656 +1
  C(ATOM    726  CD  GLN A  48)  26.46628672 +1   7.37652708 +1  31.50321232 +1
  O(ATOM    727  OE1 GLN A  48)  26.98704345 +1   8.10766309 +1  32.36771431 +1
  N(ATOM    728  NE2 GLN A  48)  25.20301025 +1   6.93226150 +1  31.70902848 +1
  H(ATOM    729  H   GLN A  48)  27.92087005 +1   9.60207532 +1  27.32682043 +1
  H(ATOM    730  HA  GLN A  48)  25.65381800 +1   8.30175559 +1  28.66047375 +1
  H(ATOM    731 1HB  GLN A  48)  28.33008559 +1   8.85461457 +1  30.11446990 +1
  H(ATOM    732 2HB  GLN A  48)  28.40003116 +1   7.85061609 +1  28.67538472 +1
  H(ATOM    733 1HG  GLN A  48)  26.62439417 +1   6.29637863 +1  29.61820412 +1
  H(ATOM    734 2HG  GLN A  48)  28.10544789 +1   6.37206496 +1  30.57606998 +1
  H(ATOM    735 1HE2 GLN A  48)  24.67366803 +1   7.21355488 +1  32.52336900 +1
  H(ATOM    736 2HE2 GLN A  48)  24.75579531 +1   6.22660258 +1  31.13827310 +1
  N(ATOM    737  N   ARG A  49)  26.83090624 +1  11.19296801 +1  30.01927458 +1
  C(ATOM    738  CA  ARG A  49)  26.30842145 +1  12.31464100 +1  30.81568102 +1
  C(ATOM    739  C   ARG A  49)  24.94603921 +1  12.78640665 +1  30.26871690 +1
  O(ATOM    740  O   ARG A  49)  23.98163906 +1  13.01493839 +1  31.00162126 +1
  C(ATOM    741  CB  ARG A  49)  27.30155705 +1  13.48668304 +1  30.74991536 +1
  C(ATOM    742  CG  ARG A  49)  26.88602813 +1  14.61287514 +1  31.69586337 +1
  C(ATOM    743  CD  ARG A  49)  27.37984422 +1  15.98962958 +1  31.23025387 +1
  N(ATOM    744  NE  ARG A  49)  28.80411791 +1  16.22889657 +1  31.50513228 +1
  C(ATOM    745  CZ  ARG A  49)  29.79296848 +1  15.84375003 +1  30.60172592 +1
  N(ATOM    746  NH1 ARG A  49)  29.44899806 +1  15.69469199 +1  29.23942783 +1
  N(ATOM    747  NH2 ARG A  49)  31.03857645 +1  15.82199678 +1  31.02333091 +1
  H(ATOM    748  H   ARG A  49)  27.66743625 +1  11.37590912 +1  29.45146411 +1
  H(ATOM    749  HA  ARG A  49)  26.15909972 +1  11.96569117 +1  31.88098224 +1
  H(ATOM    750 1HB  ARG A  49)  27.37229473 +1  13.84801999 +1  29.70144681 +1
  H(ATOM    751 2HB  ARG A  49)  28.32016220 +1  13.12590237 +1  31.01089644 +1
  H(ATOM    752 1HG  ARG A  49)  25.77831258 +1  14.66543305 +1  31.79023544 +1
  H(ATOM    753 2HG  ARG A  49)  27.24384471 +1  14.39949681 +1  32.72505592 +1
  H(ATOM    754 1HD  ARG A  49)  27.14211342 +1  16.16513000 +1  30.15814807 +1
  H(ATOM    755 2HD  ARG A  49)  26.81905325 +1  16.78893024 +1  31.78312039 +1
  H(ATOM    756  HE  ARG A  49)  29.05849976 +1  16.11385199 +1  32.49377786 +1
  H(ATOM    757 1HH1 ARG A  49)  30.23892506 +1  15.45473877 +1  28.63942043 +1
  H(ATOM    758 2HH1 ARG A  49)  28.61945441 +1  15.16856952 +1  29.00357754 +1
  H(ATOM    759  HH2 ARG A  49)  31.74947006 +1  15.60869125 +1  30.32978926 +1
  N(ATOM    760  N   ILE A  50)  24.82731575 +1  12.95696871 +1  28.92816670 +1
  C(ATOM    761  CA  ILE A  50)  23.53720945 +1  13.32742710 +1  28.33169279 +1
  C(ATOM    762  C   ILE A  50)  22.42532682 +1  12.35234578 +1  28.75973826 +1
  O(ATOM    763  O   ILE A  50)  21.29654858 +1  12.76547541 +1  28.99231315 +1
  C(ATOM    764  CB  ILE A  50)  23.70233685 +1  13.41352739 +1  26.79231864 +1
  C(ATOM    765  CG1 ILE A  50)  23.62241832 +1  14.88147200 +1  26.34041557 +1
  C(ATOM    766  CG2 ILE A  50)  22.72092194 +1  12.51333060 +1  26.05009277 +1
  C(ATOM    767  CD1 ILE A  50)  24.29697746 +1  15.07674219 +1  24.98459859 +1
  H(ATOM    768  H   ILE A  50)  25.59891073 +1  12.73365048 +1  28.29230722 +1
  H(ATOM    769  HA  ILE A  50)  23.23535354 +1  14.33553888 +1  28.75285165 +1
  H(ATOM    770  HB  ILE A  50)  24.74493988 +1  13.05361996 +1  26.53177290 +1
  H(ATOM    771 1HG1 ILE A  50)  24.12157110 +1  15.53728234 +1  27.08533476 +1
  H(ATOM    772 2HG1 ILE A  50)  22.57219842 +1  15.21754669 +1  26.30281322 +1
  H(ATOM    773 1HG2 ILE A  50)  22.93096195 +1  11.44986749 +1  26.24120151 +1
  H(ATOM    774 2HG2 ILE A  50)  21.67730317 +1  12.70767490 +1  26.31824745 +1
  H(ATOM    775 3HG2 ILE A  50)  22.80080887 +1  12.64667077 +1  24.96292210 +1
  H(ATOM    776 1HD1 ILE A  50)  24.11707008 +1  16.08312541 +1  24.58743522 +1
  H(ATOM    777 2HD1 ILE A  50)  25.38580901 +1  14.95900269 +1  25.05970726 +1
  H(ATOM    778 3HD1 ILE A  50)  23.95025093 +1  14.35390358 +1  24.23699170 +1
[...]
  H(HETATM 4232 2H   HOH A1331)   6.08854174 +1   8.34838312 +1  10.33019990 +1
  O(HETATM 4233  O   HOH A1332)  29.52379081 +1   8.34347485 +1  10.13977902 +1
  H(HETATM 4234 1H   HOH A1332)  29.49787959 +1   7.44033372 +1  10.49392489 +1
  H(HETATM 4235 2H   HOH A1332)  28.61109572 +1   8.64307729 +1  10.14033289 +1
  O(HETATM 4236  O   HOH A1333)   4.12633960 +1  -1.97221285 +1   8.08417785 +1
  H(HETATM 4237 1H   HOH A1333)   3.54273710 +1  -2.63681587 +1   7.65684175 +1
  H(HETATM 4238 2H   HOH A1333)   4.28186452 +1  -1.31883778 +1   7.37484195 +1
  O(HETATM 4239  O   HOH A1334)   8.12023054 +1   2.53517673 +1   2.52247699 +1
  H(HETATM 4240 1H   HOH A1334)   8.96711867 +1   2.39231696 +1   2.03392224 +1
  H(HETATM 4241 2H   HOH A1334)   8.07887489 +1   3.46960763 +1   2.75809089 +1
  O(HETATM 4242  O   HOH A1335)  31.58082256 +1   4.23205720 +1   4.58305301 +1
  H(HETATM 4243 1H   HOH A1335)  31.54762116 +1   5.19307995 +1   4.64958668 +1
  H(HETATM 4244 2H   HOH A1335)  31.55009468 +1   3.90064258 +1   5.48683200 +1
  O(HETATM 4245  O   HOH A1336)   0.75983092 +1  23.09947871 +1  10.26088771 +1
  H(HETATM 4246 1H   HOH A1336)   1.02064343 +1  22.33031616 +1   9.73739186 +1
  H(HETATM 4247 2H   HOH A1336)   0.05824787 +1  22.80220014 +1  10.84969963 +1
  O(HETATM 4248  O   HOH A1337)  30.25950863 +1   6.00203317 +1  -4.25411088 +1
  H(HETATM 4249 1H   HOH A1337)  29.63673009 +1   6.24611780 +1  -4.95611568 +1
  H(HETATM 4250 2H   HOH A1337)  30.34068127 +1   5.03546617 +1  -4.33062274 +1
  O(HETATM 4251  O   HOH A1338)   4.85905213 +1  10.19764851 +1   5.27680765 +1
  H(HETATM 4252 1H   HOH A1338)   5.02467972 +1   9.48827712 +1   4.64679149 +1
  H(HETATM 4253 2H   HOH A1338)   4.58042059 +1   9.77261620 +1   6.12031941 +1
  O(HETATM 4254  O   HOH A1339)   6.98210581 +1  10.83423882 +1   8.77820731 +1
  H(HETATM 4255 1H   HOH A1339)   7.71470786 +1  10.77845083 +1   9.41054834 +1
  H(HETATM 4256 2H   HOH A1339)   7.32040023 +1  10.79352520 +1   7.85533854 +1
  O(HETATM 4257  O   HOH A1340)   5.01193434 +1   0.10730554 +1   5.38382500 +1
  H(HETATM 4258 1H   HOH A1340)   5.60883050 +1  -0.64501591 +1   5.26650615 +1
  H(HETATM 4259 2H   HOH A1340)   5.44178050 +1   0.85420363 +1   4.94977643 +1
  O(HETATM 4260  O   HOH A1341)  26.58370009 +1  -9.64331313 +1  19.66656129 +1
  H(HETATM 4261 1H   HOH A1341)  26.78146752 +1  -8.82260103 +1  19.18981898 +1
  H(HETATM 4262 2H   HOH A1341)  27.45236618 +1  -9.96297959 +1  19.92896589 +1
  O(HETATM 4263  O   HOH A1342)   3.37516166 +1  21.87251943 +1  15.79310746 +1
  H(HETATM 4264 1H   HOH A1342)   3.15693231 +1  21.06838253 +1  15.30746723 +1
  H(HETATM 4265 2H   HOH A1342)   4.17862854 +1  21.67064653 +1  16.28849481 +1
  O(HETATM 4266  O   HOH A1343)   1.99261157 +1   5.92704168 +1   4.83548488 +1
  H(HETATM 4267 1H   HOH A1343)   2.83379562 +1   6.36798163 +1   4.72810537 +1
  H(HETATM 4268 2H   HOH A1343)   1.32763286 +1   6.62814778 +1   4.86745440 +1
  O(HETATM 4269  O   HOH A1344)   4.77471802 +1 -10.70542160 +1  24.49916430 +1
  H(HETATM 4270 1H   HOH A1344)   5.20772027 +1  -9.84449558 +1  24.46750898 +1
  H(HETATM 4271 2H   HOH A1344)   4.38003263 +1 -10.67744921 +1  25.39046336 +1
  O(HETATM 4272  O   HOH A1345)   2.38419341 +1  -2.79290331 +1  31.17218059 +1
  H(HETATM 4273 1H   HOH A1345)   2.77716084 +1  -1.98981180 +1  31.53593154 +1
  H(HETATM 4274 2H   HOH A1345)   3.09221412 +1  -3.44467204 +1  31.19095326 +1
  O(HETATM 4275  O   HOH A1346)  28.58431211 +1   0.96748497 +1   3.65952949 +1
  H(HETATM 4276 1H   HOH A1346)  27.85479072 +1   1.05879810 +1   3.04076248 +1
  H(HETATM 4277 2H   HOH A1346)  29.17401552 +1   1.70922421 +1   3.42751934 +1
  O(HETATM 4278  O   HOH A1347)   4.25271111 +1   9.18913675 +1   7.68247881 +1
  H(HETATM 4279 1H   HOH A1347)   4.97764172 +1   8.95226068 +1   8.28962513 +1
  H(HETATM 4280 2H   HOH A1347)   3.76191545 +1   9.85252363 +1   8.16231001 +1
  O(HETATM 4281  O   HOH A1348)  28.47647189 +1   6.49622756 +1  -6.19684279 +1
  H(HETATM 4282 1H   HOH A1348)  28.64954559 +1   7.27183963 +1  -6.75362800 +1
  H(HETATM 4283 2H   HOH A1348)  28.46371445 +1   5.75234563 +1  -6.81986108 +1
  O(HETATM 4284  O   HOH A1349)   1.52874695 +1  -9.28635218 +1  26.68980977 +1
  H(HETATM 4285 1H   HOH A1349)   1.60713779 +1  -8.38363590 +1  26.32774882 +1
  H(HETATM 4286 2H   HOH A1349)   1.08189556 +1  -9.17958418 +1  27.53852056 +1
  O(HETATM 4287  O   HOH A1350)  29.85138961 +1  10.33136835 +1   5.40101698 +1
  H(HETATM 4288 1H   HOH A1350)  29.84716334 +1   9.80311482 +1   4.60804880 +1
  H(HETATM 4289 2H   HOH A1350)  29.97505406 +1   9.68403082 +1   6.13815981 +1
  O(HETATM 4290  O   HOH A1351)   2.08081960 +1  -1.07343731 +1   9.58071378 +1
  H(HETATM 4291 1H   HOH A1351)   2.77883966 +1  -1.27867717 +1   8.93801432 +1
  H(HETATM 4292 2H   HOH A1351)   2.45895400 +1  -0.38616604 +1  10.16485610 +1
  O(HETATM 4293  O   HOH A1352)  24.84932536 +1  15.91308169 +1  21.25588760 +1
  H(HETATM 4294 1H   HOH A1352)  24.55614571 +1  15.03318262 +1  21.51158763 +1
  H(HETATM 4295 2H   HOH A1352)  25.40444946 +1  15.72879445 +1  20.47930358 +1
  O(HETATM 4296  O   HOH A1353)  25.24215939 +1   8.89303226 +1  19.77542381 +1
  H(HETATM 4297 1H   HOH A1353)  24.77407595 +1   8.62599093 +1  18.97730092 +1
  H(HETATM 4298 2H   HOH A1353)  24.56644305 +1   9.08818530 +1  20.45291926 +1
  O(HETATM 4299  O   HOH A1354)  -1.17238918 +1  17.81652337 +1   2.69956394 +1
  H(HETATM 4300 1H   HOH A1354)  -1.31321527 +1  16.93718876 +1   2.31613815 +1
  H(HETATM 4301 2H   HOH A1354)  -1.64146081 +1  17.81218918 +1   3.53258539 +1
  O(HETATM 4302  O   HOH A1355)  13.60794171 +1  13.10007592 +1  32.91548740 +1
  H(HETATM 4303 1H   HOH A1355)  14.08546018 +1  13.15665844 +1  32.06270554 +1
  H(HETATM 4304 2H   HOH A1355)  13.87880600 +1  12.24066917 +1  33.24513975 +1
  O(HETATM 4305  O   HOH A1356)  15.68874854 +1  -9.63466522 +1  31.67248488 +1
  H(HETATM 4306 1H   HOH A1356)  15.78327487 +1  -9.16717892 +1  30.82241051 +1
  H(HETATM 4307 2H   HOH A1356)  16.09510123 +1  -9.09568421 +1  32.34969896 +1
  O(HETATM 4308  O   HOH A1357)  30.08106597 +1   3.32895787 +1  -4.09606392 +1
  H(HETATM 4309 1H   HOH A1357)  29.68371979 +1   3.41426804 +1  -3.22106588 +1
  H(HETATM 4310 2H   HOH A1357)  30.90444452 +1   2.84104524 +1  -3.93805387 +1
  O(HETATM 4311  O   HOH A1358)  29.46670612 +1   5.84050973 +1  11.09408139 +1
  H(HETATM 4312 1H   HOH A1358)  29.68253753 +1   5.13964767 +1  10.45581969 +1
  H(HETATM 4313 2H   HOH A1358)  30.17683197 +1   5.76237142 +1  11.75139092 +1
  O(HETATM 4314  O   HOH A1359)  15.07192535 +1  12.95385097 +1  30.67648672 +1
  H(HETATM 4315 1H   HOH A1359)  15.93887601 +1  13.13624281 +1  31.09277682 +1
  H(HETATM 4316 2H   HOH A1359)  14.95326895 +1  13.65411418 +1  30.02537064 +1
  O(HETATM 4317  O   HOH A1360)  11.87420117 +1  16.32158885 +1  20.12670837 +1
  H(HETATM 4318 1H   HOH A1360)  12.40952892 +1  15.56902152 +1  19.82978673 +1
  H(HETATM 4319 2H   HOH A1360)  12.44085085 +1  16.75741150 +1  20.80038037 +1
  O(HETATM 4320  O   HOH A1361)   3.32822068 +1  11.71256066 +1  24.27821704 +1
  H(HETATM 4321 1H   HOH A1361)   3.81299423 +1  11.91608266 +1  23.47875610 +1
  H(HETATM 4322 2H   HOH A1361)   3.02458956 +1  10.80301424 +1  24.16943941 +1
  O(HETATM 4323  O   HOH A1362)  34.35400842 +1   7.80697832 +1  20.31595437 +1
  H(HETATM 4324 1H   HOH A1362)  33.60999398 +1   8.42985178 +1  20.47869373 +1
  H(HETATM 4325 2H   HOH A1362)  34.86387323 +1   7.83013054 +1  21.14004132 +1
  O(HETATM 4326  O   HOH A1363)  13.37175986 +1  14.12084213 +1  19.80786042 +1
  H(HETATM 4327 1H   HOH A1363)  14.02893090 +1  14.41949351 +1  20.45977433 +1
  H(HETATM 4328 2H   HOH A1363)  13.88195615 +1  13.55082205 +1  19.22338382 +1
  O(HETATM 4329  O   HOH A1364)  11.76610016 +1  18.38283728 +1  18.41979206 +1
  H(HETATM 4330 1H   HOH A1364)  12.71001733 +1  18.49737567 +1  18.31865099 +1
  H(HETATM 4331 2H   HOH A1364)  11.67292683 +1  17.62890031 +1  19.01968525 +1
  O(HETATM 4332  O   HOH A1365)  29.63106349 +1 -10.33451593 +1  22.69772817 +1
  H(HETATM 4333 1H   HOH A1365)  29.46096035 +1 -10.19195649 +1  21.75643060 +1
  H(HETATM 4334 2H   HOH A1365)  29.49339998 +1  -9.45937567 +1  23.07909855 +1
  O(HETATM 4335  O   HOH A1366)   2.77341665 +1  15.10507824 +1  17.16317538 +1
  H(HETATM 4336 1H   HOH A1366)   3.40283500 +1  14.47802250 +1  17.50663630 +1
  H(HETATM 4337 2H   HOH A1366)   1.89399306 +1  14.86326388 +1  17.47789616 +1
  O(HETATM 4338  O   HOH A1367)   4.71093565 +1  17.56005274 +1   4.86525056 +1
  H(HETATM 4339 1H   HOH A1367)   4.92084930 +1  18.08433255 +1   5.64983454 +1
  H(HETATM 4340 2H   HOH A1367)   4.31135932 +1  16.74907179 +1   5.17700668 +1
  O(HETATM 4341  O   HOH A1368)   2.30035101 +1  10.47338293 +1   4.50329148 +1
  H(HETATM 4342 1H   HOH A1368)   3.22881726 +1  10.45138005 +1   4.75095640 +1
  H(HETATM 4343 2H   HOH A1368)   1.92139354 +1  11.22663153 +1   5.00247006 +1
  O(HETATM 4344  O   HOH A1369)  -3.39448957 +1  19.90560346 +1  14.12808266 +1
  H(HETATM 4345 1H   HOH A1369)  -3.70935897 +1  19.36979345 +1  13.34734041 +1
  H(HETATM 4346 2H   HOH A1369)  -3.80284271 +1  20.77712862 +1  14.00310749 +1
  O(HETATM 4347  O   HOH A1370)  27.38979252 +1   6.76245739 +1  25.25345576 +1
  H(HETATM 4348 1H   HOH A1370)  28.07794005 +1   7.32727624 +1  25.65116737 +1
  H(HETATM 4349 2H   HOH A1370)  26.61967206 +1   6.96588043 +1  25.78850738 +1
  O(HETATM 4350  O   HOH A1371)   4.65477696 +1  19.31958201 +1  12.48653335 +1
  H(HETATM 4351 1H   HOH A1371)   3.82903388 +1  19.15759376 +1  12.94353299 +1
  H(HETATM 4352 2H   HOH A1371)   4.47853546 +1  19.38956859 +1  11.54912406 +1
  O(HETATM 4353  O   HOH A1372)  19.58918733 +1 -14.01534825 +1  15.19714470 +1
  H(HETATM 4354 1H   HOH A1372)  19.48197842 +1 -13.07550007 +1  15.38464114 +1
  H(HETATM 4355 2H   HOH A1372)  20.45722286 +1 -14.07829311 +1  14.75678628 +1
  O(HETATM 4356  O   HOH A1373)  18.24401029 +1 -15.71299458 +1  13.60115666 +1
  H(HETATM 4357 1H   HOH A1373)  17.57188531 +1 -15.35045823 +1  12.99433694 +1
  H(HETATM 4358 2H   HOH A1373)  18.61483826 +1 -14.99022445 +1  14.11047017 +1
  O(HETATM 4359  O   HOH A1374)  26.06020240 +1  -3.56592197 +1  10.43340802 +1
  H(HETATM 4360 1H   HOH A1374)  26.58723780 +1  -2.88453744 +1  10.86263097 +1
  H(HETATM 4361 2H   HOH A1374)  26.58795297 +1  -4.37221877 +1  10.47089094 +1
  O(HETATM 4362  O   HOH A1375)  18.40896704 +1   2.80613812 +1  32.21769122 +1
  H(HETATM 4363 1H   HOH A1375)  18.95836664 +1   3.26289518 +1  32.88080652 +1
  H(HETATM 4364 2H   HOH A1375)  19.01027342 +1   2.28907552 +1  31.65580228 +1
  O(HETATM 4365  O   HOH A1376)  25.98603204 +1  -7.72552434 +1  14.07478874 +1
  H(HETATM 4366 1H   HOH A1376)  25.87506870 +1  -8.07419632 +1  13.18968614 +1
  H(HETATM 4367 2H   HOH A1376)  25.09646545 +1  -7.53210803 +1  14.39319910 +1
  O(HETATM 4368  O   HOH A1377)  23.50651967 +1   5.28025777 +1  18.29782125 +1
  H(HETATM 4369 1H   HOH A1377)  23.66316311 +1   4.96837181 +1  17.37999388 +1
  H(HETATM 4370 2H   HOH A1377)  24.31080052 +1   4.93491136 +1  18.73679852 +1
  O(HETATM 4371  O   HOH A1378)  22.30412291 +1   7.52417603 +1  32.15316380 +1
  H(HETATM 4372 1H   HOH A1378)  22.68978765 +1   7.73188922 +1  31.28605346 +1
  H(HETATM 4373 2H   HOH A1378)  21.55928925 +1   8.12616370 +1  32.24026875 +1
  O(HETATM 4374  O   HOH A1379)  27.59385824 +1  10.17242190 +1  19.79262189 +1
  H(HETATM 4375 1H   HOH A1379)  27.56762966 +1  11.12583335 +1  19.65958886 +1
  H(HETATM 4376 2H   HOH A1379)  26.68839727 +1   9.84462401 +1  19.79445223 +1
  O(HETATM 4377  O   HOH A1380)  28.97332727 +1  -3.84546305 +1   8.79819810 +1
  H(HETATM 4378 1H   HOH A1380)  28.14244554 +1  -3.33272231 +1   8.67387325 +1
  H(HETATM 4379 2H   HOH A1380)  29.60031703 +1  -3.20155630 +1   9.18180078 +1
  O(HETATM 4380  O   HOH A1381)  25.53537275 +1  -8.20555960 +1  11.04791617 +1
  H(HETATM 4381 1H   HOH A1381)  25.98939979 +1  -9.03382882 +1  11.33908267 +1
  H(HETATM 4382 2H   HOH A1381)  26.22055718 +1  -7.52906122 +1  10.95542059 +1
  O(HETATM 4383  O   HOH A1382)  14.82100026 +1 -12.16582941 +1  31.55222990 +1
  H(HETATM 4384 1H   HOH A1382)  14.36048553 +1 -12.00313461 +1  30.71428921 +1
  H(HETATM 4385 2H   HOH A1382)  15.17109733 +1 -11.29013484 +1  31.75275687 +1
  O(HETATM 4386  O   HOH A1383)  20.46128583 +1 -15.39991687 +1  25.01773369 +1
  H(HETATM 4387 1H   HOH A1383)  20.17440375 +1 -14.92991455 +1  24.22087038 +1
  H(HETATM 4388 2H   HOH A1383)  19.61486921 +1 -15.42165179 +1  25.52071680 +1
  O(HETATM 4389  O   HOH A1384)  21.58927423 +1  10.44478684 +1  36.15185808 +1
  H(HETATM 4390 1H   HOH A1384)  21.23894021 +1  11.11088660 +1  35.54600699 +1
  H(HETATM 4391 2H   HOH A1384)  22.20173959 +1   9.91634401 +1  35.64119285 +1
  O(HETATM 4392  O   HOH A1385)   7.37578154 +1  10.59301944 +1   6.13371972 +1
  H(HETATM 4393 1H   HOH A1385)   7.79933923 +1   9.83790327 +1   5.71177673 +1
  H(HETATM 4394 2H   HOH A1385)   6.47215544 +1  10.58589028 +1   5.78616662 +1
  O(HETATM 4395  O   HOH A1386)   4.69097949 +1  -4.91959663 +1  30.99717596 +1
  H(HETATM 4396 1H   HOH A1386)   5.02030287 +1  -5.62722604 +1  30.39002844 +1
  H(HETATM 4397 2H   HOH A1386)   5.45314057 +1  -4.59780775 +1  31.48728437 +1
  O(HETATM 4398  O   HOH A1387)  15.71458628 +1  18.03922805 +1  20.12810191 +1
  H(HETATM 4399 1H   HOH A1387)  15.24155863 +1  17.94942575 +1  19.27330106 +1
  H(HETATM 4400 2H   HOH A1387)  15.93886235 +1  18.99359880 +1  20.11463964 +1
  O(HETATM 4401  O   HOH A1388)  33.34388361 +1  -8.05220468 +1  18.84452037 +1
  H(HETATM 4402 1H   HOH A1388)  33.98603433 +1  -7.47969746 +1  19.27008179 +1
  H(HETATM 4403 2H   HOH A1388)  32.62979928 +1  -7.46336934 +1  18.57030603 +1
  O(HETATM 4404  O   HOH A1389)  32.72776563 +1  10.80310490 +1  24.87105152 +1
  H(HETATM 4405 1H   HOH A1389)  32.76619993 +1  10.34259679 +1  24.02632832 +1
  H(HETATM 4406 2H   HOH A1389)  33.53086522 +1  11.34250431 +1  24.88157636 +1
  O(HETATM 4407  O   HOH A1390)  26.09863246 +1   7.22743041 +1  34.74783710 +1
  H(HETATM 4408 1H   HOH A1390)  26.56586213 +1   7.48867779 +1  33.94574024 +1
  H(HETATM 4409 2H   HOH A1390)  25.32276790 +1   7.80812288 +1  34.74452448 +1
  O(HETATM 4410  O   HOH A1391)   3.96701101 +1 -10.33584874 +1  27.02564288 +1
  H(HETATM 4411 1H   HOH A1391)   4.53762704 +1  -9.57969908 +1  27.27661872 +1
  H(HETATM 4412 2H   HOH A1391)   3.07757466 +1  -9.95166267 +1  26.91286153 +1
  O(HETATM 4413  O   HOH A1392)   9.99362508 +1  -0.60622658 +1   2.55139191 +1
  H(HETATM 4414 1H   HOH A1392)  10.89595608 +1  -0.69395152 +1   2.92198199 +1
  H(HETATM 4415 2H   HOH A1392)   9.50769323 +1  -0.06512432 +1   3.17248175 +1
  O(HETATM 4416  O   HOH A1393)   4.52917457 +1  -4.19349985 +1  22.15387642 +1
  H(HETATM 4417 1H   HOH A1393)   4.87564669 +1  -3.36384029 +1  22.45302418 +1
  H(HETATM 4418 2H   HOH A1393)   5.04412361 +1  -4.91657516 +1  22.55120269 +1
  O(HETATM 4419  O   HOH A1394)  12.32054275 +1   2.52735263 +1  35.28896539 +1
  H(HETATM 4420 1H   HOH A1394)  11.68761414 +1   3.13041531 +1  34.87755043 +1
  H(HETATM 4421 2H   HOH A1394)  12.76857697 +1   2.10768646 +1  34.55000891 +1
  O(HETATM 4422  O   HOH A1395)   6.10600190 +1  -8.46369823 +1  25.11769200 +1
  H(HETATM 4423 1H   HOH A1395)   6.97016646 +1  -8.91481287 +1  25.17342352 +1
  H(HETATM 4424 2H   HOH A1395)   5.78218660 +1  -8.39064795 +1  26.05231240 +1
  O(HETATM 4425  O   HOH A1396)  30.13112021 +1   2.94454457 +1   2.72855684 +1
  H(HETATM 4426 1H   HOH A1396)  29.60178165 +1   3.62557985 +1   2.29529330 +1
  H(HETATM 4427 2H   HOH A1396)  30.64474438 +1   3.41148037 +1   3.40132796 +1
  O(HETATM 4428  O   HOH A1397)  19.50404384 +1  14.91709802 +1  18.69107372 +1
  H(HETATM 4429 1H   HOH A1397)  19.66251138 +1  14.10818571 +1  18.20119349 +1
  H(HETATM 4430 2H   HOH A1397)  19.53168290 +1  14.76387504 +1  19.63102844 +1
  O(HETATM 4431  O   HOH A1398)  18.54789456 +1  25.97472073 +1   1.64296456 +1
  H(HETATM 4432 1H   HOH A1398)  18.90392803 +1  26.04425050 +1   0.75687828 +1
  H(HETATM 4433 2H   HOH A1398)  19.02532654 +1  25.26004761 +1   2.10782231 +1
  O(HETATM 4434  O   HOH A1399)   2.72469095 +1  23.04023983 +1   4.61734958 +1
  H(HETATM 4435 1H   HOH A1399)   3.59541737 +1  22.75550465 +1   4.92407293 +1
  H(HETATM 4436 2H   HOH A1399)   2.13038665 +1  22.82014713 +1   5.33872546 +1
  O(HETATM 4437  O   HOH A1400)  19.89135384 +1  21.50118361 +1  16.49190608 +1
  H(HETATM 4438 1H   HOH A1400)  19.48078271 +1  21.94413563 +1  15.74641694 +1
  H(HETATM 4439 2H   HOH A1400)  20.07584918 +1  20.61457462 +1  16.12034026 +1
  O(HETATM 4440  O   HOH A1401)  18.63389021 +1  15.11543100 +1  13.92631319 +1
  H(HETATM 4441 1H   HOH A1401)  19.13194521 +1  14.27950553 +1  14.07946415 +1
  H(HETATM 4442 2H   HOH A1401)  17.85611827 +1  15.05910178 +1  14.50142211 +1
  O(HETATM 4443  O   HOH A1402)  21.11301728 +1  13.33667703 +1  -2.13107795 +1
  H(HETATM 4444 1H   HOH A1402)  21.22335358 +1  13.71299615 +1  -3.00993388 +1
  H(HETATM 4445 2H   HOH A1402)  21.96167722 +1  13.45913226 +1  -1.70380888 +1
  O(HETATM 4446  O   HOH A1403)  22.32118210 +1  16.97501604 +1 -10.04362868 +1
  H(HETATM 4447 1H   HOH A1403)  22.32560500 +1  16.35957988 +1 -10.79953102 +1
  H(HETATM 4448 2H   HOH A1403)  21.37755517 +1  17.15998544 +1  -9.90327560 +1
  O(HETATM 4449  O   HOH A1404)  26.18543840 +1  18.08420017 +1  -5.42812068 +1
  H(HETATM 4450 1H   HOH A1404)  25.57221709 +1  17.83810994 +1  -6.12652500 +1
  H(HETATM 4451 2H   HOH A1404)  25.68534133 +1  18.00114872 +1  -4.60438219 +1
  O(HETATM 4452  O   HOH A1405)  17.72564463 +1  17.91918228 +1  -2.35239025 +1
  H(HETATM 4453 1H   HOH A1405)  18.63771811 +1  17.70911292 +1  -2.56176614 +1
  H(HETATM 4454 2H   HOH A1405)  17.73494035 +1  18.04672615 +1  -1.39959116 +1
  O(HETATM 4455  O   HOH A1406)  29.24589513 +1  14.06798844 +1  -2.58871640 +1
  H(HETATM 4456 1H   HOH A1406)  29.71991876 +1  13.43215241 +1  -2.04800251 +1
  H(HETATM 4457 2H   HOH A1406)  28.31987504 +1  13.94073772 +1  -2.33680211 +1
  O(HETATM 4458  O   HOH A1407)  21.79082746 +1  18.47559294 +1   2.01835534 +1
  H(HETATM 4459 1H   HOH A1407)  21.73167373 +1  17.54423973 +1   2.25880405 +1
  H(HETATM 4460 2H   HOH A1407)  22.35032220 +1  18.94070313 +1   2.65564376 +1
  O(HETATM 4461  O   HOH A1408)  15.57276600 +1  20.50568000 +1  19.05290406 +1
  H(HETATM 4462 1H   HOH A1408)  15.91762350 +1  20.38901558 +1  18.14594875 +1
  H(HETATM 4463 2H   HOH A1408)  14.65994736 +1  20.19647584 +1  18.95329121 +1
  O(HETATM 4464  O   HOH A1409)   1.16584877 +1  12.02103091 +1   2.61754302 +1
  H(HETATM 4465 1H   HOH A1409)   1.67348493 +1  11.32735987 +1   3.06865959 +1
  H(HETATM 4466 2H   HOH A1409)   0.27264736 +1  11.89352205 +1   2.95492577 +1
  O(HETATM 4467  O   HOH A1410)  19.51420396 +1 -16.47186670 +1  11.36730529 +1
  H(HETATM 4468 1H   HOH A1410)  19.07061575 +1 -16.18848741 +1  12.19635427 +1
  H(HETATM 4469 2H   HOH A1410)  20.03320171 +1 -15.70438692 +1  11.09855886 +1
  O(HETATM 4470  O   HOH A1411)  17.73740566 +1 -16.74976927 +1   9.37497279 +1
  H(HETATM 4471 1H   HOH A1411)  18.32450333 +1 -16.61540029 +1  10.13701979 +1
  H(HETATM 4472 2H   HOH A1411)  17.23011363 +1 -15.91985387 +1   9.29462156 +1
  O(HETATM 4473  O   HOH A1412)  16.93539442 +1 -10.08323229 +1   9.57234395 +1
  H(HETATM 4474 1H   HOH A1412)  16.09977757 +1  -9.61430485 +1   9.55979778 +1
  H(HETATM 4475 2H   HOH A1412)  17.51566738 +1  -9.57823136 +1  10.14464637 +1
 
 

 **********************
 *                    *
 * JOB ENDED NORMALLY *
 *                    *
 **********************



 TOTAL JOB TIME:         30801.58 SECONDS

 == MOPAC DONE ==
