 *******************************************************************************
 ** Site#: 9602  E-mail support:    MrMOPAC@ATT.net    Version 17.210W 64BITS **
 *******************************************************************************
 ** Cite this program as: MOPAC2016, Version: 17.210W, James J. P. Stewart,   **
 ** Stewart Computational Chemistry, web: HTTP://OpenMOPAC.net. Days left: 377**
 *******************************************************************************
 **                                                                           **
 **                                MOPAC2016                                  **
 **                                                                           **
 *******************************************************************************

                              PM7 CALCULATION RESULTS


 *******************************************************************************
 *  CALCULATION DONE:                                Thu Aug 03 06:23:14 2017  *
 *  START_RES  - STARTING RESIDUE NUMBERS DEFINED
 *  Keyword:   START_RES=(2A 1301A) 
 *  CHAINS     - PDB CHAIN LETTERS EXPLICITLY DEFINED
 *  Keyword:   CHAINS=(A) 
 *  MOZYME     - USE LOCALIZED M.O.s IN SOLVING THE SCF EQUATIONS
 *  OPT        - OPTIMIZE COORDINATES OF ALL ATOMS
 *
 *
 *
 *                 CHARGE ON SYSTEM =    -2
 *
 *
 *
 *  EPS= 78.40 - USE ANDREAS KLAMT'S COSMO IMPLICIT SOLVATION MODEL
 *  T=         - A TIME OF 172800.0 SECONDS REQUESTED
 *  DUMP=N     - RESTART FILE WRITTEN EVERY  7200.000 SECONDS
 *  GNORM=     - EXIT WHEN GRADIENT NORM DROPS BELOW   5.00    
 *  OUTPUT     - MINIMIZE OUTPUT
 *  HTML       - WRITE HTML SCRIPT TO READ PDB FILE USING JSMOL
 *******************************************************************************
 START_RES=(2A 1301A) HTML OUTPUT MOZYME  gnorm=5 Opt chains=(A) CHARGE=-2 eps=78.4
 Optimize the positions of all atoms in ENOLATE 1BVR

 

 General Reference for PM7:
 "Optimization of Parameters for Semiempirical Methods VI: More Modifications to the 
 NDDO Approximations and Re-optimization of Parameters", J. J. P. Stewart, J. Mol. Mod., 1:32, 19 (2013)
 http://www.springerlink.com/openurl.asp?genre=article&id=doi:10.1007/s00894-012-1667-x

           Empirical Formula: C1304 H2302 N356 O499 S11 P2  =  4474 atoms


   Ion Atom No.           Label               Charge (Distances are between charged sites predicted by Lewis structure theory)
 
    1   N   85   (ATOM     85  NZ  LYS A   8)   +1  (4.5 Angstroms from anion  O 3699, Label: ATOM   3699  OD2 ASP A 248)
    2   N 2712   (ATOM   2712  NZ  LYS A 181)   +1  (4.2 Angstroms from anion  O 2680, Label: ATOM   2680  OE2 GLU A 178)
    3   C 2921   (ATOM   2921  CZ  ARG A 195)   +1  (4.2 Angstroms from anion  O 3261, Label: ATOM   3261  OE2 GLU A 219)
    4   C 4049   (HETATM 4050  C4N NAD A1301)   +1  (5.5 Angstroms from anion  O 4038, Label: HETATM 4039  O2N NAD A1301)
 
    1   O 2680   (ATOM   2680  OE2 GLU A 178)   -1  (4.2 Angstroms from cation  N 2712, Label: ATOM   2712  NZ  LYS A 181)
    2   O 3261   (ATOM   3261  OE2 GLU A 219)   -1  (4.2 Angstroms from cation  C 2921, Label: ATOM   2921  CZ  ARG A 195)
    3   O 3699   (ATOM   3699  OD2 ASP A 248)   -1  (4.5 Angstroms from cation  N   85, Label: ATOM     85  NZ  LYS A   8)
    4   O 4015   (HETATM 4016  O2A NAD A1301)   -1  (9.8 Angstroms from cation  C 4049, Label: HETATM 4050  C4N NAD A1301)
    5   O 4038   (HETATM 4039  O2N NAD A1301)   -1  (5.5 Angstroms from cation  C 4049, Label: HETATM 4050  C4N NAD A1301)
    6   O 4106   (HETATM 4107  O7  THT A1302)   -1  (5.7 Angstroms from cation  C 4049, Label: HETATM 4050  C4N NAD A1301)

          COMPUTED CHARGE ON SYSTEM: -2

          Geometry optimization using L-BFGS
 CYCLE:     1 TIME:1008.146 TIME LEFT:  1.99D  GRAD.:  1980.865 HEAT: -29193.88
 CYCLE:     2 TIME: 238.697 TIME LEFT:  1.99D  GRAD.:  1924.348 HEAT: -29232.71
 CYCLE:     3 TIME: 258.555 TIME LEFT:  1.98D  GRAD.:   468.963 HEAT: -30040.41
 CYCLE:     4 TIME: 250.707 TIME LEFT:  1.98D  GRAD.:  1931.208 HEAT: -29232.54
 CYCLE:     5 TIME: 362.889 TIME LEFT:  1.98D  GRAD.:   469.714 HEAT: -30041.37
 CYCLE:     6 TIME: 253.438 TIME LEFT:  1.97D  GRAD.:   361.214 HEAT: -30132.93
 CYCLE:     7 TIME: 253.643 TIME LEFT:  1.97D  GRAD.:   454.291 HEAT: -30236.38
 CYCLE:     8 TIME: 286.807 TIME LEFT:  1.97D  GRAD.:   477.314 HEAT: -30301.63
 CYCLE:     9 TIME: 238.711 TIME LEFT:  1.96D  GRAD.:   298.833 HEAT: -30365.47
 CYCLE:    10 TIME: 275.355 TIME LEFT:  1.96D  GRAD.:   324.109 HEAT: -30433.50
 CYCLE:    11 TIME: 254.078 TIME LEFT:  1.96D  GRAD.:   291.748 HEAT: -30468.48
 CYCLE:    12 TIME: 288.725 TIME LEFT:  1.95D  GRAD.:   249.044 HEAT: -30518.08
 CYCLE:    13 TIME: 288.008 TIME LEFT:  1.95D  GRAD.:   326.817 HEAT: -30571.82
 CYCLE:    14 TIME: 282.002 TIME LEFT:  1.95D  GRAD.:   370.177 HEAT: -30602.50
 CYCLE:    15 TIME: 241.207 TIME LEFT:  1.94D  GRAD.:   213.663 HEAT: -30635.90
 CYCLE:    16 TIME: 250.334 TIME LEFT:  1.94D  GRAD.:   218.392 HEAT: -30672.32
 CYCLE:    17 TIME: 259.039 TIME LEFT:  1.94D  GRAD.:   227.550 HEAT: -30699.65
 CYCLE:    18 TIME: 287.711 TIME LEFT:  1.94D  GRAD.:   416.356 HEAT: -30727.66
 CYCLE:    19 TIME: 257.900 TIME LEFT:  1.93D  GRAD.:   189.109 HEAT: -30763.17
 CYCLE:    20 TIME: 261.830 TIME LEFT:  1.93D  GRAD.:   168.535 HEAT: -30781.18
 CYCLE:    21 TIME: 288.461 TIME LEFT:  1.93D  GRAD.:   213.824 HEAT: -30816.60
 CYCLE:    22 TIME: 343.861 TIME LEFT:  1.92D  GRAD.:   453.994 HEAT: -30829.16
 CYCLE:    23 TIME: 255.756 TIME LEFT:  1.92D  GRAD.:   181.359 HEAT: -30861.10
 RESTART FILE WRITTEN,      TIME LEFT:  1.92D  GRAD.:   144.014 HEAT: -30879.30
 CYCLE:    25 TIME: 290.812 TIME LEFT:  1.91D  GRAD.:   186.515 HEAT: -30900.84
 CYCLE:    26 TIME: 296.504 TIME LEFT:  1.91D  GRAD.:   270.806 HEAT: -30925.46
 CYCLE:    27 TIME: 295.699 TIME LEFT:  1.91D  GRAD.:   212.743 HEAT: -30948.02
 CYCLE:    28 TIME: 266.889 TIME LEFT:  1.90D  GRAD.:   148.818 HEAT: -30970.00
 CYCLE:    29 TIME: 284.797 TIME LEFT:  1.90D  GRAD.:   206.981 HEAT: -30994.18
 CYCLE:    30 TIME: 295.961 TIME LEFT:  1.90D  GRAD.:   231.113 HEAT: -31011.00
 CYCLE:    31 TIME: 298.457 TIME LEFT:  1.89D  GRAD.:   162.192 HEAT: -31029.86
 CYCLE:    32 TIME: 293.234 TIME LEFT:  1.89D  GRAD.:   174.584 HEAT: -31049.63
 CYCLE:    33 TIME: 289.877 TIME LEFT:  1.89D  GRAD.:   195.293 HEAT: -31067.04
 CYCLE:    34 TIME: 298.516 TIME LEFT:  1.88D  GRAD.:   191.176 HEAT: -31087.33
 CYCLE:    35 TIME: 302.863 TIME LEFT:  1.88D  GRAD.:   146.844 HEAT: -31108.30
 CYCLE:    36 TIME: 266.777 TIME LEFT:  1.88D  GRAD.:   153.694 HEAT: -31124.28
 CYCLE:    37 TIME: 292.855 TIME LEFT:  1.87D  GRAD.:   157.858 HEAT: -31142.16
 CYCLE:    38 TIME: 291.105 TIME LEFT:  1.87D  GRAD.:   172.292 HEAT: -31160.23
 CYCLE:    39 TIME: 281.520 TIME LEFT:  1.87D  GRAD.:   159.103 HEAT: -31178.27
 CYCLE:    40 TIME: 267.086 TIME LEFT:  1.86D  GRAD.:   130.694 HEAT: -31191.39
 CYCLE:    41 TIME: 269.406 TIME LEFT:  1.86D  GRAD.:   144.056 HEAT: -31206.81
 CYCLE:    42 TIME: 294.480 TIME LEFT:  1.86D  GRAD.:   169.609 HEAT: -31221.38
 CYCLE:    43 TIME: 305.285 TIME LEFT:  1.85D  GRAD.:   129.388 HEAT: -31233.08
 CYCLE:    44 TIME: 314.777 TIME LEFT:  1.85D  GRAD.:   150.253 HEAT: -31250.44
 CYCLE:    45 TIME: 309.062 TIME LEFT:  1.85D  GRAD.:   179.545 HEAT: -31263.09
 CYCLE:    46 TIME: 269.996 TIME LEFT:  1.84D  GRAD.:   127.170 HEAT: -31275.05
 CYCLE:    47 TIME: 288.430 TIME LEFT:  1.84D  GRAD.:   154.477 HEAT: -31292.99
 CYCLE:    48 TIME: 256.887 TIME LEFT:  1.84D  GRAD.:   153.672 HEAT: -31304.29
 RESTART FILE WRITTEN,      TIME LEFT:  1.83D  GRAD.:   116.867 HEAT: -31317.21
 CYCLE:    50 TIME: 278.277 TIME LEFT:  1.83D  GRAD.:   142.697 HEAT: -31328.92
 CYCLE:    51 TIME: 280.719 TIME LEFT:  1.83D  GRAD.:   164.308 HEAT: -31338.65
 CYCLE:    52 TIME: 259.445 TIME LEFT:  1.82D  GRAD.:   116.389 HEAT: -31348.60
 CYCLE:    53 TIME: 284.016 TIME LEFT:  1.82D  GRAD.:   160.990 HEAT: -31361.52
 CYCLE:    54 TIME: 298.102 TIME LEFT:  1.82D  GRAD.:   158.321 HEAT: -31368.90
 CYCLE:    55 TIME: 272.016 TIME LEFT:  1.81D  GRAD.:   130.799 HEAT: -31380.95
 CYCLE:    56 TIME: 289.629 TIME LEFT:  1.81D  GRAD.:   113.748 HEAT: -31392.25
 CYCLE:    57 TIME: 272.223 TIME LEFT:  1.81D  GRAD.:   139.721 HEAT: -31401.19
 CYCLE:    58 TIME: 287.945 TIME LEFT:  1.80D  GRAD.:   124.329 HEAT: -31413.16
 CYCLE:    59 TIME: 291.965 TIME LEFT:  1.80D  GRAD.:   129.692 HEAT: -31425.10
 CYCLE:    60 TIME: 299.738 TIME LEFT:  1.80D  GRAD.:   130.420 HEAT: -31434.38
 CYCLE:    61 TIME: 268.336 TIME LEFT:  1.79D  GRAD.:   101.893 HEAT: -31443.05
 CYCLE:    62 TIME: 300.152 TIME LEFT:  1.79D  GRAD.:   135.830 HEAT: -31453.79
 CYCLE:    63 TIME: 314.996 TIME LEFT:  1.79D  GRAD.:   187.260 HEAT: -31457.89
 CYCLE:    64 TIME: 272.832 TIME LEFT:  1.78D  GRAD.:   115.798 HEAT: -31466.22
 CYCLE:    65 TIME: 294.844 TIME LEFT:  1.78D  GRAD.:    92.798 HEAT: -31474.33
 CYCLE:    66 TIME: 295.582 TIME LEFT:  1.78D  GRAD.:   107.683 HEAT: -31481.81
 CYCLE:    67 TIME: 293.609 TIME LEFT:  1.77D  GRAD.:   184.733 HEAT: -31491.41
 CYCLE:    68 TIME: 292.410 TIME LEFT:  1.77D  GRAD.:   112.350 HEAT: -31503.51
 CYCLE:    69 TIME: 296.680 TIME LEFT:  1.77D  GRAD.:   106.924 HEAT: -31514.54
 CYCLE:    70 TIME: 296.398 TIME LEFT:  1.76D  GRAD.:   160.620 HEAT: -31522.45
 CYCLE:    71 TIME: 302.586 TIME LEFT:  1.76D  GRAD.:   178.210 HEAT: -31527.34
 CYCLE:    72 TIME: 259.871 TIME LEFT:  1.76D  GRAD.:   114.145 HEAT: -31537.38
 CYCLE:    73 TIME: 292.395 TIME LEFT:  1.75D  GRAD.:   102.982 HEAT: -31547.18
 CYCLE:    74 TIME: 278.484 TIME LEFT:  1.75D  GRAD.:   110.265 HEAT: -31555.21
 RESTART FILE WRITTEN,      TIME LEFT:  1.75D  GRAD.:   132.374 HEAT: -31565.42
 CYCLE:    76 TIME: 305.965 TIME LEFT:  1.74D  GRAD.:   131.850 HEAT: -31574.31
 CYCLE:    77 TIME: 283.875 TIME LEFT:  1.74D  GRAD.:    93.593 HEAT: -31581.49
 CYCLE:    78 TIME: 296.445 TIME LEFT:  1.74D  GRAD.:   119.229 HEAT: -31589.58
 CYCLE:    79 TIME: 324.855 TIME LEFT:  1.73D  GRAD.:   138.791 HEAT: -31594.69
 CYCLE:    80 TIME: 266.215 TIME LEFT:  1.73D  GRAD.:   112.671 HEAT: -31604.64
 CYCLE:    81 TIME: 306.836 TIME LEFT:  1.73D  GRAD.:   104.335 HEAT: -31614.99
 CYCLE:    82 TIME: 298.398 TIME LEFT:  1.72D  GRAD.:   129.138 HEAT: -31621.68
 CYCLE:    83 TIME: 312.859 TIME LEFT:  1.72D  GRAD.:   107.880 HEAT: -31627.55
 CYCLE:    84 TIME: 298.102 TIME LEFT:  1.71D  GRAD.:   133.199 HEAT: -31636.31
 CYCLE:    85 TIME: 305.586 TIME LEFT:  1.71D  GRAD.:   118.335 HEAT: -31642.13
 CYCLE:    86 TIME: 304.902 TIME LEFT:  1.71D  GRAD.:    98.986 HEAT: -31648.61
 CYCLE:    87 TIME: 299.512 TIME LEFT:  1.70D  GRAD.:    89.851 HEAT: -31654.51
 CYCLE:    88 TIME: 312.547 TIME LEFT:  1.70D  GRAD.:   137.529 HEAT: -31661.94
 CYCLE:    89 TIME: 314.574 TIME LEFT:  1.70D  GRAD.:   122.074 HEAT: -31665.67
 CYCLE:    90 TIME: 300.551 TIME LEFT:  1.69D  GRAD.:   111.502 HEAT: -31671.72
 CYCLE:    91 TIME: 288.977 TIME LEFT:  1.69D  GRAD.:    85.363 HEAT: -31676.65
 CYCLE:    92 TIME: 303.996 TIME LEFT:  1.69D  GRAD.:    97.513 HEAT: -31685.37
 CYCLE:    93 TIME: 301.973 TIME LEFT:  1.68D  GRAD.:   154.394 HEAT: -31687.83
 CYCLE:    94 TIME: 302.906 TIME LEFT:  1.68D  GRAD.:   128.285 HEAT: -31690.92
 CYCLE:    95 TIME: 306.445 TIME LEFT:  1.68D  GRAD.:   101.447 HEAT: -31696.53
 CYCLE:    96 TIME: 306.164 TIME LEFT:  1.67D  GRAD.:    91.126 HEAT: -31700.69
 CYCLE:    97 TIME: 305.199 TIME LEFT:  1.67D  GRAD.:   108.767 HEAT: -31706.34
 CYCLE:    98 TIME: 361.422 TIME LEFT:  1.66D  GRAD.:   204.411 HEAT: -31708.12
 RESTART FILE WRITTEN,      TIME LEFT:  1.66D  GRAD.:    84.638 HEAT: -31716.58
 CYCLE:   100 TIME: 308.836 TIME LEFT:  1.66D  GRAD.:    85.955 HEAT: -31719.99
 CYCLE:   101 TIME: 279.113 TIME LEFT:  1.65D  GRAD.:    89.659 HEAT: -31725.66
 CYCLE:   102 TIME: 295.715 TIME LEFT:  1.65D  GRAD.:   117.182 HEAT: -31730.77
 CYCLE:   103 TIME: 318.961 TIME LEFT:  1.65D  GRAD.:   131.693 HEAT: -31737.41
 CYCLE:   104 TIME: 311.328 TIME LEFT:  1.64D  GRAD.:   111.741 HEAT: -31740.39
 CYCLE:   105 TIME: 283.234 TIME LEFT:  1.64D  GRAD.:    92.734 HEAT: -31746.17
 CYCLE:   106 TIME: 306.664 TIME LEFT:  1.64D  GRAD.:    85.359 HEAT: -31751.73
 CYCLE:   107 TIME: 428.750 TIME LEFT:  1.63D  GRAD.:   120.854 HEAT: -31754.22
 CYCLE:   108 TIME: 311.926 TIME LEFT:  1.63D  GRAD.:   119.634 HEAT: -31758.85
 CYCLE:   109 TIME: 360.797 TIME LEFT:  1.62D  GRAD.:   150.721 HEAT: -31760.09
 CYCLE:   110 TIME: 270.238 TIME LEFT:  1.62D  GRAD.:   112.609 HEAT: -31766.63
 CYCLE:   111 TIME: 280.859 TIME LEFT:  1.62D  GRAD.:   102.398 HEAT: -31769.91
 CYCLE:   112 TIME: 277.371 TIME LEFT:  1.61D  GRAD.:    80.329 HEAT: -31773.56
 CYCLE:   113 TIME: 314.727 TIME LEFT:  1.61D  GRAD.:    76.115 HEAT: -31778.37
 CYCLE:   114 TIME: 318.160 TIME LEFT:  1.61D  GRAD.:   112.262 HEAT: -31781.99
 CYCLE:   115 TIME: 323.805 TIME LEFT:  1.60D  GRAD.:   130.661 HEAT: -31786.78
 CYCLE:   116 TIME: 307.168 TIME LEFT:  1.60D  GRAD.:   114.679 HEAT: -31791.59
 CYCLE:   117 TIME: 307.414 TIME LEFT:  1.60D  GRAD.:    94.904 HEAT: -31796.73
 CYCLE:   118 TIME: 299.195 TIME LEFT:  1.59D  GRAD.:    94.385 HEAT: -31799.78
 CYCLE:   119 TIME: 336.578 TIME LEFT:  1.59D  GRAD.:   110.975 HEAT: -31800.57
 CYCLE:   120 TIME: 323.668 TIME LEFT:  1.59D  GRAD.:    96.461 HEAT: -31805.67
 CYCLE:   121 TIME: 361.875 TIME LEFT:  1.58D  GRAD.:   140.552 HEAT: -31808.66
 RESTART FILE WRITTEN,      TIME LEFT:  1.58D  GRAD.:    92.037 HEAT: -31811.91
 CYCLE:   123 TIME: 276.762 TIME LEFT:  1.57D  GRAD.:    68.015 HEAT: -31815.95
 CYCLE:   124 TIME: 307.832 TIME LEFT:  1.57D  GRAD.:    82.803 HEAT: -31820.53
 CYCLE:   125 TIME: 307.090 TIME LEFT:  1.57D  GRAD.:   116.448 HEAT: -31827.61
 CYCLE:   126 TIME: 319.520 TIME LEFT:  1.56D  GRAD.:   117.168 HEAT: -31833.81
 CYCLE:   127 TIME: 272.328 TIME LEFT:  1.56D  GRAD.:    83.011 HEAT: -31838.32
 CYCLE:   128 TIME: 320.832 TIME LEFT:  1.56D  GRAD.:    95.715 HEAT: -31843.89
 CYCLE:   129 TIME: 307.773 TIME LEFT:  1.55D  GRAD.:   127.435 HEAT: -31846.39
 CYCLE:   130 TIME: 299.363 TIME LEFT:  1.55D  GRAD.:    81.359 HEAT: -31851.00
 CYCLE:   131 TIME: 318.754 TIME LEFT:  1.55D  GRAD.:    72.411 HEAT: -31855.27
 CYCLE:   132 TIME: 311.719 TIME LEFT:  1.54D  GRAD.:   110.758 HEAT: -31858.96
 CYCLE:   133 TIME: 318.590 TIME LEFT:  1.54D  GRAD.:   108.661 HEAT: -31863.78
 CYCLE:   134 TIME: 319.949 TIME LEFT:  1.54D  GRAD.:   102.395 HEAT: -31869.36
 CYCLE:   135 TIME: 288.145 TIME LEFT:  1.53D  GRAD.:    77.155 HEAT: -31875.64
 CYCLE:   136 TIME: 321.223 TIME LEFT:  1.53D  GRAD.:    88.934 HEAT: -31879.95
 CYCLE:   137 TIME: 310.535 TIME LEFT:  1.52D  GRAD.:   113.378 HEAT: -31883.11
 CYCLE:   138 TIME: 329.629 TIME LEFT:  1.52D  GRAD.:    94.217 HEAT: -31887.42
 CYCLE:   139 TIME: 285.215 TIME LEFT:  1.52D  GRAD.:    69.339 HEAT: -31890.40
 CYCLE:   140 TIME: 325.055 TIME LEFT:  1.51D  GRAD.:    79.163 HEAT: -31895.40
 CYCLE:   141 TIME: 321.348 TIME LEFT:  1.51D  GRAD.:   122.568 HEAT: -31900.35
 CYCLE:   142 TIME: 333.371 TIME LEFT:  1.51D  GRAD.:   115.030 HEAT: -31903.01
 CYCLE:   143 TIME: 316.898 TIME LEFT:  1.50D  GRAD.:   101.551 HEAT: -31906.35
 CYCLE:   144 TIME: 320.117 TIME LEFT:  1.50D  GRAD.:   139.164 HEAT: -31908.44
 CYCLE:   145 TIME: 325.133 TIME LEFT:  1.50D  GRAD.:   131.598 HEAT: -31911.10
 RESTART FILE WRITTEN,      TIME LEFT:  1.49D  GRAD.:    94.033 HEAT: -31915.83
 CYCLE:   147 TIME: 327.211 TIME LEFT:  1.49D  GRAD.:    86.254 HEAT: -31921.03
 CYCLE:   148 TIME: 322.828 TIME LEFT:  1.48D  GRAD.:    79.308 HEAT: -31924.66
 CYCLE:   149 TIME: 311.844 TIME LEFT:  1.48D  GRAD.:   102.281 HEAT: -31929.79
 CYCLE:   150 TIME: 319.016 TIME LEFT:  1.48D  GRAD.:   112.554 HEAT: -31933.73
 CYCLE:   151 TIME: 236.750 TIME LEFT:  1.47D  GRAD.:    71.898 HEAT: -31938.17
 CYCLE:   152 TIME: 295.555 TIME LEFT:  1.47D  GRAD.:    67.886 HEAT: -31943.40
 CYCLE:   153 TIME: 336.773 TIME LEFT:  1.47D  GRAD.:   103.404 HEAT: -31947.68
 CYCLE:   154 TIME: 308.258 TIME LEFT:  1.46D  GRAD.:    92.789 HEAT: -31952.74
 CYCLE:   155 TIME: 306.883 TIME LEFT:  1.46D  GRAD.:    72.976 HEAT: -31955.16
 CYCLE:   156 TIME: 326.492 TIME LEFT:  1.46D  GRAD.:    82.857 HEAT: -31959.78
 CYCLE:   157 TIME: 321.164 TIME LEFT:  1.45D  GRAD.:   139.607 HEAT: -31962.71
 CYCLE:   158 TIME: 301.047 TIME LEFT:  1.45D  GRAD.:   112.853 HEAT: -31965.64
 CYCLE:   159 TIME: 323.656 TIME LEFT:  1.44D  GRAD.:   101.444 HEAT: -31968.72
 CYCLE:   160 TIME: 324.492 TIME LEFT:  1.44D  GRAD.:    75.981 HEAT: -31971.33
 CYCLE:   161 TIME: 327.977 TIME LEFT:  1.44D  GRAD.:    75.710 HEAT: -31976.63
 CYCLE:   162 TIME: 315.680 TIME LEFT:  1.43D  GRAD.:    98.931 HEAT: -31980.05
 CYCLE:   163 TIME: 355.945 TIME LEFT:  1.43D  GRAD.:   127.677 HEAT: -31980.61
 CYCLE:   164 TIME: 291.891 TIME LEFT:  1.43D  GRAD.:   138.184 HEAT: -31984.58
 CYCLE:   165 TIME: 293.875 TIME LEFT:  1.42D  GRAD.:    87.036 HEAT: -31988.75
 CYCLE:   166 TIME: 280.445 TIME LEFT:  1.42D  GRAD.:    64.912 HEAT: -31991.35
 CYCLE:   167 TIME: 320.625 TIME LEFT:  1.42D  GRAD.:    63.576 HEAT: -31995.28
 CYCLE:   168 TIME: 329.414 TIME LEFT:  1.41D  GRAD.:   100.952 HEAT: -31999.83
 RESTART FILE WRITTEN,      TIME LEFT:  1.41D  GRAD.:    91.821 HEAT: -32002.84
 CYCLE:   170 TIME: 326.070 TIME LEFT:  1.40D  GRAD.:    91.545 HEAT: -32006.82
 CYCLE:   171 TIME: 338.562 TIME LEFT:  1.40D  GRAD.:   215.703 HEAT: -32005.19
 CYCLE:   172 TIME: 334.266 TIME LEFT:  1.40D  GRAD.:    97.529 HEAT: -32009.06
 CYCLE:   173 TIME: 301.484 TIME LEFT:  1.39D  GRAD.:    71.034 HEAT: -32012.06
 CYCLE:   174 TIME: 384.195 TIME LEFT:  1.39D  GRAD.:   151.633 HEAT: -32012.14
 CYCLE:   175 TIME: 243.461 TIME LEFT:  1.39D  GRAD.:   104.883 HEAT: -32015.36
 CYCLE:   176 TIME: 317.797 TIME LEFT:  1.38D  GRAD.:    98.477 HEAT: -32019.17
 CYCLE:   177 TIME: 293.219 TIME LEFT:  1.38D  GRAD.:    65.425 HEAT: -32021.58
 CYCLE:   178 TIME: 331.688 TIME LEFT:  1.37D  GRAD.:    68.390 HEAT: -32024.34
 CYCLE:   179 TIME: 362.391 TIME LEFT:  1.37D  GRAD.:   105.710 HEAT: -32026.34
 CYCLE:   180 TIME: 416.086 TIME LEFT:  1.37D  GRAD.:    92.481 HEAT: -32027.24
 CYCLE:   181 TIME: 327.672 TIME LEFT:  1.36D  GRAD.:   100.116 HEAT: -32030.48
 CYCLE:   182 TIME: 338.414 TIME LEFT:  1.36D  GRAD.:   108.583 HEAT: -32033.08
 CYCLE:   183 TIME: 301.703 TIME LEFT:  1.35D  GRAD.:    83.417 HEAT: -32036.52
 CYCLE:   184 TIME: 340.711 TIME LEFT:  1.35D  GRAD.:    68.374 HEAT: -32039.70
 CYCLE:   185 TIME: 349.547 TIME LEFT:  1.35D  GRAD.:    62.606 HEAT: -32042.52
 CYCLE:   186 TIME: 388.242 TIME LEFT:  1.34D  GRAD.:    83.818 HEAT: -32043.54
 CYCLE:   187 TIME: 315.867 TIME LEFT:  1.34D  GRAD.:    88.305 HEAT: -32047.70
 CYCLE:   188 TIME: 328.875 TIME LEFT:  1.33D  GRAD.:    88.574 HEAT: -32050.21
 CYCLE:   189 TIME: 295.828 TIME LEFT:  1.33D  GRAD.:    62.328 HEAT: -32053.03
 CYCLE:   190 TIME: 326.695 TIME LEFT:  1.33D  GRAD.:    60.347 HEAT: -32055.74
 RESTART FILE WRITTEN,      TIME LEFT:  1.32D  GRAD.:    74.966 HEAT: -32056.93
 CYCLE:   192 TIME: 328.297 TIME LEFT:  1.32D  GRAD.:    96.145 HEAT: -32060.40
 CYCLE:   193 TIME: 356.617 TIME LEFT:  1.32D  GRAD.:    99.539 HEAT: -32062.55
 CYCLE:   194 TIME: 237.719 TIME LEFT:  1.31D  GRAD.:    62.062 HEAT: -32065.40
 CYCLE:   195 TIME: 305.914 TIME LEFT:  1.31D  GRAD.:    53.691 HEAT: -32068.57
 CYCLE:   196 TIME: 335.945 TIME LEFT:  1.31D  GRAD.:    74.846 HEAT: -32070.18
 CYCLE:   197 TIME: 409.984 TIME LEFT:  1.30D  GRAD.:    95.895 HEAT: -32072.31
 CYCLE:   198 TIME: 353.719 TIME LEFT:  1.30D  GRAD.:    67.064 HEAT: -32074.15
 CYCLE:   199 TIME: 336.336 TIME LEFT:  1.29D  GRAD.:    97.110 HEAT: -32076.66
 CYCLE:   200 TIME: 333.320 TIME LEFT:  1.29D  GRAD.:    95.178 HEAT: -32079.39
 CYCLE:   201 TIME: 310.883 TIME LEFT:  1.29D  GRAD.:    64.667 HEAT: -32081.71
 CYCLE:   202 TIME: 334.805 TIME LEFT:  1.28D  GRAD.:    55.675 HEAT: -32084.19
 CYCLE:   203 TIME: 337.242 TIME LEFT:  1.28D  GRAD.:    63.336 HEAT: -32087.83
 CYCLE:   204 TIME: 328.586 TIME LEFT:  1.27D  GRAD.:    72.978 HEAT: -32090.99
 CYCLE:   205 TIME: 334.914 TIME LEFT:  1.27D  GRAD.:    66.396 HEAT: -32093.88
 CYCLE:   206 TIME: 334.438 TIME LEFT:  1.27D  GRAD.:    62.541 HEAT: -32097.72
 CYCLE:   207 TIME: 335.836 TIME LEFT:  1.26D  GRAD.:    54.405 HEAT: -32099.60
 CYCLE:   208 TIME: 335.383 TIME LEFT:  1.26D  GRAD.:    56.656 HEAT: -32101.57
 CYCLE:   209 TIME: 327.617 TIME LEFT:  1.25D  GRAD.:    70.777 HEAT: -32103.72
 CYCLE:   210 TIME: 329.812 TIME LEFT:  1.25D  GRAD.:    60.213 HEAT: -32106.56
 CYCLE:   211 TIME: 338.289 TIME LEFT:  1.25D  GRAD.:    57.237 HEAT: -32109.60
 CYCLE:   212 TIME: 333.594 TIME LEFT:  1.24D  GRAD.:    83.086 HEAT: -32112.64
 RESTART FILE WRITTEN,      TIME LEFT:  1.24D  GRAD.:    53.520 HEAT: -32115.56
 CYCLE:   214 TIME: 367.766 TIME LEFT:  1.23D  GRAD.:    60.196 HEAT: -32116.81
 CYCLE:   215 TIME: 342.781 TIME LEFT:  1.23D  GRAD.:    67.698 HEAT: -32118.79
 CYCLE:   216 TIME: 341.922 TIME LEFT:  1.23D  GRAD.:    67.085 HEAT: -32121.82
 CYCLE:   217 TIME: 344.125 TIME LEFT:  1.22D  GRAD.:    75.960 HEAT: -32124.07
 CYCLE:   218 TIME: 305.922 TIME LEFT:  1.22D  GRAD.:    56.317 HEAT: -32127.80
 CYCLE:   219 TIME: 325.250 TIME LEFT:  1.22D  GRAD.:    77.393 HEAT: -32129.47
 CYCLE:   220 TIME: 334.344 TIME LEFT:  1.21D  GRAD.:    66.344 HEAT: -32131.42
 CYCLE:   221 TIME: 308.016 TIME LEFT:  1.21D  GRAD.:    54.380 HEAT: -32133.79
 CYCLE:   222 TIME: 354.984 TIME LEFT:  1.20D  GRAD.:    73.936 HEAT: -32135.44
 CYCLE:   223 TIME: 365.094 TIME LEFT:  1.20D  GRAD.:    79.039 HEAT: -32137.33
 CYCLE:   224 TIME: 336.078 TIME LEFT:  1.20D  GRAD.:    63.635 HEAT: -32139.26
 CYCLE:   225 TIME: 336.828 TIME LEFT:  1.19D  GRAD.:    59.468 HEAT: -32141.77
 CYCLE:   226 TIME: 339.266 TIME LEFT:  1.19D  GRAD.:    67.778 HEAT: -32144.29
 CYCLE:   227 TIME: 342.266 TIME LEFT:  1.18D  GRAD.:    55.242 HEAT: -32146.70
 CYCLE:   228 TIME: 338.672 TIME LEFT:  1.18D  GRAD.:    52.573 HEAT: -32148.91
 CYCLE:   229 TIME: 368.469 TIME LEFT:  1.18D  GRAD.:    61.253 HEAT: -32149.71
 CYCLE:   230 TIME: 351.641 TIME LEFT:  1.17D  GRAD.:    70.239 HEAT: -32152.32
 CYCLE:   231 TIME: 348.797 TIME LEFT:  1.17D  GRAD.:    70.071 HEAT: -32153.94
 CYCLE:   232 TIME: 405.062 TIME LEFT:  1.16D  GRAD.:   115.773 HEAT: -32153.73
 CYCLE:   233 TIME: 312.453 TIME LEFT:  1.16D  GRAD.:    58.091 HEAT: -32155.17
 RESTART FILE WRITTEN,      TIME LEFT:  1.16D  GRAD.:    53.087 HEAT: -32156.38
 CYCLE:   235 TIME: 348.234 TIME LEFT:  1.15D  GRAD.:    58.976 HEAT: -32157.44
 CYCLE:   236 TIME: 345.422 TIME LEFT:  1.15D  GRAD.:    51.208 HEAT: -32158.43
 CYCLE:   237 TIME: 342.109 TIME LEFT:  1.14D  GRAD.:    55.774 HEAT: -32160.60
 CYCLE:   238 TIME: 373.250 TIME LEFT:  1.14D  GRAD.:   106.174 HEAT: -32161.86
 CYCLE:   239 TIME: 248.312 TIME LEFT:  1.14D  GRAD.:    45.545 HEAT: -32164.14
 CYCLE:   240 TIME: 355.922 TIME LEFT:  1.13D  GRAD.:    43.756 HEAT: -32165.01
 CYCLE:   241 TIME: 341.766 TIME LEFT:  1.13D  GRAD.:    51.559 HEAT: -32165.95
 CYCLE:   242 TIME: 365.781 TIME LEFT:  1.12D  GRAD.:    75.288 HEAT: -32167.45
 CYCLE:   243 TIME: 369.172 TIME LEFT:  1.12D  GRAD.:    64.599 HEAT: -32168.71
 CYCLE:   244 TIME: 318.281 TIME LEFT:  1.12D  GRAD.:    49.800 HEAT: -32170.95
 CYCLE:   245 TIME: 351.375 TIME LEFT:  1.11D  GRAD.:    53.560 HEAT: -32173.36
 CYCLE:   246 TIME: 344.000 TIME LEFT:  1.11D  GRAD.:    81.977 HEAT: -32175.53
 CYCLE:   247 TIME: 347.391 TIME LEFT:  1.10D  GRAD.:    53.364 HEAT: -32177.12
 CYCLE:   248 TIME: 405.438 TIME LEFT:  1.10D  GRAD.:    45.468 HEAT: -32177.55
 CYCLE:   249 TIME: 377.172 TIME LEFT:  1.09D  GRAD.:    56.136 HEAT: -32178.89
 CYCLE:   250 TIME: 418.469 TIME LEFT:  1.09D  GRAD.:    82.710 HEAT: -32180.30
 CYCLE:   251 TIME: 300.641 TIME LEFT:  1.09D  GRAD.:    50.766 HEAT: -32182.35
 CYCLE:   252 TIME: 348.406 TIME LEFT:  1.08D  GRAD.:    52.320 HEAT: -32183.62
 CYCLE:   253 TIME: 356.125 TIME LEFT:  1.08D  GRAD.:    62.920 HEAT: -32184.74
 CYCLE:   254 TIME: 360.797 TIME LEFT:  1.07D  GRAD.:    53.070 HEAT: -32186.59
 RESTART FILE WRITTEN,      TIME LEFT:  1.07D  GRAD.:    39.820 HEAT: -32187.92
 CYCLE:   256 TIME: 393.562 TIME LEFT:  1.07D  GRAD.:    48.276 HEAT: -32188.72
 CYCLE:   257 TIME: 351.625 TIME LEFT:  1.06D  GRAD.:    51.510 HEAT: -32189.83
 CYCLE:   258 TIME: 359.141 TIME LEFT:  1.06D  GRAD.:    39.940 HEAT: -32190.73
 CYCLE:   259 TIME: 339.344 TIME LEFT:  1.05D  GRAD.:    46.799 HEAT: -32192.55
 CYCLE:   260 TIME: 353.094 TIME LEFT:  1.05D  GRAD.:    57.871 HEAT: -32194.51
 CYCLE:   261 TIME: 337.094 TIME LEFT:  1.05D  GRAD.:    42.485 HEAT: -32195.74
 CYCLE:   262 TIME: 382.281 TIME LEFT:  1.04D  GRAD.:    48.653 HEAT: -32196.92
 CYCLE:   263 TIME: 348.844 TIME LEFT:  1.04D  GRAD.:    59.324 HEAT: -32198.40
 CYCLE:   264 TIME: 362.234 TIME LEFT:  1.03D  GRAD.:    42.427 HEAT: -32200.04
 CYCLE:   265 TIME: 386.516 TIME LEFT:  1.03D  GRAD.:    54.812 HEAT: -32201.49
 CYCLE:   266 TIME: 398.125 TIME LEFT:  1.02D  GRAD.:    48.714 HEAT: -32202.49
 CYCLE:   267 TIME: 353.750 TIME LEFT:  1.02D  GRAD.:    42.256 HEAT: -32202.88
 CYCLE:   268 TIME: 373.031 TIME LEFT:  1.02D  GRAD.:    50.923 HEAT: -32204.42
 CYCLE:   269 TIME: 382.516 TIME LEFT:  1.01D  GRAD.:    75.194 HEAT: -32205.36
 CYCLE:   270 TIME: 357.188 TIME LEFT:  1.01D  GRAD.:    42.941 HEAT: -32205.75
 CYCLE:   271 TIME: 330.250 TIME LEFT:  1.00D  GRAD.:    44.179 HEAT: -32208.20
 CYCLE:   272 TIME: 389.906 TIME LEFT: 23.96H  GRAD.:    48.582 HEAT: -32208.78
 CYCLE:   273 TIME: 380.328 TIME LEFT: 23.85H  GRAD.:    98.607 HEAT: -32209.88
 CYCLE:   274 TIME: 417.047 TIME LEFT: 23.74H  GRAD.:    98.172 HEAT: -32209.90
 RESTART FILE WRITTEN,      TIME LEFT: 23.63H  GRAD.:    61.024 HEAT: -32211.94
 CYCLE:   276 TIME: 359.859 TIME LEFT: 23.53H  GRAD.:    40.223 HEAT: -32213.59
 CYCLE:   277 TIME: 367.781 TIME LEFT: 23.43H  GRAD.:    41.251 HEAT: -32214.87
 CYCLE:   278 TIME: 366.703 TIME LEFT: 23.33H  GRAD.:    67.666 HEAT: -32216.67
 CYCLE:   279 TIME: 348.766 TIME LEFT: 23.23H  GRAD.:    66.410 HEAT: -32218.30
 CYCLE:   280 TIME: 273.406 TIME LEFT: 23.16H  GRAD.:    40.632 HEAT: -32219.15
 CYCLE:   281 TIME: 349.391 TIME LEFT: 23.06H  GRAD.:    37.274 HEAT: -32220.81
 CYCLE:   282 TIME: 327.281 TIME LEFT: 22.97H  GRAD.:    45.988 HEAT: -32221.04
 CYCLE:   283 TIME: 361.781 TIME LEFT: 22.87H  GRAD.:    55.313 HEAT: -32223.65
 CYCLE:   284 TIME: 355.578 TIME LEFT: 22.77H  GRAD.:    56.414 HEAT: -32224.27
 CYCLE:   285 TIME: 359.578 TIME LEFT: 22.67H  GRAD.:    57.070 HEAT: -32225.15
 CYCLE:   286 TIME: 362.281 TIME LEFT: 22.57H  GRAD.:    42.543 HEAT: -32225.76
 CYCLE:   287 TIME: 370.125 TIME LEFT: 22.46H  GRAD.:    38.146 HEAT: -32226.74
 CYCLE:   288 TIME: 384.844 TIME LEFT: 22.36H  GRAD.:    51.634 HEAT: -32228.77
 CYCLE:   289 TIME: 390.469 TIME LEFT: 22.25H  GRAD.:    57.398 HEAT: -32229.25
 CYCLE:   290 TIME: 363.984 TIME LEFT: 22.15H  GRAD.:    42.434 HEAT: -32230.36
 CYCLE:   291 TIME: 352.422 TIME LEFT: 22.05H  GRAD.:    46.396 HEAT: -32232.21
 CYCLE:   292 TIME: 408.422 TIME LEFT: 21.94H  GRAD.:    99.629 HEAT: -32232.76
 CYCLE:   293 TIME: 367.562 TIME LEFT: 21.83H  GRAD.:    73.018 HEAT: -32233.56
 CYCLE:   294 TIME: 263.844 TIME LEFT: 21.76H  GRAD.:    42.555 HEAT: -32234.75
 CYCLE:   295 TIME: 364.406 TIME LEFT: 21.66H  GRAD.:    33.930 HEAT: -32235.46
 RESTART FILE WRITTEN,      TIME LEFT: 21.55H  GRAD.:    54.222 HEAT: -32236.30
 CYCLE:   297 TIME: 370.953 TIME LEFT: 21.45H  GRAD.:    50.565 HEAT: -32237.19
 CYCLE:   298 TIME: 337.922 TIME LEFT: 21.35H  GRAD.:    38.622 HEAT: -32238.28
 CYCLE:   299 TIME: 368.188 TIME LEFT: 21.25H  GRAD.:    38.145 HEAT: -32239.34
 CYCLE:   300 TIME: 350.797 TIME LEFT: 21.16H  GRAD.:    92.048 HEAT: -32240.31
 CYCLE:   301 TIME: 363.891 TIME LEFT: 21.05H  GRAD.:    57.386 HEAT: -32240.37
 CYCLE:   302 TIME: 326.969 TIME LEFT: 20.96H  GRAD.:    38.751 HEAT: -32241.02
 CYCLE:   303 TIME: 361.500 TIME LEFT: 20.86H  GRAD.:    37.545 HEAT: -32241.70
 CYCLE:   304 TIME: 374.078 TIME LEFT: 20.76H  GRAD.:    42.887 HEAT: -32241.96
 CYCLE:   305 TIME: 361.422 TIME LEFT: 20.66H  GRAD.:    52.940 HEAT: -32243.23
 CYCLE:   306 TIME: 425.656 TIME LEFT: 20.54H  GRAD.:    57.330 HEAT: -32243.74
 CYCLE:   307 TIME: 399.094 TIME LEFT: 20.43H  GRAD.:    70.797 HEAT: -32244.58
 CYCLE:   308 TIME: 362.656 TIME LEFT: 20.33H  GRAD.:    52.274 HEAT: -32246.96
 CYCLE:   309 TIME: 403.250 TIME LEFT: 20.22H  GRAD.:    73.542 HEAT: -32246.88
 CYCLE:   310 TIME: 373.453 TIME LEFT: 20.11H  GRAD.:    84.930 HEAT: -32248.75
 CYCLE:   311 TIME: 377.375 TIME LEFT: 20.01H  GRAD.:    63.383 HEAT: -32250.24
 CYCLE:   312 TIME: 369.797 TIME LEFT: 19.91H  GRAD.:    44.005 HEAT: -32251.41
 CYCLE:   313 TIME: 342.250 TIME LEFT: 19.81H  GRAD.:    36.876 HEAT: -32252.77
 CYCLE:   314 TIME: 367.422 TIME LEFT: 19.71H  GRAD.:    59.580 HEAT: -32254.04
 CYCLE:   315 TIME: 358.641 TIME LEFT: 19.61H  GRAD.:    61.783 HEAT: -32253.60
 RESTART FILE WRITTEN,      TIME LEFT: 19.52H  GRAD.:    45.201 HEAT: -32255.11
 CYCLE:   317 TIME: 326.422 TIME LEFT: 19.43H  GRAD.:    39.417 HEAT: -32256.18
 CYCLE:   318 TIME: 351.578 TIME LEFT: 19.33H  GRAD.:    34.709 HEAT: -32256.71
 CYCLE:   319 TIME: 355.250 TIME LEFT: 19.23H  GRAD.:    39.265 HEAT: -32257.98
 CYCLE:   320 TIME: 366.984 TIME LEFT: 19.13H  GRAD.:    47.248 HEAT: -32258.77
 CYCLE:   321 TIME: 371.281 TIME LEFT: 19.03H  GRAD.:    63.035 HEAT: -32260.22
 CYCLE:   322 TIME: 398.734 TIME LEFT: 18.92H  GRAD.:    61.503 HEAT: -32260.91
 CYCLE:   323 TIME: 380.406 TIME LEFT: 18.81H  GRAD.:    39.070 HEAT: -32261.17
 CYCLE:   324 TIME: 366.469 TIME LEFT: 18.71H  GRAD.:    38.560 HEAT: -32262.36
 CYCLE:   325 TIME: 367.703 TIME LEFT: 18.61H  GRAD.:    46.084 HEAT: -32262.33
 CYCLE:   326 TIME: 360.891 TIME LEFT: 18.51H  GRAD.:    41.006 HEAT: -32263.23
 CYCLE:   327 TIME: 347.922 TIME LEFT: 18.41H  GRAD.:    63.108 HEAT: -32264.33
 CYCLE:   328 TIME: 369.656 TIME LEFT: 18.31H  GRAD.:    73.126 HEAT: -32264.03
 CYCLE:   329 TIME: 332.375 TIME LEFT: 18.21H  GRAD.:    41.740 HEAT: -32265.40
 CYCLE:   330 TIME: 322.703 TIME LEFT: 18.12H  GRAD.:    34.857 HEAT: -32266.64
 CYCLE:   331 TIME: 353.609 TIME LEFT: 18.03H  GRAD.:    41.191 HEAT: -32267.48
 CYCLE:   332 TIME: 383.391 TIME LEFT: 17.92H  GRAD.:    48.596 HEAT: -32268.56
 CYCLE:   333 TIME: 383.906 TIME LEFT: 17.81H  GRAD.:    61.435 HEAT: -32269.44
 CYCLE:   334 TIME: 401.109 TIME LEFT: 17.70H  GRAD.:    79.853 HEAT: -32270.09
 CYCLE:   335 TIME: 325.562 TIME LEFT: 17.61H  GRAD.:    52.197 HEAT: -32270.87
 CYCLE:   336 TIME: 323.234 TIME LEFT: 17.52H  GRAD.:    35.555 HEAT: -32271.13
 RESTART FILE WRITTEN,      TIME LEFT: 17.42H  GRAD.:    36.921 HEAT: -32272.20
 CYCLE:   338 TIME: 364.359 TIME LEFT: 17.32H  GRAD.:    40.413 HEAT: -32273.27
 CYCLE:   339 TIME: 355.406 TIME LEFT: 17.22H  GRAD.:    42.954 HEAT: -32274.25
 CYCLE:   340 TIME: 408.797 TIME LEFT: 17.11H  GRAD.:    59.728 HEAT: -32274.39
 CYCLE:   341 TIME: 352.312 TIME LEFT: 17.01H  GRAD.:    40.760 HEAT: -32275.31
 CYCLE:   342 TIME: 311.812 TIME LEFT: 16.92H  GRAD.:    34.863 HEAT: -32275.81
 CYCLE:   343 TIME: 360.234 TIME LEFT: 16.82H  GRAD.:    36.606 HEAT: -32277.44
 CYCLE:   344 TIME: 403.375 TIME LEFT: 16.71H  GRAD.:    64.311 HEAT: -32277.97
 CYCLE:   345 TIME: 321.703 TIME LEFT: 16.62H  GRAD.:    36.698 HEAT: -32278.49
 CYCLE:   346 TIME: 357.688 TIME LEFT: 16.52H  GRAD.:    34.355 HEAT: -32278.66
 CYCLE:   347 TIME: 395.125 TIME LEFT: 16.41H  GRAD.:    44.392 HEAT: -32279.56
 CYCLE:   348 TIME: 418.250 TIME LEFT: 16.30H  GRAD.:    54.597 HEAT: -32280.93
 CYCLE:   349 TIME: 356.797 TIME LEFT: 16.20H  GRAD.:    33.641 HEAT: -32281.85
 CYCLE:   350 TIME: 368.672 TIME LEFT: 16.10H  GRAD.:    34.499 HEAT: -32282.96
 CYCLE:   351 TIME: 329.984 TIME LEFT: 16.00H  GRAD.:    41.691 HEAT: -32283.27
 CYCLE:   352 TIME: 388.281 TIME LEFT: 15.90H  GRAD.:    40.215 HEAT: -32283.89
 CYCLE:   353 TIME: 364.391 TIME LEFT: 15.80H  GRAD.:    40.967 HEAT: -32285.11
 CYCLE:   354 TIME: 369.141 TIME LEFT: 15.69H  GRAD.:    41.600 HEAT: -32285.68
 CYCLE:   355 TIME: 369.141 TIME LEFT: 15.59H  GRAD.:    43.490 HEAT: -32286.76
 CYCLE:   356 TIME: 369.328 TIME LEFT: 15.49H  GRAD.:    50.491 HEAT: -32288.11
 RESTART FILE WRITTEN,      TIME LEFT: 15.40H  GRAD.:    34.317 HEAT: -32289.91
 CYCLE:   358 TIME: 364.156 TIME LEFT: 15.29H  GRAD.:    34.124 HEAT: -32290.81
 CYCLE:   359 TIME: 414.781 TIME LEFT: 15.18H  GRAD.:    82.612 HEAT: -32291.50
 CYCLE:   360 TIME: 395.891 TIME LEFT: 15.07H  GRAD.:    53.091 HEAT: -32291.67
 CYCLE:   361 TIME: 358.906 TIME LEFT: 14.97H  GRAD.:    32.017 HEAT: -32292.65
 CYCLE:   362 TIME: 328.328 TIME LEFT: 14.88H  GRAD.:    30.773 HEAT: -32294.03
 CYCLE:   363 TIME: 316.531 TIME LEFT: 14.79H  GRAD.:    39.459 HEAT: -32293.97
 CYCLE:   364 TIME: 277.688 TIME LEFT: 14.71H  GRAD.:    74.322 HEAT: -32294.02
 CYCLE:   365 TIME: 281.422 TIME LEFT: 14.63H  GRAD.:    56.185 HEAT: -32293.81
 CYCLE:   366 TIME: 305.422 TIME LEFT: 14.55H  GRAD.:    35.413 HEAT: -32293.70
 CYCLE:   367 TIME: 292.938 TIME LEFT: 14.47H  GRAD.:    57.474 HEAT: -32295.17
 CYCLE:   368 TIME: 297.578 TIME LEFT: 14.39H  GRAD.:    78.026 HEAT: -32296.27
 CYCLE:   369 TIME: 288.641 TIME LEFT: 14.31H  GRAD.:    62.164 HEAT: -32296.80
 CYCLE:   370 TIME: 286.953 TIME LEFT: 14.23H  GRAD.:    34.129 HEAT: -32297.76
 CYCLE:   371 TIME: 291.828 TIME LEFT: 14.15H  GRAD.:    36.576 HEAT: -32298.86
 CYCLE:   372 TIME: 289.406 TIME LEFT: 14.06H  GRAD.:    44.090 HEAT: -32300.04
 CYCLE:   373 TIME: 256.312 TIME LEFT: 13.99H  GRAD.:    45.182 HEAT: -32301.20
 CYCLE:   374 TIME: 240.078 TIME LEFT: 13.93H  GRAD.:    31.453 HEAT: -32301.93
 CYCLE:   375 TIME: 303.969 TIME LEFT: 13.84H  GRAD.:    37.028 HEAT: -32302.67
 CYCLE:   376 TIME: 261.422 TIME LEFT: 13.77H  GRAD.:    42.147 HEAT: -32304.05
 CYCLE:   377 TIME: 297.016 TIME LEFT: 13.69H  GRAD.:    38.200 HEAT: -32304.33
 CYCLE:   378 TIME: 275.078 TIME LEFT: 13.61H  GRAD.:    45.777 HEAT: -32305.47
 CYCLE:   379 TIME: 317.016 TIME LEFT: 13.52H  GRAD.:    95.744 HEAT: -32305.86
 CYCLE:   380 TIME: 253.922 TIME LEFT: 13.45H  GRAD.:    53.075 HEAT: -32305.77
 RESTART FILE WRITTEN,      TIME LEFT: 13.38H  GRAD.:    35.622 HEAT: -32306.30
 CYCLE:   382 TIME: 290.484 TIME LEFT: 13.30H  GRAD.:    26.473 HEAT: -32306.69
 CYCLE:   383 TIME: 383.109 TIME LEFT: 13.20H  GRAD.:    31.398 HEAT: -32306.99
 CYCLE:   384 TIME: 387.109 TIME LEFT: 13.09H  GRAD.:    45.269 HEAT: -32306.82
 CYCLE:   385 TIME: 286.438 TIME LEFT: 13.01H  GRAD.:    34.594 HEAT: -32307.70
 CYCLE:   386 TIME: 293.984 TIME LEFT: 12.93H  GRAD.:    29.742 HEAT: -32308.54
 CYCLE:   387 TIME: 376.203 TIME LEFT: 12.82H  GRAD.:    34.818 HEAT: -32308.97
 CYCLE:   388 TIME: 292.516 TIME LEFT: 12.74H  GRAD.:    74.954 HEAT: -32309.16
 CYCLE:   389 TIME: 297.891 TIME LEFT: 12.66H  GRAD.:    56.200 HEAT: -32309.63
 CYCLE:   390 TIME: 247.281 TIME LEFT: 12.59H  GRAD.:    34.994 HEAT: -32310.36
 CYCLE:   391 TIME: 273.281 TIME LEFT: 12.51H  GRAD.:    35.381 HEAT: -32311.50
 CYCLE:   392 TIME: 240.969 TIME LEFT: 12.45H  GRAD.:    31.614 HEAT: -32311.60
 CYCLE:   393 TIME: 300.141 TIME LEFT: 12.36H  GRAD.:    72.193 HEAT: -32312.18
 CYCLE:   394 TIME: 413.453 TIME LEFT: 12.25H  GRAD.:    49.275 HEAT: -32312.46
 CYCLE:   395 TIME: 249.844 TIME LEFT: 12.18H  GRAD.:    32.507 HEAT: -32312.67
 CYCLE:   396 TIME: 315.500 TIME LEFT: 12.09H  GRAD.:    72.173 HEAT: -32312.78
 CYCLE:   397 TIME: 254.656 TIME LEFT: 12.02H  GRAD.:    44.015 HEAT: -32312.78
 CYCLE:   398 TIME: 298.469 TIME LEFT: 11.94H  GRAD.:    32.287 HEAT: -32312.98
 CYCLE:   399 TIME: 255.859 TIME LEFT: 11.87H  GRAD.:    33.398 HEAT: -32313.76
 CYCLE:   400 TIME: 255.297 TIME LEFT: 11.80H  GRAD.:    34.383 HEAT: -32314.40
 CYCLE:   401 TIME: 275.469 TIME LEFT: 11.72H  GRAD.:    37.762 HEAT: -32315.16
 CYCLE:   402 TIME: 279.219 TIME LEFT: 11.64H  GRAD.:    36.222 HEAT: -32316.24
 CYCLE:   403 TIME: 316.484 TIME LEFT: 11.55H  GRAD.:    54.894 HEAT: -32317.01
 CYCLE:   404 TIME: 244.906 TIME LEFT: 11.49H  GRAD.:    33.738 HEAT: -32317.35
 CYCLE:   405 TIME: 244.578 TIME LEFT: 11.42H  GRAD.:    27.901 HEAT: -32317.67
 RESTART FILE WRITTEN,      TIME LEFT: 11.34H  GRAD.:    36.644 HEAT: -32317.56
 CYCLE:   407 TIME: 312.406 TIME LEFT: 11.25H  GRAD.:    87.988 HEAT: -32318.02
 CYCLE:   408 TIME: 214.281 TIME LEFT: 11.19H  GRAD.:    38.921 HEAT: -32318.90
 CYCLE:   409 TIME: 270.703 TIME LEFT: 11.12H  GRAD.:    57.312 HEAT: -32319.83
 CYCLE:   410 TIME: 284.828 TIME LEFT: 11.04H  GRAD.:    63.074 HEAT: -32319.92
 CYCLE:   411 TIME: 259.922 TIME LEFT: 10.96H  GRAD.:    39.736 HEAT: -32320.49
 CYCLE:   412 TIME: 264.422 TIME LEFT: 10.89H  GRAD.:    30.808 HEAT: -32320.49
 CYCLE:   413 TIME: 290.594 TIME LEFT: 10.81H  GRAD.:    36.838 HEAT: -32320.98
 CYCLE:   414 TIME: 290.688 TIME LEFT: 10.73H  GRAD.:    81.104 HEAT: -32320.64
 CYCLE:   415 TIME: 296.312 TIME LEFT: 10.65H  GRAD.:    79.437 HEAT: -32320.96
 CYCLE:   416 TIME: 276.844 TIME LEFT: 10.57H  GRAD.:    62.667 HEAT: -32321.88
 CYCLE:   417 TIME: 250.688 TIME LEFT: 10.50H  GRAD.:    36.306 HEAT: -32322.89
 CYCLE:   418 TIME: 271.750 TIME LEFT: 10.42H  GRAD.:    30.205 HEAT: -32324.11
 CYCLE:   419 TIME: 366.500 TIME LEFT: 10.32H  GRAD.:    37.130 HEAT: -32324.54
 CYCLE:   420 TIME: 306.234 TIME LEFT: 10.24H  GRAD.:    42.124 HEAT: -32324.95
 CYCLE:   421 TIME: 254.875 TIME LEFT: 10.17H  GRAD.:    32.267 HEAT: -32325.41
 CYCLE:   422 TIME: 250.156 TIME LEFT: 10.10H  GRAD.:    31.360 HEAT: -32325.89
 CYCLE:   423 TIME: 291.234 TIME LEFT: 10.02H  GRAD.:    37.224 HEAT: -32326.85
 CYCLE:   424 TIME: 279.078 TIME LEFT:  9.94H  GRAD.:    56.774 HEAT: -32326.63
 CYCLE:   425 TIME: 295.516 TIME LEFT:  9.86H  GRAD.:    95.606 HEAT: -32325.93
 CYCLE:   426 TIME: 285.719 TIME LEFT:  9.78H  GRAD.:   104.724 HEAT: -32325.66
 CYCLE:   427 TIME: 308.734 TIME LEFT:  9.69H  GRAD.:    87.343 HEAT: -32328.31
 CYCLE:   428 TIME: 299.594 TIME LEFT:  9.61H  GRAD.:    33.073 HEAT: -32328.90
 CYCLE:   429 TIME: 281.812 TIME LEFT:  9.53H  GRAD.:    28.852 HEAT: -32328.88
 CYCLE:   430 TIME: 278.156 TIME LEFT:  9.45H  GRAD.:    24.106 HEAT: -32329.56
 CYCLE:   431 TIME: 287.344 TIME LEFT:  9.37H  GRAD.:    46.374 HEAT: -32329.94
 RESTART FILE WRITTEN,      TIME LEFT:  9.27H  GRAD.:    67.389 HEAT: -32330.07
 CYCLE:   433 TIME: 252.109 TIME LEFT:  9.20H  GRAD.:    65.423 HEAT: -32329.88
 CYCLE:   434 TIME: 282.656 TIME LEFT:  9.12H  GRAD.:    49.455 HEAT: -32330.11
 CYCLE:   435 TIME: 293.625 TIME LEFT:  9.04H  GRAD.:    37.398 HEAT: -32330.56
 CYCLE:   436 TIME: 286.156 TIME LEFT:  8.96H  GRAD.:    35.990 HEAT: -32331.14
 CYCLE:   437 TIME: 301.594 TIME LEFT:  8.88H  GRAD.:    36.814 HEAT: -32331.74
 CYCLE:   438 TIME: 278.172 TIME LEFT:  8.80H  GRAD.:    31.005 HEAT: -32332.18
 CYCLE:   439 TIME: 327.609 TIME LEFT:  8.71H  GRAD.:    36.313 HEAT: -32332.14
 CYCLE:   440 TIME: 274.062 TIME LEFT:  8.63H  GRAD.:    37.390 HEAT: -32334.74
 CYCLE:   441 TIME: 307.359 TIME LEFT:  8.55H  GRAD.:    29.119 HEAT: -32335.29
 CYCLE:   442 TIME: 280.031 TIME LEFT:  8.47H  GRAD.:    32.165 HEAT: -32335.40
 CYCLE:   443 TIME: 306.969 TIME LEFT:  8.39H  GRAD.:    34.949 HEAT: -32335.08
 CYCLE:   444 TIME: 248.703 TIME LEFT:  8.32H  GRAD.:    38.773 HEAT: -32335.08
 CYCLE:   445 TIME: 287.266 TIME LEFT:  8.24H  GRAD.:    28.058 HEAT: -32334.86
 CYCLE:   446 TIME: 284.391 TIME LEFT:  8.16H  GRAD.:    29.591 HEAT: -32335.50
 CYCLE:   447 TIME: 269.797 TIME LEFT:  8.08H  GRAD.:    38.350 HEAT: -32336.73
 CYCLE:   448 TIME: 283.031 TIME LEFT:  8.00H  GRAD.:    43.260 HEAT: -32335.46
 CYCLE:   449 TIME: 294.422 TIME LEFT:  7.92H  GRAD.:    75.322 HEAT: -32336.76
 CYCLE:   450 TIME: 278.156 TIME LEFT:  7.84H  GRAD.:   165.579 HEAT: -32333.39
 CYCLE:   451 TIME: 299.656 TIME LEFT:  7.76H  GRAD.:    40.123 HEAT: -32337.92
 CYCLE:   452 TIME: 287.516 TIME LEFT:  7.68H  GRAD.:    42.268 HEAT: -32338.39
 CYCLE:   453 TIME: 294.766 TIME LEFT:  7.60H  GRAD.:    29.925 HEAT: -32338.24
 CYCLE:   454 TIME: 291.188 TIME LEFT:  7.52H  GRAD.:    25.083 HEAT: -32337.94
 CYCLE:   455 TIME: 285.125 TIME LEFT:  7.44H  GRAD.:    37.570 HEAT: -32338.06
 CYCLE:   456 TIME: 296.172 TIME LEFT:  7.36H  GRAD.:    32.932 HEAT: -32338.66
 CYCLE:   457 TIME: 296.297 TIME LEFT:  7.28H  GRAD.:    69.677 HEAT: -32338.72
 RESTART FILE WRITTEN,      TIME LEFT:  7.19H  GRAD.:    73.602 HEAT: -32338.36
 CYCLE:   459 TIME: 287.047 TIME LEFT:  7.11H  GRAD.:    64.088 HEAT: -32338.56
 CYCLE:   460 TIME: 206.406 TIME LEFT:  7.05H  GRAD.:    55.581 HEAT: -32339.66
 CYCLE:   461 TIME: 252.375 TIME LEFT:  6.98H  GRAD.:    42.979 HEAT: -32339.88
 CYCLE:   462 TIME: 250.578 TIME LEFT:  6.91H  GRAD.:    51.122 HEAT: -32340.13
 CYCLE:   463 TIME: 286.094 TIME LEFT:  6.83H  GRAD.:    71.653 HEAT: -32340.96
 CYCLE:   464 TIME: 307.312 TIME LEFT:  6.75H  GRAD.:    44.391 HEAT: -32340.89
 CYCLE:   465 TIME: 248.891 TIME LEFT:  6.68H  GRAD.:    35.600 HEAT: -32341.31
 CYCLE:   466 TIME: 289.734 TIME LEFT:  6.60H  GRAD.:    27.456 HEAT: -32341.75
 CYCLE:   467 TIME: 289.938 TIME LEFT:  6.52H  GRAD.:    27.439 HEAT: -32341.83
 CYCLE:   468 TIME: 347.703 TIME LEFT:  6.42H  GRAD.:    44.421 HEAT: -32341.64
 CYCLE:   469 TIME: 277.141 TIME LEFT:  6.34H  GRAD.:    69.624 HEAT: -32340.56
 CYCLE:   470 TIME: 249.109 TIME LEFT:  6.27H  GRAD.:    71.794 HEAT: -32337.83
 CYCLE:   471 TIME: 230.281 TIME LEFT:  6.21H  GRAD.:    53.909 HEAT: -32338.96
 CYCLE:   472 TIME: 278.875 TIME LEFT:  6.13H  GRAD.:    34.995 HEAT: -32342.00
 CYCLE:   473 TIME: 295.375 TIME LEFT:  6.05H  GRAD.:    37.676 HEAT: -32341.01
 CYCLE:   474 TIME: 247.719 TIME LEFT:  5.98H  GRAD.:    45.076 HEAT: -32341.26
 CYCLE:   475 TIME: 259.172 TIME LEFT:  5.91H  GRAD.:    27.108 HEAT: -32341.29
 CYCLE:   476 TIME: 441.594 TIME LEFT:  5.79H  GRAD.:    26.030 HEAT: -32341.59
 CYCLE:   477 TIME: 307.938 TIME LEFT:  5.70H  GRAD.:    32.846 HEAT: -32340.87
 CYCLE:   478 TIME: 300.188 TIME LEFT:  5.62H  GRAD.:    67.059 HEAT: -32343.21
 CYCLE:   479 TIME: 284.547 TIME LEFT:  5.54H  GRAD.:    74.404 HEAT: -32343.09
 CYCLE:   480 TIME: 263.750 TIME LEFT:  5.47H  GRAD.:    76.697 HEAT: -32345.04
 CYCLE:   481 TIME: 289.016 TIME LEFT:  5.38H  GRAD.:    82.749 HEAT: -32344.42
 CYCLE:   482 TIME: 274.750 TIME LEFT:  5.31H  GRAD.:    71.551 HEAT: -32343.81
 CYCLE:   483 TIME: 276.547 TIME LEFT:  5.23H  GRAD.:    80.975 HEAT: -32343.29
 RESTART FILE WRITTEN,      TIME LEFT:  5.16H  GRAD.:    35.678 HEAT: -32344.10
 CYCLE:   485 TIME: 274.141 TIME LEFT:  5.08H  GRAD.:    22.429 HEAT: -32345.18
 CYCLE:   486 TIME: 309.484 TIME LEFT:  5.00H  GRAD.:    80.104 HEAT: -32346.04
 CYCLE:   487 TIME: 253.062 TIME LEFT:  4.93H  GRAD.:    53.165 HEAT: -32346.75
 CYCLE:   488 TIME: 269.031 TIME LEFT:  4.85H  GRAD.:    32.676 HEAT: -32347.13
 CYCLE:   489 TIME: 255.375 TIME LEFT:  4.78H  GRAD.:    32.322 HEAT: -32347.00
 CYCLE:   490 TIME: 295.750 TIME LEFT:  4.70H  GRAD.:    51.136 HEAT: -32345.97
 CYCLE:   491 TIME: 294.031 TIME LEFT:  4.62H  GRAD.:    71.397 HEAT: -32347.19
 CYCLE:   492 TIME: 352.750 TIME LEFT:  4.52H  GRAD.:   101.156 HEAT: -32345.93
 CYCLE:   493 TIME: 320.875 TIME LEFT:  4.43H  GRAD.:    66.497 HEAT: -32347.87
 CYCLE:   494 TIME: 284.234 TIME LEFT:  4.35H  GRAD.:    36.385 HEAT: -32347.55
 CYCLE:   495 TIME: 254.844 TIME LEFT:  4.28H  GRAD.:    27.108 HEAT: -32348.08
 CYCLE:   496 TIME: 272.438 TIME LEFT:  4.21H  GRAD.:    49.108 HEAT: -32348.17
 CYCLE:   497 TIME: 243.844 TIME LEFT:  4.14H  GRAD.:    30.242 HEAT: -32348.97
 CYCLE:   498 TIME: 291.656 TIME LEFT:  4.06H  GRAD.:    61.764 HEAT: -32349.44
 CYCLE:   499 TIME: 295.875 TIME LEFT:  3.97H  GRAD.:    32.731 HEAT: -32350.04
 CYCLE:   500 TIME: 290.031 TIME LEFT:  3.89H  GRAD.:    29.383 HEAT: -32349.74
 CYCLE:   501 TIME: 315.125 TIME LEFT:  3.81H  GRAD.:    30.402 HEAT: -32348.88
 CYCLE:   502 TIME: 377.000 TIME LEFT:  3.70H  GRAD.:    47.544 HEAT: -32350.28
 CYCLE:   503 TIME: 297.578 TIME LEFT:  3.62H  GRAD.:    26.418 HEAT: -32350.71
 CYCLE:   504 TIME: 282.422 TIME LEFT:  3.54H  GRAD.:    38.175 HEAT: -32350.58
 CYCLE:   505 TIME: 307.500 TIME LEFT:  3.45H  GRAD.:    29.578 HEAT: -32351.24
 CYCLE:   506 TIME: 298.781 TIME LEFT:  3.37H  GRAD.:    26.334 HEAT: -32352.14
 CYCLE:   507 TIME: 306.094 TIME LEFT:  3.29H  GRAD.:    24.706 HEAT: -32352.58
 CYCLE:   508 TIME: 282.516 TIME LEFT:  3.21H  GRAD.:    27.129 HEAT: -32352.92
 RESTART FILE WRITTEN,      TIME LEFT:  3.13H  GRAD.:    40.726 HEAT: -32354.30
 CYCLE:   510 TIME: 312.203 TIME LEFT:  3.04H  GRAD.:    28.156 HEAT: -32354.36
 CYCLE:   511 TIME: 258.719 TIME LEFT:  2.97H  GRAD.:    25.221 HEAT: -32353.99
 CYCLE:   512 TIME: 249.344 TIME LEFT:  2.90H  GRAD.:    28.239 HEAT: -32354.36
 CYCLE:   513 TIME: 288.422 TIME LEFT:  2.82H  GRAD.:    28.783 HEAT: -32354.52
 CYCLE:   514 TIME: 283.156 TIME LEFT:  2.74H  GRAD.:    48.427 HEAT: -32355.06
 CYCLE:   515 TIME: 302.453 TIME LEFT:  2.66H  GRAD.:    49.068 HEAT: -32355.29
 CYCLE:   516 TIME: 301.109 TIME LEFT:  2.57H  GRAD.:    68.584 HEAT: -32355.30
 CYCLE:   517 TIME: 287.938 TIME LEFT:  2.49H  GRAD.:    61.335 HEAT: -32354.85
 CYCLE:   518 TIME: 251.984 TIME LEFT:  2.42H  GRAD.:    52.589 HEAT: -32356.12
 CYCLE:   519 TIME: 313.875 TIME LEFT:  2.34H  GRAD.:    53.174 HEAT: -32356.96
 CYCLE:   520 TIME: 290.453 TIME LEFT:  2.26H  GRAD.:    49.024 HEAT: -32355.94
 CYCLE:   521 TIME: 264.375 TIME LEFT:  2.18H  GRAD.:    27.828 HEAT: -32357.01
 CYCLE:   522 TIME: 307.594 TIME LEFT:  2.10H  GRAD.:    22.549 HEAT: -32357.31
 CYCLE:   523 TIME: 242.484 TIME LEFT:  2.03H  GRAD.:    30.773 HEAT: -32357.14
 CYCLE:   524 TIME: 249.375 TIME LEFT:  1.96H  GRAD.:    28.867 HEAT: -32357.73
 CYCLE:   525 TIME: 279.312 TIME LEFT:  1.88H  GRAD.:    27.191 HEAT: -32358.35
 CYCLE:   526 TIME: 283.188 TIME LEFT:  1.81H  GRAD.:    61.217 HEAT: -32358.83
 CYCLE:   527 TIME: 249.000 TIME LEFT:  1.74H  GRAD.:    36.772 HEAT: -32359.00
 CYCLE:   528 TIME: 288.359 TIME LEFT:  1.66H  GRAD.:    21.171 HEAT: -32358.78
 CYCLE:   529 TIME: 297.391 TIME LEFT:  1.57H  GRAD.:    22.473 HEAT: -32358.72
 CYCLE:   530 TIME: 296.859 TIME LEFT:  1.49H  GRAD.:    32.458 HEAT: -32358.25
 CYCLE:   531 TIME: 286.984 TIME LEFT:  1.41H  GRAD.:    35.742 HEAT: -32358.77
 CYCLE:   532 TIME: 294.844 TIME LEFT:  1.33H  GRAD.:    33.389 HEAT: -32359.05
 CYCLE:   533 TIME: 390.547 TIME LEFT:  1.22H  GRAD.:    21.806 HEAT: -32360.20
 CYCLE:   534 TIME: 280.375 TIME LEFT:  1.14H  GRAD.:    29.959 HEAT: -32361.22
 RESTART FILE WRITTEN,      TIME LEFT:  1.07H  GRAD.:    27.295 HEAT: -32361.35
 CYCLE:   536 TIME: 282.906 TIME LEFT: 59.49M  GRAD.:    31.123 HEAT: -32361.62
 CYCLE:   537 TIME: 287.703 TIME LEFT: 54.70M  GRAD.:    30.085 HEAT: -32360.47
 CYCLE:   538 TIME: 288.812 TIME LEFT: 49.88M  GRAD.:    25.007 HEAT: -32360.95
 CYCLE:   539 TIME: 282.219 TIME LEFT: 45.18M  GRAD.:    30.537 HEAT: -32362.15
 CYCLE:   540 TIME: 290.328 TIME LEFT: 40.34M  GRAD.:    34.950 HEAT: -32360.66
 CYCLE:   541 TIME: 301.172 TIME LEFT: 35.32M  GRAD.:    59.381 HEAT: -32360.48
 CYCLE:   542 TIME: 279.625 TIME LEFT: 30.66M  GRAD.:   112.042 HEAT: -32359.37
 CYCLE:   543 TIME: 379.266 TIME LEFT: 24.34M  GRAD.:    71.086 HEAT: -32361.72
                    THERE IS NOT ENOUGH TIME FOR ANOTHER CYCLE
                              NOW GOING TO FINAL


           - THE CALCULATION IS BEING DUMPED TO DISK
             RESTART IT USING THE KEYWORD "RESTART"


          CURRENT BEST VALUE OF HEAT OF FORMATION = -32362.146412
 START_RES=(2A 1301A) HTML OUTPUT MOZYME  gnorm=5 Opt chains=(A) CHARGE=-2 eps=78.4
 Optimize the positions of all atoms in ENOLATE 1BVR

  N(ATOM      1  N   THR A   2)   7.19488230 +1   2.78717795 +1  36.54286249 +1
  C(ATOM      2  CA  THR A   2)   6.45786810 +1   1.51772417 +1  36.42621241 +1
  C(ATOM      3  C   THR A   2)   5.28987687 +1   1.64941392 +1  35.42981641 +1
  O(ATOM      4  O   THR A   2)   5.05734951 +1   2.69881756 +1  34.85272976 +1
  C(ATOM      5  CB  THR A   2)   5.91687703 +1   1.11585515 +1  37.79805702 +1
  H(ATOM      6 1H   THR A   2)   7.60569879 +1   3.05950648 +1  35.65610906 +1
  H(ATOM      7 2H   THR A   2)   6.58389374 +1   3.54437726 +1  36.82771165 +1
  H(ATOM      8  HA  THR A   2)   7.17220954 +1   0.73770451 +1  36.04292670 +1
  H(ATOM      9 1HB  THR A   2)   6.71037572 +1   1.16881954 +1  38.55912086 +1
  H(ATOM     10 2HB  THR A   2)   5.11206771 +1   1.78066476 +1  38.13900551 +1
  H(ATOM     11 3HB  THR A   2)   5.52443716 +1   0.09305579 +1  37.81248978 +1
  N(ATOM     12  N   GLY A   3)   4.52452367 +1   0.53512927 +1  35.19492750 +1
  C(ATOM     13  CA  GLY A   3)   3.35223514 +1   0.63178756 +1  34.34078844 +1
  C(ATOM     14  C   GLY A   3)   3.65342715 +1   0.01483302 +1  32.97716343 +1
  O(ATOM     15  O   GLY A   3)   3.63430956 +1  -1.20404260 +1  32.81885337 +1
  H(ATOM     16  H   GLY A   3)   4.63854311 +1  -0.32955803 +1  35.70976216 +1
  H(ATOM     17 1HA  GLY A   3)   3.00477286 +1   1.69194272 +1  34.23941506 +1
  H(ATOM     18 2HA  GLY A   3)   2.48614611 +1   0.07962667 +1  34.79276488 +1
  N(ATOM     19  N   LEU A   4)   3.92024553 +1   0.85756264 +1  31.94255462 +1
  C(ATOM     20  CA  LEU A   4)   3.82804562 +1   0.41048315 +1  30.54184377 +1
  C(ATOM     21  C   LEU A   4)   5.01333351 +1  -0.48132069 +1  30.15709192 +1
  O(ATOM     22  O   LEU A   4)   4.88490632 +1  -1.41369053 +1  29.37081963 +1
  C(ATOM     23  CB  LEU A   4)   3.70438107 +1   1.67608335 +1  29.67664707 +1
  C(ATOM     24  CG  LEU A   4)   3.41235504 +1   1.48053075 +1  28.18062813 +1
  C(ATOM     25  CD1 LEU A   4)   4.71540952 +1   1.32011140 +1  27.39539969 +1
  C(ATOM     26  CD2 LEU A   4)   2.46692990 +1   0.31341888 +1  27.90751238 +1
  H(ATOM     27  H   LEU A   4)   4.01051849 +1   1.87325093 +1  32.09058974 +1
  H(ATOM     28  HA  LEU A   4)   2.89547053 +1  -0.22355365 +1  30.41848377 +1
  H(ATOM     29 1HB  LEU A   4)   4.60688898 +1   2.31204926 +1  29.79013062 +1
  H(ATOM     30 2HB  LEU A   4)   2.88222519 +1   2.30000190 +1  30.10491152 +1
  H(ATOM     31  HG  LEU A   4)   2.91631716 +1   2.42280777 +1  27.82152566 +1
  H(ATOM     32 1HD1 LEU A   4)   5.38660851 +1   2.16762185 +1  27.57253608 +1
  H(ATOM     33 2HD1 LEU A   4)   5.23772240 +1   0.39310618 +1  27.66253077 +1
  H(ATOM     34 3HD1 LEU A   4)   4.51634128 +1   1.29385460 +1  26.31821756 +1
  H(ATOM     35 1HD2 LEU A   4)   1.53911544 +1   0.40230147 +1  28.48432572 +1
  H(ATOM     36 2HD2 LEU A   4)   2.18346501 +1   0.27883223 +1  26.84758265 +1
  H(ATOM     37 3HD2 LEU A   4)   2.93880122 +1  -0.64753956 +1  28.15274418 +1
  N(ATOM     38  N   LEU A   5)   6.24656946 +1  -0.27480099 +1  30.70897721 +1
  C(ATOM     39  CA  LEU A   5)   7.31103431 +1  -1.25617905 +1  30.47845977 +1
  C(ATOM     40  C   LEU A   5)   7.53863627 +1  -2.09738011 +1  31.74575330 +1
  O(ATOM     41  O   LEU A   5)   8.58817403 +1  -2.69584627 +1  31.91074561 +1
  C(ATOM     42  CB  LEU A   5)   8.64648605 +1  -0.57105698 +1  30.13895546 +1
  C(ATOM     43  CG  LEU A   5)   8.83241761 +1  -0.25641204 +1  28.64524466 +1
  C(ATOM     44  CD1 LEU A   5)   8.45590982 +1  -1.44453048 +1  27.75457963 +1
  C(ATOM     45  CD2 LEU A   5)   8.02281498 +1   0.97276180 +1  28.23651902 +1
  H(ATOM     46  H   LEU A   5)   6.42065546 +1   0.39316126 +1  31.46749553 +1
  H(ATOM     47  HA  LEU A   5)   7.00907239 +1  -1.96447716 +1  29.64956891 +1
  H(ATOM     48 1HB  LEU A   5)   9.48465643 +1  -1.22634595 +1  30.46747031 +1
  H(ATOM     49 2HB  LEU A   5)   8.76738327 +1   0.36012672 +1  30.73367905 +1
  H(ATOM     50  HG  LEU A   5)   9.91643103 +1  -0.02427691 +1  28.48298842 +1
  H(ATOM     51 1HD1 LEU A   5)   8.94503619 +1  -2.36889062 +1  28.07836049 +1
  H(ATOM     52 2HD1 LEU A   5)   7.36785573 +1  -1.59684055 +1  27.74961239 +1
  H(ATOM     53 3HD1 LEU A   5)   8.74004912 +1  -1.25886058 +1  26.71084090 +1
  H(ATOM     54 1HD2 LEU A   5)   8.48772845 +1   1.90163734 +1  28.58912078 +1
  H(ATOM     55 2HD2 LEU A   5)   7.93519127 +1   1.03182263 +1  27.14494385 +1
  H(ATOM     56 3HD2 LEU A   5)   7.00698389 +1   0.93771012 +1  28.64762071 +1
  N(ATOM     57  N   ASP A   6)   6.51739033 +1  -2.24037130 +1  32.65350627 +1
  C(ATOM     58  CA  ASP A   6)   6.82692970 +1  -2.74222590 +1  33.99976275 +1
  C(ATOM     59  C   ASP A   6)   7.70375691 +1  -4.01508923 +1  33.92031061 +1
  O(ATOM     60  O   ASP A   6)   7.22090349 +1  -5.10669940 +1  33.67891461 +1
  C(ATOM     61  CB  ASP A   6)   5.51437839 +1  -3.08308705 +1  34.72151260 +1
  C(ATOM     62  CG  ASP A   6)   5.65785922 +1  -2.88065370 +1  36.19173906 +1
  O(ATOM     63  OD1 ASP A   6)   4.64181869 +1  -2.13108413 +1  36.66542997 +1
  O(ATOM     64  OD2 ASP A   6)   6.54020750 +1  -3.26405457 +1  36.91952768 +1
  H(ATOM     65  H   ASP A   6)   5.68644600 +1  -1.64780924 +1  32.59871269 +1
  H(ATOM     66  HA  ASP A   6)   7.37433181 +1  -1.93208366 +1  34.56525998 +1
  H(ATOM     67 1HB  ASP A   6)   5.19542147 +1  -4.13912375 +1  34.51732454 +1
  H(ATOM     68 2HB  ASP A   6)   4.65118122 +1  -2.48733236 +1  34.32146978 +1
  H(ATOM     69  HD1 ASP A   6)   4.59284396 +1  -2.05495330 +1  37.66392703 +1
  N(ATOM     70  N   GLY A   7)   9.00762930 +1  -3.84901765 +1  34.31068628 +1
  C(ATOM     71  CA  GLY A   7)   9.88531001 +1  -5.00563055 +1  34.41981010 +1
  C(ATOM     72  C   GLY A   7)  10.54564059 +1  -5.47248968 +1  33.12596742 +1
  O(ATOM     73  O   GLY A   7)  10.98268086 +1  -6.61577722 +1  33.04056018 +1
  H(ATOM     74  H   GLY A   7)   9.45361945 +1  -2.92819668 +1  34.26674712 +1
  H(ATOM     75 1HA  GLY A   7)   9.31475219 +1  -5.87188752 +1  34.85054240 +1
  H(ATOM     76 2HA  GLY A   7)  10.70556897 +1  -4.76751534 +1  35.15068282 +1
  N(ATOM     77  N   LYS A   8)  10.68250248 +1  -4.58480994 +1  32.10267562 +1
  C(ATOM     78  CA  LYS A   8)  11.32649735 +1  -4.98675413 +1  30.85935006 +1
  C(ATOM     79  C   LYS A   8)  12.69645072 +1  -4.28129530 +1  30.80845273 +1
  O(ATOM     80  O   LYS A   8)  12.84064729 +1  -3.09058202 +1  31.02246317 +1
  C(ATOM     81  CB  LYS A   8)  10.50866286 +1  -4.56681577 +1  29.62129951 +1
  C(ATOM     82  CG  LYS A   8)   9.52852288 +1  -5.67418620 +1  29.21418471 +1
  C(ATOM     83  CD  LYS A   8)   9.06461585 +1  -5.50812378 +1  27.76250456 +1
  C(ATOM     84  CE  LYS A   8)   8.23722868 +1  -6.72838472 +1  27.34953229 +1
  N(ATOM     85  NZ  LYS A   8)   7.86254345 +1  -6.63916763 +1  25.88477157 +1
  H(ATOM     86  H   LYS A   8)  10.28669910 +1  -3.64724431 +1  32.14852977 +1
  H(ATOM     87  HA  LYS A   8)  11.46920041 +1  -6.11024238 +1  30.86785658 +1
  H(ATOM     88 1HB  LYS A   8)  11.18768448 +1  -4.31677683 +1  28.78480264 +1
  H(ATOM     89 2HB  LYS A   8)   9.95364433 +1  -3.62435025 +1  29.82991946 +1
  H(ATOM     90 1HG  LYS A   8)   8.65372449 +1  -5.66308790 +1  29.89775158 +1
  H(ATOM     91 2HG  LYS A   8)   9.98072751 +1  -6.67730383 +1  29.35796784 +1
  H(ATOM     92 1HD  LYS A   8)   9.92539011 +1  -5.36072938 +1  27.07812955 +1
  H(ATOM     93 2HD  LYS A   8)   8.47020824 +1  -4.57829124 +1  27.65733686 +1
  H(ATOM     94 1HE  LYS A   8)   8.79286126 +1  -7.67910829 +1  27.52585509 +1
  H(ATOM     95 2HE  LYS A   8)   7.30569574 +1  -6.80947376 +1  27.96856596 +1
  H(ATOM     96 1HZ  LYS A   8)   8.45043858 +1  -7.26054950 +1  25.30890174 +1
  H(ATOM     97 2HZ  LYS A   8)   6.87570820 +1  -6.91905845 +1  25.71513771 +1
  H(ATOM     98 3HZ  LYS A   8)   7.95134615 +1  -5.65526206 +1  25.51809844 +1
  N(ATOM     99  N   ARG A   9)  13.76519169 +1  -5.07805956 +1  30.48580632 +1
  C(ATOM    100  CA  ARG A   9)  15.05464667 +1  -4.46609001 +1  30.17654759 +1
  C(ATOM    101  C   ARG A   9)  15.02301949 +1  -4.10402592 +1  28.68627326 +1
  O(ATOM    102  O   ARG A   9)  14.55562070 +1  -4.87688552 +1  27.85077871 +1
  C(ATOM    103  CB  ARG A   9)  16.20262096 +1  -5.46069917 +1  30.40175513 +1
  C(ATOM    104  CG  ARG A   9)  16.44960383 +1  -5.62655320 +1  31.90121871 +1
  C(ATOM    105  CD  ARG A   9)  17.31004243 +1  -6.86895710 +1  32.17215102 +1
  N(ATOM    106  NE  ARG A   9)  16.83803312 +1  -7.62521586 +1  33.34587105 +1
  C(ATOM    107  CZ  ARG A   9)  17.48120510 +1  -7.52070022 +1  34.59435396 +1
  N(ATOM    108  NH1 ARG A   9)  18.77105510 +1  -6.94480108 +1  34.68899354 +1
  N(ATOM    109  NH2 ARG A   9)  16.85076688 +1  -7.99562268 +1  35.63166960 +1
  H(ATOM    110  H   ARG A   9)  13.67941112 +1  -6.07251781 +1  30.27143552 +1
  H(ATOM    111  HA  ARG A   9)  15.19997530 +1  -3.53927099 +1  30.80743610 +1
  H(ATOM    112 1HB  ARG A   9)  17.12474676 +1  -5.10019550 +1  29.90291282 +1
  H(ATOM    113 2HB  ARG A   9)  15.96768632 +1  -6.44043584 +1  29.92836374 +1
  H(ATOM    114 1HG  ARG A   9)  15.48109359 +1  -5.69065889 +1  32.43978387 +1
  H(ATOM    115 2HG  ARG A   9)  16.95389248 +1  -4.72428396 +1  32.30513555 +1
  H(ATOM    116 1HD  ARG A   9)  17.26697249 +1  -7.57571550 +1  31.30228298 +1
  H(ATOM    117 2HD  ARG A   9)  18.37844969 +1  -6.57213921 +1  32.26137448 +1
  H(ATOM    118  HE  ARG A   9)  15.80882250 +1  -7.65126699 +1  33.39604693 +1
  H(ATOM    119 1HH1 ARG A   9)  19.54533356 +1  -7.59063768 +1  34.80747743 +1
  H(ATOM    120 2HH1 ARG A   9)  19.00639825 +1  -6.21238317 +1  34.02046709 +1
  H(ATOM    121  HH2 ARG A   9)  17.34802719 +1  -8.02995659 +1  36.51283804 +1
  N(ATOM    122  N   ILE A  10)  15.53500926 +1  -2.91053247 +1  28.30278672 +1
  C(ATOM    123  CA  ILE A  10)  15.49037194 +1  -2.53400989 +1  26.89091270 +1
  C(ATOM    124  C   ILE A  10)  16.85438302 +1  -1.91168052 +1  26.59309012 +1
  O(ATOM    125  O   ILE A  10)  17.35004674 +1  -1.07698893 +1  27.33488828 +1
  C(ATOM    126  CB  ILE A  10)  14.36995066 +1  -1.50373576 +1  26.60140305 +1
  C(ATOM    127  CG1 ILE A  10)  12.99010461 +1  -2.16847604 +1  26.73771246 +1
  C(ATOM    128  CG2 ILE A  10)  14.56013905 +1  -0.90567391 +1  25.20865871 +1
  C(ATOM    129  CD1 ILE A  10)  11.91941746 +1  -1.14776100 +1  27.10514763 +1
  H(ATOM    130  H   ILE A  10)  15.84792712 +1  -2.20226234 +1  28.97174761 +1
  H(ATOM    131  HA  ILE A  10)  15.32145307 +1  -3.45654807 +1  26.25641878 +1
  H(ATOM    132  HB  ILE A  10)  14.44344466 +1  -0.68584353 +1  27.35721138 +1
  H(ATOM    133 1HG1 ILE A  10)  12.71592947 +1  -2.67799967 +1  25.79531964 +1
  H(ATOM    134 2HG1 ILE A  10)  13.01560739 +1  -2.96481744 +1  27.50884254 +1
  H(ATOM    135 1HG2 ILE A  10)  15.45210913 +1  -0.26667694 +1  25.15257571 +1
  H(ATOM    136 2HG2 ILE A  10)  14.68163159 +1  -1.67623722 +1  24.43778616 +1
  H(ATOM    137 3HG2 ILE A  10)  13.70479047 +1  -0.28199477 +1  24.92210269 +1
  H(ATOM    138 1HD1 ILE A  10)  10.93272197 +1  -1.62482539 +1  27.15513030 +1
  H(ATOM    139 2HD1 ILE A  10)  12.11831872 +1  -0.68951402 +1  28.08065527 +1
  H(ATOM    140 3HD1 ILE A  10)  11.85504249 +1  -0.33893121 +1  26.36488408 +1
  N(ATOM    141  N   LEU A  11)  17.51208997 +1  -2.36458945 +1  25.48052281 +1
  C(ATOM    142  CA  LEU A  11)  18.66163101 +1  -1.59405767 +1  25.00989351 +1
  C(ATOM    143  C   LEU A  11)  18.09398152 +1  -0.48683272 +1  24.10955841 +1
  O(ATOM    144  O   LEU A  11)  17.27705399 +1  -0.77815265 +1  23.24635269 +1
  C(ATOM    145  CB  LEU A  11)  19.61914446 +1  -2.47140815 +1  24.19451610 +1
  C(ATOM    146  CG  LEU A  11)  20.81563394 +1  -1.64516455 +1  23.67595325 +1
  C(ATOM    147  CD1 LEU A  11)  22.10820160 +1  -2.45870938 +1  23.79523939 +1
  C(ATOM    148  CD2 LEU A  11)  20.57335789 +1  -1.21102037 +1  22.22880736 +1
  H(ATOM    149  H   LEU A  11)  17.04564110 +1  -2.98496905 +1  24.81368076 +1
  H(ATOM    150  HA  LEU A  11)  19.20556328 +1  -1.16453696 +1  25.90503601 +1
  H(ATOM    151 1HB  LEU A  11)  19.08629440 +1  -2.94651793 +1  23.34714034 +1
  H(ATOM    152 2HB  LEU A  11)  19.97020147 +1  -3.30510006 +1  24.83598891 +1
  H(ATOM    153  HG  LEU A  11)  20.93492231 +1  -0.72663610 +1  24.30719023 +1
  H(ATOM    154 1HD1 LEU A  11)  22.40045187 +1  -2.57910168 +1  24.84502835 +1
  H(ATOM    155 2HD1 LEU A  11)  22.00971842 +1  -3.45423284 +1  23.34942260 +1
  H(ATOM    156 3HD1 LEU A  11)  22.94005833 +1  -1.96200107 +1  23.28364506 +1
  H(ATOM    157 1HD2 LEU A  11)  19.64703156 +1  -0.63636177 +1  22.11602577 +1
  H(ATOM    158 2HD2 LEU A  11)  21.38368872 +1  -0.57630786 +1  21.85326652 +1
  H(ATOM    159 3HD2 LEU A  11)  20.50271669 +1  -2.06370382 +1  21.54659984 +1
  N(ATOM    160  N   VAL A  12)  18.45702237 +1   0.80830096 +1  24.34060227 +1
  C(ATOM    161  CA  VAL A  12)  18.03190965 +1   1.85265175 +1  23.40940678 +1
  C(ATOM    162  C   VAL A  12)  19.31387102 +1   2.43238896 +1  22.78457459 +1
  O(ATOM    163  O   VAL A  12)  20.16098561 +1   2.98049811 +1  23.49010730 +1
  C(ATOM    164  CB  VAL A  12)  17.27482055 +1   3.01167599 +1  24.11130226 +1
  C(ATOM    165  CG1 VAL A  12)  16.81168904 +1   4.02668085 +1  23.06633889 +1
  C(ATOM    166  CG2 VAL A  12)  16.08006408 +1   2.47282302 +1  24.89730156 +1
  H(ATOM    167  H   VAL A  12)  19.20293975 +1   1.03811949 +1  25.00120632 +1
  H(ATOM    168  HA  VAL A  12)  17.36391052 +1   1.40849890 +1  22.61758726 +1
  H(ATOM    169  HB  VAL A  12)  17.98390373 +1   3.51985835 +1  24.81107941 +1
  H(ATOM    170 1HG1 VAL A  12)  17.63097631 +1   4.35015916 +1  22.41147507 +1
  H(ATOM    171 2HG1 VAL A  12)  16.01380037 +1   3.63615617 +1  22.42632661 +1
  H(ATOM    172 3HG1 VAL A  12)  16.41705770 +1   4.93811025 +1  23.54510196 +1
  H(ATOM    173 1HG2 VAL A  12)  16.40441963 +1   1.83748732 +1  25.73206455 +1
  H(ATOM    174 2HG2 VAL A  12)  15.48137217 +1   3.29467784 +1  25.30927729 +1
  H(ATOM    175 3HG2 VAL A  12)  15.41684368 +1   1.87389125 +1  24.26243985 +1
  N(ATOM    176  N   SER A  13)  19.49408471 +1   2.25427674 +1  21.45546031 +1
  C(ATOM    177  CA  SER A  13)  20.60945035 +1   2.89530431 +1  20.76621241 +1
  C(ATOM    178  C   SER A  13)  20.06212641 +1   4.15454700 +1  20.08185326 +1
  O(ATOM    179  O   SER A  13)  18.87749017 +1   4.27606427 +1  19.80885793 +1
  C(ATOM    180  CB  SER A  13)  21.16883599 +1   1.92087474 +1  19.71071816 +1
  O(ATOM    181  OG  SER A  13)  20.16642241 +1   1.57534125 +1  18.78802713 +1
  H(ATOM    182  H   SER A  13)  18.78476066 +1   1.84464526 +1  20.83199722 +1
  H(ATOM    183  HA  SER A  13)  21.43407184 +1   3.15900182 +1  21.48875391 +1
  H(ATOM    184 1HB  SER A  13)  22.05094942 +1   2.35124869 +1  19.20047322 +1
  H(ATOM    185 2HB  SER A  13)  21.45447209 +1   0.95311631 +1  20.17154569 +1
  H(ATOM    186  HG  SER A  13)  19.94935831 +1   2.33046543 +1  18.19940601 +1
  N(ATOM    187  N   GLY A  14)  20.95745366 +1   5.15243710 +1  19.81762436 +1
  C(ATOM    188  CA  GLY A  14)  20.48138256 +1   6.35716281 +1  19.15312686 +1
  C(ATOM    189  C   GLY A  14)  20.36086077 +1   7.56804002 +1  20.06709498 +1
  O(ATOM    190  O   GLY A  14)  19.57728939 +1   8.47097140 +1  19.80553370 +1
  H(ATOM    191  H   GLY A  14)  21.96378648 +1   5.05633246 +1  19.92433608 +1
  H(ATOM    192 1HA  GLY A  14)  19.46696670 +1   6.17990263 +1  18.68949343 +1
  H(ATOM    193 2HA  GLY A  14)  21.16196769 +1   6.62423543 +1  18.30629967 +1
  N(ATOM    194  N   ILE A  15)  21.19383592 +1   7.68257507 +1  21.15480018 +1
  C(ATOM    195  CA  ILE A  15)  21.10657780 +1   8.89388577 +1  21.97372455 +1
  C(ATOM    196  C   ILE A  15)  22.35834716 +1   9.71146695 +1  21.59667199 +1
  O(ATOM    197  O   ILE A  15)  23.46947552 +1   9.42269941 +1  22.02655142 +1
  C(ATOM    198  CB  ILE A  15)  21.09595853 +1   8.57882922 +1  23.48962581 +1
  C(ATOM    199  CG1 ILE A  15)  19.74994116 +1   7.91585242 +1  23.83506079 +1
  C(ATOM    200  CG2 ILE A  15)  21.30697256 +1   9.87840826 +1  24.26508438 +1
  C(ATOM    201  CD1 ILE A  15)  19.63679847 +1   7.55598596 +1  25.31491661 +1
  H(ATOM    202  H   ILE A  15)  21.62065510 +1   6.86276529 +1  21.58271807 +1
  H(ATOM    203  HA  ILE A  15)  20.17718022 +1   9.48135675 +1  21.71097371 +1
  H(ATOM    204  HB  ILE A  15)  21.92795160 +1   7.86746417 +1  23.72198996 +1
  H(ATOM    205 1HG1 ILE A  15)  18.91612675 +1   8.57857125 +1  23.53756413 +1
  H(ATOM    206 2HG1 ILE A  15)  19.64175833 +1   6.98860533 +1  23.23109487 +1
  H(ATOM    207 1HG2 ILE A  15)  22.31123782 +1  10.28938308 +1  24.08832335 +1
  H(ATOM    208 2HG2 ILE A  15)  20.58497393 +1  10.65507390 +1  23.97876356 +1
  H(ATOM    209 3HG2 ILE A  15)  21.22213907 +1   9.71313374 +1  25.34471088 +1
  H(ATOM    210 1HD1 ILE A  15)  18.71790807 +1   6.98658817 +1  25.50329863 +1
  H(ATOM    211 2HD1 ILE A  15)  20.48463783 +1   6.93027709 +1  25.62304882 +1
  H(ATOM    212 3HD1 ILE A  15)  19.61475723 +1   8.44721784 +1  25.95075791 +1
  N(ATOM    213  N   ILE A  16)  22.14514266 +1  10.80179125 +1  20.80174039 +1
  C(ATOM    214  CA  ILE A  16)  23.22296841 +1  11.73931959 +1  20.49626575 +1
  C(ATOM    215  C   ILE A  16)  23.02577738 +1  13.02672028 +1  21.31099842 +1
  O(ATOM    216  O   ILE A  16)  23.99297858 +1  13.55624185 +1  21.84761984 +1
  C(ATOM    217  CB  ILE A  16)  23.32594745 +1  12.05832157 +1  18.98320436 +1
  C(ATOM    218  CG1 ILE A  16)  24.72794372 +1  12.58288616 +1  18.63805423 +1
  C(ATOM    219  CG2 ILE A  16)  22.30447275 +1  13.08137202 +1  18.49854888 +1
  C(ATOM    220  CD1 ILE A  16)  25.80249984 +1  11.51017743 +1  18.78225056 +1
  H(ATOM    221  H   ILE A  16)  21.25488057 +1  10.92746090 +1  20.29314439 +1
  H(ATOM    222  HA  ILE A  16)  24.21042268 +1  11.29781804 +1  20.83761618 +1
  H(ATOM    223  HB  ILE A  16)  23.15746174 +1  11.09783752 +1  18.43022685 +1
  H(ATOM    224 1HG1 ILE A  16)  24.97436275 +1  13.45858950 +1  19.27287580 +1
  H(ATOM    225 2HG1 ILE A  16)  24.72649521 +1  12.96731665 +1  17.59655115 +1
  H(ATOM    226 1HG2 ILE A  16)  21.28255183 +1  12.83917446 +1  18.81243149 +1
  H(ATOM    227 2HG2 ILE A  16)  22.53876363 +1  14.09674080 +1  18.83660266 +1
  H(ATOM    228 3HG2 ILE A  16)  22.27783242 +1  13.11449386 +1  17.39758139 +1
  H(ATOM    229 1HD1 ILE A  16)  26.13812189 +1  11.44261109 +1  19.82593399 +1
  H(ATOM    230 2HD1 ILE A  16)  25.44638695 +1  10.52392918 +1  18.46037632 +1
  H(ATOM    231 3HD1 ILE A  16)  26.67376740 +1  11.74118350 +1  18.15793435 +1
  N(ATOM    232  N   THR A  17)  21.77337556 +1  13.55961070 +1  21.42636861 +1
  C(ATOM    233  CA  THR A  17)  21.51845311 +1  14.64955232 +1  22.35528940 +1
  C(ATOM    234  C   THR A  17)  20.58059881 +1  14.11948898 +1  23.45086244 +1
  O(ATOM    235  O   THR A  17)  20.06238367 +1  13.02007536 +1  23.40384538 +1
  C(ATOM    236  CB  THR A  17)  20.82435483 +1  15.85222526 +1  21.64419806 +1
  O(ATOM    237  OG1 THR A  17)  19.52722535 +1  15.36393301 +1  21.34310501 +1
  C(ATOM    238  CG2 THR A  17)  21.52257731 +1  16.27242858 +1  20.36901900 +1
  H(ATOM    239  H   THR A  17)  20.94753347 +1  13.11617444 +1  21.01269233 +1
  H(ATOM    240  HA  THR A  17)  22.48743962 +1  15.01220038 +1  22.81161329 +1
  H(ATOM    241  HB  THR A  17)  20.72092318 +1  16.70615245 +1  22.35643818 +1
  H(ATOM    242  HG1 THR A  17)  18.89040705 +1  16.07045484 +1  21.06508169 +1
  H(ATOM    243 1HG2 THR A  17)  21.16600071 +1  17.25171291 +1  20.02035901 +1
  H(ATOM    244 2HG2 THR A  17)  22.61299521 +1  16.34762562 +1  20.49525579 +1
  H(ATOM    245 3HG2 THR A  17)  21.34087351 +1  15.55274504 +1  19.55374265 +1
  N(ATOM    246  N   ASP A  18)  20.30712758 +1  14.97292518 +1  24.50170980 +1
  C(ATOM    247  CA  ASP A  18)  19.20271997 +1  14.64844802 +1  25.40684278 +1
  C(ATOM    248  C   ASP A  18)  17.81583508 +1  15.02752261 +1  24.82699663 +1
  O(ATOM    249  O   ASP A  18)  16.84350644 +1  15.16117769 +1  25.54594787 +1
  C(ATOM    250  CB  ASP A  18)  19.39099557 +1  15.30876392 +1  26.77526225 +1
  C(ATOM    251  CG  ASP A  18)  19.53125435 +1  16.79592023 +1  26.70490980 +1
  O(ATOM    252  OD1 ASP A  18)  19.98621158 +1  17.45077286 +1  25.79290589 +1
  O(ATOM    253  OD2 ASP A  18)  19.09979315 +1  17.37089653 +1  27.83737178 +1
  H(ATOM    254  H   ASP A  18)  20.65763712 +1  15.92768030 +1  24.54801589 +1
  H(ATOM    255  HA  ASP A  18)  19.16645892 +1  13.51697531 +1  25.54698045 +1
  H(ATOM    256 1HB  ASP A  18)  20.29360680 +1  14.88996019 +1  27.28626903 +1
  H(ATOM    257 2HB  ASP A  18)  18.52714221 +1  15.02460897 +1  27.43553549 +1
  H(ATOM    258  HD2 ASP A  18)  19.21293429 +1  18.36815422 +1  27.86730987 +1
  N(ATOM    259  N   SER A  19)  17.74498195 +1  15.11613291 +1  23.46725620 +1
  C(ATOM    260  CA  SER A  19)  16.51573179 +1  15.31967665 +1  22.71820472 +1
  C(ATOM    261  C   SER A  19)  16.42936757 +1  14.33632412 +1  21.53925969 +1
  O(ATOM    262  O   SER A  19)  15.42535625 +1  14.29612966 +1  20.83962584 +1
  C(ATOM    263  CB  SER A  19)  16.49488646 +1  16.75655582 +1  22.15964600 +1
  O(ATOM    264  OG  SER A  19)  17.24149070 +1  16.73998492 +1  20.95437735 +1
  H(ATOM    265  H   SER A  19)  18.58368612 +1  15.13441689 +1  22.89019178 +1
  H(ATOM    266  HA  SER A  19)  15.60770411 +1  15.14533250 +1  23.37745926 +1
  H(ATOM    267 1HB  SER A  19)  15.45863554 +1  17.09224394 +1  21.97197885 +1
  H(ATOM    268 2HB  SER A  19)  17.00117465 +1  17.47070109 +1  22.83770554 +1
  H(ATOM    269  HG  SER A  19)  16.73330027 +1  17.20385464 +1  20.24851640 +1
  N(ATOM    270  N   SER A  20)  17.43808385 +1  13.44409975 +1  21.30256126 +1
  C(ATOM    271  CA  SER A  20)  17.27343914 +1  12.44337254 +1  20.24363427 +1
  C(ATOM    272  C   SER A  20)  15.91180197 +1  11.78058860 +1  20.45100673 +1
  O(ATOM    273  O   SER A  20)  15.50091476 +1  11.54401511 +1  21.58699799 +1
  C(ATOM    274  CB  SER A  20)  18.36996336 +1  11.35404924 +1  20.40718358 +1
  O(ATOM    275  OG  SER A  20)  19.59078603 +1  11.87516306 +1  19.97803991 +1
  H(ATOM    276  H   SER A  20)  18.35887841 +1  13.49424274 +1  21.72558139 +1
  H(ATOM    277  HA  SER A  20)  17.35453854 +1  12.92195350 +1  19.22685555 +1
  H(ATOM    278 1HB  SER A  20)  18.53474160 +1  11.08975959 +1  21.46985070 +1
  H(ATOM    279 2HB  SER A  20)  18.12589987 +1  10.44376014 +1  19.82062991 +1
  H(ATOM    280  HG  SER A  20)  19.58990429 +1  11.96794714 +1  18.94763202 +1
  N(ATOM    281  N   ILE A  21)  15.16880146 +1  11.41355813 +1  19.37073887 +1
  C(ATOM    282  CA  ILE A  21)  13.97634241 +1  10.60640397 +1  19.65716716 +1
  C(ATOM    283  C   ILE A  21)  14.38313133 +1   9.45178930 +1  20.59826547 +1
  O(ATOM    284  O   ILE A  21)  13.71320064 +1   9.21022041 +1  21.59248237 +1
  C(ATOM    285  CB  ILE A  21)  13.29410708 +1  10.04192906 +1  18.38940635 +1
  C(ATOM    286  CG1 ILE A  21)  12.67553760 +1  11.17282637 +1  17.54827833 +1
  C(ATOM    287  CG2 ILE A  21)  12.20600925 +1   9.05657792 +1  18.82262752 +1
  C(ATOM    288  CD1 ILE A  21)  12.26248397 +1  10.67727428 +1  16.16060016 +1
  H(ATOM    289  H   ILE A  21)  15.53242679 +1  11.40127213 +1  18.39550515 +1
  H(ATOM    290  HA  ILE A  21)  13.24256066 +1  11.24857092 +1  20.22539406 +1
  H(ATOM    291  HB  ILE A  21)  14.05673906 +1   9.50254350 +1  17.76938807 +1
  H(ATOM    292 1HG1 ILE A  21)  11.80168699 +1  11.60783194 +1  18.06539501 +1
  H(ATOM    293 2HG1 ILE A  21)  13.40701115 +1  12.00170140 +1  17.43609305 +1
  H(ATOM    294 1HG2 ILE A  21)  12.62724480 +1   8.16529161 +1  19.30376954 +1
  H(ATOM    295 2HG2 ILE A  21)  11.49380573 +1   9.50473634 +1  19.52472691 +1
  H(ATOM    296 3HG2 ILE A  21)  11.63258377 +1   8.70545943 +1  17.95659218 +1
  H(ATOM    297 1HD1 ILE A  21)  12.12550740 +1  11.51968851 +1  15.47146972 +1
  H(ATOM    298 2HD1 ILE A  21)  13.03687277 +1  10.03431785 +1  15.72251848 +1
  H(ATOM    299 3HD1 ILE A  21)  11.33136604 +1  10.10590410 +1  16.18926273 +1
  N(ATOM    300  N   ALA A  22)  15.54112369 +1   8.76371839 +1  20.35417985 +1
  C(ATOM    301  CA  ALA A  22)  15.91671440 +1   7.65095745 +1  21.23369590 +1
  C(ATOM    302  C   ALA A  22)  16.03047678 +1   8.07986563 +1  22.70302373 +1
  O(ATOM    303  O   ALA A  22)  15.77584374 +1   7.26815391 +1  23.57767416 +1
  C(ATOM    304  CB  ALA A  22)  17.28631216 +1   7.08301972 +1  20.88416249 +1
  H(ATOM    305  H   ALA A  22)  16.07135859 +1   8.84093063 +1  19.47262350 +1
  H(ATOM    306  HA  ALA A  22)  15.12139019 +1   6.84739585 +1  21.17167512 +1
  H(ATOM    307 1HB  ALA A  22)  17.46295318 +1   7.04806546 +1  19.79773039 +1
  H(ATOM    308 2HB  ALA A  22)  18.10334722 +1   7.68568993 +1  21.30956137 +1
  H(ATOM    309 3HB  ALA A  22)  17.41003285 +1   6.05729704 +1  21.26031949 +1
  N(ATOM    310  N   PHE A  23)  16.56520362 +1   9.31259903 +1  22.97800681 +1
  C(ATOM    311  CA  PHE A  23)  16.61372653 +1   9.80304427 +1  24.35878133 +1
  C(ATOM    312  C   PHE A  23)  15.17522240 +1   9.88278810 +1  24.89449609 +1
  O(ATOM    313  O   PHE A  23)  14.82401585 +1   9.25471672 +1  25.88090532 +1
  C(ATOM    314  CB  PHE A  23)  17.28797948 +1  11.18352283 +1  24.38118347 +1
  C(ATOM    315  CG  PHE A  23)  17.27780761 +1  11.75372133 +1  25.76269620 +1
  C(ATOM    316  CD1 PHE A  23)  16.19816217 +1  12.52779445 +1  26.19281952 +1
  C(ATOM    317  CD2 PHE A  23)  18.36276423 +1  11.53582594 +1  26.61416179 +1
  C(ATOM    318  CE1 PHE A  23)  16.20580249 +1  13.08897190 +1  27.46799417 +1
  C(ATOM    319  CE2 PHE A  23)  18.37606193 +1  12.11864748 +1  27.87822843 +1
  C(ATOM    320  CZ  PHE A  23)  17.30075700 +1  12.89441709 +1  28.30736877 +1
  H(ATOM    321  H   PHE A  23)  16.58336993 +1  10.03469253 +1  22.25277786 +1
  H(ATOM    322  HA  PHE A  23)  17.18358156 +1   9.06920327 +1  24.99704465 +1
  H(ATOM    323 1HB  PHE A  23)  16.78668299 +1  11.87766434 +1  23.66362382 +1
  H(ATOM    324 2HB  PHE A  23)  18.32968436 +1  11.10546840 +1  23.99206705 +1
  H(ATOM    325  HD1 PHE A  23)  15.35713073 +1  12.71503919 +1  25.52477183 +1
  H(ATOM    326  HD2 PHE A  23)  19.19760174 +1  10.92071752 +1  26.28531804 +1
  H(ATOM    327  HE1 PHE A  23)  15.36197680 +1  13.69791027 +1  27.79145950 +1
  H(ATOM    328  HE2 PHE A  23)  19.23072540 +1  11.96303686 +1  28.53989198 +1
  H(ATOM    329  HZ  PHE A  23)  17.32292201 +1  13.34809651 +1  29.29791210 +1
  N(ATOM    330  N   HIS A  24)  14.28374704 +1  10.63864344 +1  24.19031495 +1
  C(ATOM    331  CA  HIS A  24)  12.87662927 +1  10.66350996 +1  24.58870736 +1
  C(ATOM    332  C   HIS A  24)  12.35719610 +1   9.24118807 +1  24.90491716 +1
  O(ATOM    333  O   HIS A  24)  11.79824770 +1   9.02480788 +1  25.96710383 +1
  C(ATOM    334  CB  HIS A  24)  12.03559618 +1  11.32971180 +1  23.48232524 +1
  C(ATOM    335  CG  HIS A  24)  12.28584283 +1  12.78311624 +1  23.47722264 +1
  N(ATOM    336  ND1 HIS A  24)  11.66376515 +1  13.63435781 +1  24.39582336 +1
  C(ATOM    337  CD2 HIS A  24)  13.12504626 +1  13.58910845 +1  22.70245660 +1
  N(ATOM    338  NE2 HIS A  24)  13.03128153 +1  14.90273018 +1  23.13694842 +1
  C(ATOM    339  CE1 HIS A  24)  12.15349993 +1  14.91181189 +1  24.16292881 +1
  H(ATOM    340  H   HIS A  24)  14.52274187 +1  11.03039928 +1  23.27344205 +1
  H(ATOM    341  HA  HIS A  24)  12.79184673 +1  11.26221774 +1  25.54265214 +1
  H(ATOM    342 1HB  HIS A  24)  10.95512094 +1  11.11575303 +1  23.65435630 +1
  H(ATOM    343 2HB  HIS A  24)  12.27732560 +1  10.87758511 +1  22.48909899 +1
  H(ATOM    344  HD1 HIS A  24)  11.07518633 +1  13.31896422 +1  25.16027809 +1
  H(ATOM    345  HD2 HIS A  24)  13.78352679 +1  13.30293913 +1  21.89924937 +1
  H(ATOM    346  HE1 HIS A  24)  11.84294012 +1  15.78023489 +1  24.72210721 +1
  N(ATOM    347  N   ILE A  25)  12.51942649 +1   8.28852774 +1  23.93704397 +1
  C(ATOM    348  CA  ILE A  25)  12.12898915 +1   6.89480295 +1  24.15017104 +1
  C(ATOM    349  C   ILE A  25)  12.72164403 +1   6.35852205 +1  25.46298147 +1
  O(ATOM    350  O   ILE A  25)  12.01185870 +1   5.83212187 +1  26.30296205 +1
  C(ATOM    351  CB  ILE A  25)  12.64477780 +1   5.97615362 +1  23.00800804 +1
  C(ATOM    352  CG1 ILE A  25)  12.11677521 +1   6.42783335 +1  21.64022000 +1
  C(ATOM    353  CG2 ILE A  25)  12.21667104 +1   4.53499190 +1  23.29780697 +1
  C(ATOM    354  CD1 ILE A  25)  12.91267955 +1   5.78745847 +1  20.50653268 +1
  H(ATOM    355  H   ILE A  25)  13.13979722 +1   8.47523986 +1  23.14405813 +1
  H(ATOM    356  HA  ILE A  25)  11.00728924 +1   6.83436860 +1  24.22454701 +1
  H(ATOM    357  HB  ILE A  25)  13.76576774 +1   6.02824349 +1  22.99471845 +1
  H(ATOM    358 1HG1 ILE A  25)  12.17096164 +1   7.53303632 +1  21.54247161 +1
  H(ATOM    359 2HG1 ILE A  25)  11.04224656 +1   6.17158552 +1  21.53941113 +1
  H(ATOM    360 1HG2 ILE A  25)  12.57362993 +1   4.18284401 +1  24.27292517 +1
  H(ATOM    361 2HG2 ILE A  25)  11.12375648 +1   4.42907265 +1  23.29174011 +1
  H(ATOM    362 3HG2 ILE A  25)  12.61794129 +1   3.85382701 +1  22.53811150 +1
  H(ATOM    363 1HD1 ILE A  25)  12.74721533 +1   6.31756032 +1  19.55863461 +1
  H(ATOM    364 2HD1 ILE A  25)  13.99536931 +1   5.81453181 +1  20.69270967 +1
  H(ATOM    365 3HD1 ILE A  25)  12.62327810 +1   4.74233633 +1  20.34661692 +1
  N(ATOM    366  N   ALA A  26)  14.08001819 +1   6.41290580 +1  25.59315326 +1
  C(ATOM    367  CA  ALA A  26)  14.74883738 +1   5.83830500 +1  26.76065194 +1
  C(ATOM    368  C   ALA A  26)  14.09162086 +1   6.36459221 +1  28.05138954 +1
  O(ATOM    369  O   ALA A  26)  13.64288889 +1   5.60567264 +1  28.89461964 +1
  C(ATOM    370  CB  ALA A  26)  16.22949313 +1   6.21324540 +1  26.73071635 +1
  H(ATOM    371  H   ALA A  26)  14.63802073 +1   7.05844780 +1  25.02051546 +1
  H(ATOM    372  HA  ALA A  26)  14.60880587 +1   4.72092372 +1  26.73241480 +1
  H(ATOM    373 1HB  ALA A  26)  16.73444473 +1   5.75300942 +1  25.86781205 +1
  H(ATOM    374 2HB  ALA A  26)  16.37110587 +1   7.30330619 +1  26.62743554 +1
  H(ATOM    375 3HB  ALA A  26)  16.75067038 +1   5.90673676 +1  27.64480123 +1
  N(ATOM    376  N   ARG A  27)  14.07791928 +1   7.71836631 +1  28.19226990 +1
  C(ATOM    377  CA  ARG A  27)  13.43966642 +1   8.38250233 +1  29.33047472 +1
  C(ATOM    378  C   ARG A  27)  12.04649954 +1   7.80124505 +1  29.61169779 +1
  O(ATOM    379  O   ARG A  27)  11.75265119 +1   7.44660421 +1  30.74600545 +1
  C(ATOM    380  CB  ARG A  27)  13.39041413 +1   9.88554572 +1  29.00582022 +1
  C(ATOM    381  CG  ARG A  27)  12.27500992 +1  10.65320948 +1  29.70626862 +1
  C(ATOM    382  CD  ARG A  27)  12.18567365 +1  12.07207020 +1  29.12300476 +1
  N(ATOM    383  NE  ARG A  27)  11.60114372 +1  12.10450406 +1  27.76941091 +1
  C(ATOM    384  CZ  ARG A  27)  10.19790949 +1  12.14084170 +1  27.61447145 +1
  N(ATOM    385  NH1 ARG A  27)   9.38171153 +1  12.11182544 +1  28.75504452 +1
  N(ATOM    386  NH2 ARG A  27)   9.76227033 +1  12.35635742 +1  26.39600129 +1
  H(ATOM    387  H   ARG A  27)  14.27861212 +1   8.30895403 +1  27.37654998 +1
  H(ATOM    388  HA  ARG A  27)  14.06403730 +1   8.17420544 +1  30.25533975 +1
  H(ATOM    389 1HB  ARG A  27)  13.28364557 +1  10.01248109 +1  27.90071545 +1
  H(ATOM    390 2HB  ARG A  27)  14.37420635 +1  10.34589414 +1  29.24672499 +1
  H(ATOM    391 1HG  ARG A  27)  12.43844643 +1  10.70598708 +1  30.80129207 +1
[...]
  H(HETATM 4232 2H   HOH A1331)   6.70424257 +1   8.58905577 +1  10.49888890 +1
  O(HETATM 4233  O   HOH A1332)  29.07050712 +1   8.31069860 +1   9.97371639 +1
  H(HETATM 4234 1H   HOH A1332)  29.08000847 +1   7.48578622 +1  10.48398960 +1
  H(HETATM 4235 2H   HOH A1332)  28.14851492 +1   8.49429748 +1   9.78891290 +1
  O(HETATM 4236  O   HOH A1333)   4.21132313 +1  -1.69645231 +1   8.11550747 +1
  H(HETATM 4237 1H   HOH A1333)   3.65345608 +1  -2.37396011 +1   7.67642411 +1
  H(HETATM 4238 2H   HOH A1333)   4.35185740 +1  -1.02959537 +1   7.41524223 +1
  O(HETATM 4239  O   HOH A1334)   8.26896467 +1   2.84362239 +1   2.45361663 +1
  H(HETATM 4240 1H   HOH A1334)   9.11664741 +1   2.70310771 +1   1.97074790 +1
  H(HETATM 4241 2H   HOH A1334)   8.18435270 +1   3.78841006 +1   2.63253105 +1
  O(HETATM 4242  O   HOH A1335)  31.70178346 +1   3.67136527 +1   4.59773038 +1
  H(HETATM 4243 1H   HOH A1335)  31.82910648 +1   4.61620256 +1   4.73986725 +1
  H(HETATM 4244 2H   HOH A1335)  31.76693231 +1   3.26857365 +1   5.47310569 +1
  O(HETATM 4245  O   HOH A1336)   1.28388427 +1  23.31254000 +1  10.22792804 +1
  H(HETATM 4246 1H   HOH A1336)   1.37513876 +1  22.53294371 +1   9.66463218 +1
  H(HETATM 4247 2H   HOH A1336)   0.66325209 +1  23.06537414 +1  10.92254320 +1
  O(HETATM 4248  O   HOH A1337)  30.53288116 +1   5.84491041 +1  -4.38434113 +1
  H(HETATM 4249 1H   HOH A1337)  31.39685010 +1   6.25135976 +1  -4.54181795 +1
  H(HETATM 4250 2H   HOH A1337)  30.69625340 +1   4.87806525 +1  -4.38495591 +1
  O(HETATM 4251  O   HOH A1338)   3.47567758 +1   9.93305148 +1   5.73014368 +1
  H(HETATM 4252 1H   HOH A1338)   3.85388037 +1   9.32318452 +1   5.09242126 +1
  H(HETATM 4253 2H   HOH A1338)   3.88331928 +1   9.67127090 +1   6.55782307 +1
  O(HETATM 4254  O   HOH A1339)   6.72698692 +1  11.17834675 +1   8.76279622 +1
  H(HETATM 4255 1H   HOH A1339)   5.81107111 +1  11.44032311 +1   8.78488330 +1
  H(HETATM 4256 2H   HOH A1339)   6.95906270 +1  11.06677945 +1   7.80451599 +1
  O(HETATM 4257  O   HOH A1340)   5.01372528 +1   0.28429644 +1   5.51138352 +1
  H(HETATM 4258 1H   HOH A1340)   5.61459576 +1  -0.46750518 +1   5.37832970 +1
  H(HETATM 4259 2H   HOH A1340)   5.44583612 +1   1.03186807 +1   5.07732489 +1
  O(HETATM 4260  O   HOH A1341)  26.58871288 +1  -9.68648046 +1  19.83608714 +1
  H(HETATM 4261 1H   HOH A1341)  26.81728438 +1  -8.88780405 +1  19.33165985 +1
  H(HETATM 4262 2H   HOH A1341)  27.44888187 +1 -10.06306058 +1  20.05208416 +1
  O(HETATM 4263  O   HOH A1342)   2.86855929 +1  21.73955013 +1  15.54193824 +1
  H(HETATM 4264 1H   HOH A1342)   2.84318508 +1  20.87385662 +1  15.13140550 +1
  H(HETATM 4265 2H   HOH A1342)   3.69266523 +1  21.76396991 +1  16.06041122 +1
  O(HETATM 4266  O   HOH A1343)   1.78986384 +1   6.00801081 +1   4.82962397 +1
  H(HETATM 4267 1H   HOH A1343)   2.63260221 +1   6.38839560 +1   4.57978168 +1
  H(HETATM 4268 2H   HOH A1343)   1.16088860 +1   6.74438544 +1   4.88567961 +1
  O(HETATM 4269  O   HOH A1344)   4.38747562 +1 -11.05559812 +1  24.57448767 +1
  H(HETATM 4270 1H   HOH A1344)   4.73371487 +1 -10.16951395 +1  24.40194745 +1
  H(HETATM 4271 2H   HOH A1344)   4.10040488 +1 -10.96072322 +1  25.49928004 +1
  O(HETATM 4272  O   HOH A1345)   2.33726532 +1  -3.02441918 +1  31.33401258 +1
  H(HETATM 4273 1H   HOH A1345)   2.82028722 +1  -2.29600448 +1  31.74456500 +1
  H(HETATM 4274 2H   HOH A1345)   2.97374758 +1  -3.74648695 +1  31.30180187 +1
  O(HETATM 4275  O   HOH A1346)  28.33935550 +1   0.77212222 +1   3.72557522 +1
  H(HETATM 4276 1H   HOH A1346)  27.64865846 +1   0.78935337 +1   3.05811685 +1
  H(HETATM 4277 2H   HOH A1346)  28.89208501 +1   1.53732843 +1   3.49256912 +1
  O(HETATM 4278  O   HOH A1347)   4.44212361 +1   9.12750200 +1   8.11074407 +1
  H(HETATM 4279 1H   HOH A1347)   5.26790587 +1   9.00827902 +1   8.61558157 +1
  H(HETATM 4280 2H   HOH A1347)   3.88368221 +1   9.67548729 +1   8.65510444 +1
  O(HETATM 4281  O   HOH A1348)  28.74222519 +1   6.19101947 +1  -6.34508189 +1
  H(HETATM 4282 1H   HOH A1348)  29.47070996 +1   6.03869734 +1  -5.71023460 +1
  H(HETATM 4283 2H   HOH A1348)  28.99439996 +1   6.98054708 +1  -6.83208512 +1
  O(HETATM 4284  O   HOH A1349)   1.34650845 +1  -9.42274664 +1  26.74883512 +1
  H(HETATM 4285 1H   HOH A1349)   1.42925736 +1  -8.56185600 +1  26.29369511 +1
  H(HETATM 4286 2H   HOH A1349)   0.86413852 +1  -9.23231883 +1  27.56129863 +1
  O(HETATM 4287  O   HOH A1350)  30.05051932 +1  10.07027807 +1   5.68899946 +1
  H(HETATM 4288 1H   HOH A1350)  29.89763829 +1   9.62423502 +1   4.86268257 +1
  H(HETATM 4289 2H   HOH A1350)  30.18245078 +1   9.35251215 +1   6.36025749 +1
  O(HETATM 4290  O   HOH A1351)   2.13866553 +1  -0.85645097 +1   9.60763027 +1
  H(HETATM 4291 1H   HOH A1351)   2.84514656 +1  -1.05088797 +1   8.96938248 +1
  H(HETATM 4292 2H   HOH A1351)   2.50595660 +1  -0.16346879 +1  10.19334178 +1
  O(HETATM 4293  O   HOH A1352)  25.05786990 +1  15.84108573 +1  20.91259857 +1
  H(HETATM 4294 1H   HOH A1352)  24.58083505 +1  15.09931030 +1  21.29957896 +1
  H(HETATM 4295 2H   HOH A1352)  25.75304831 +1  15.43273857 +1  20.37966663 +1
  O(HETATM 4296  O   HOH A1353)  25.42502671 +1   8.88344454 +1  20.28014984 +1
  H(HETATM 4297 1H   HOH A1353)  24.93293682 +1   8.62729308 +1  19.49631589 +1
  H(HETATM 4298 2H   HOH A1353)  24.75826873 +1   9.15828598 +1  20.94390172 +1
  O(HETATM 4299  O   HOH A1354)  -1.42146687 +1  18.30894096 +1   2.45889237 +1
  H(HETATM 4300 1H   HOH A1354)  -1.71070317 +1  17.43301003 +1   2.16051402 +1
  H(HETATM 4301 2H   HOH A1354)  -0.91398416 +1  18.16222683 +1   3.25394527 +1
  O(HETATM 4302  O   HOH A1355)  13.70524068 +1  12.93182414 +1  32.99333983 +1
  H(HETATM 4303 1H   HOH A1355)  14.21081397 +1  13.01520263 +1  32.15842817 +1
  H(HETATM 4304 2H   HOH A1355)  13.99072787 +1  12.07428675 +1  33.31595890 +1
  O(HETATM 4305  O   HOH A1356)  15.93401993 +1  -9.85983824 +1  31.64528197 +1
  H(HETATM 4306 1H   HOH A1356)  16.09043565 +1  -9.40567529 +1  30.79944657 +1
  H(HETATM 4307 2H   HOH A1356)  16.43204560 +1  -9.40483550 +1  32.32208705 +1
  O(HETATM 4308  O   HOH A1357)  30.64992757 +1   3.19925562 +1  -3.98294691 +1
  H(HETATM 4309 1H   HOH A1357)  30.19205879 +1   3.28651468 +1  -3.13798972 +1
  H(HETATM 4310 2H   HOH A1357)  31.53259119 +1   2.86923185 +1  -3.74712016 +1
  O(HETATM 4311  O   HOH A1358)  29.22253122 +1   6.02670789 +1  11.36518383 +1
  H(HETATM 4312 1H   HOH A1358)  29.48602555 +1   5.19860924 +1  10.92803923 +1
  H(HETATM 4313 2H   HOH A1358)  29.96486319 +1   6.24103733 +1  11.94779405 +1
  O(HETATM 4314  O   HOH A1359)  15.24153394 +1  12.85425719 +1  30.80143188 +1
  H(HETATM 4315 1H   HOH A1359)  16.11076976 +1  13.05841346 +1  31.20328759 +1
  H(HETATM 4316 2H   HOH A1359)  15.10839200 +1  13.51658097 +1  30.11780750 +1
  O(HETATM 4317  O   HOH A1360)  11.22552535 +1  16.49616459 +1  21.10679502 +1
  H(HETATM 4318 1H   HOH A1360)  12.01560671 +1  16.08431506 +1  20.69576841 +1
  H(HETATM 4319 2H   HOH A1360)  11.00977164 +1  17.23564115 +1  20.51821102 +1
  O(HETATM 4320  O   HOH A1361)   3.06859827 +1  12.23018061 +1  24.11090975 +1
  H(HETATM 4321 1H   HOH A1361)   3.78297350 +1  12.30462711 +1  23.48136293 +1
  H(HETATM 4322 2H   HOH A1361)   2.26864578 +1  12.19181223 +1  23.57315453 +1
  O(HETATM 4323  O   HOH A1362)  34.60074067 +1   7.26625669 +1  21.23020254 +1
  H(HETATM 4324 1H   HOH A1362)  33.90267219 +1   7.92477416 +1  21.01768636 +1
  H(HETATM 4325 2H   HOH A1362)  34.82565975 +1   7.46347554 +1  22.15301631 +1
  O(HETATM 4326  O   HOH A1363)  13.27118931 +1  15.45564868 +1  19.74243633 +1
  H(HETATM 4327 1H   HOH A1363)  13.92573289 +1  14.95093470 +1  20.25831841 +1
  H(HETATM 4328 2H   HOH A1363)  13.78096846 +1  16.15919947 +1  19.34093581 +1
  O(HETATM 4329  O   HOH A1364)  12.37051830 +1  20.10952801 +1  18.84497469 +1
  H(HETATM 4330 1H   HOH A1364)  13.08453976 +1  19.67335144 +1  18.38727317 +1
  H(HETATM 4331 2H   HOH A1364)  11.72756372 +1  19.43862880 +1  19.09496716 +1
  O(HETATM 4332  O   HOH A1365)  29.66274124 +1 -10.58407949 +1  22.73624165 +1
  H(HETATM 4333 1H   HOH A1365)  29.48353529 +1 -10.42422950 +1  21.79866327 +1
  H(HETATM 4334 2H   HOH A1365)  29.54579883 +1  -9.71224302 +1  23.13147162 +1
  O(HETATM 4335  O   HOH A1366)   2.36902577 +1  14.99803834 +1  17.11324485 +1
  H(HETATM 4336 1H   HOH A1366)   2.85084954 +1  14.58952667 +1  17.82536558 +1
  H(HETATM 4337 2H   HOH A1366)   1.43233594 +1  15.00764142 +1  17.36535075 +1
  O(HETATM 4338  O   HOH A1367)   4.51636218 +1  17.24566659 +1   4.67611804 +1
  H(HETATM 4339 1H   HOH A1367)   4.78602187 +1  17.79145536 +1   5.42773793 +1
  H(HETATM 4340 2H   HOH A1367)   4.08549608 +1  16.47072370 +1   5.03063779 +1
  O(HETATM 4341  O   HOH A1368)   0.47397605 +1  10.39948699 +1   4.15305574 +1
  H(HETATM 4342 1H   HOH A1368)   1.38569357 +1  10.09209756 +1   4.16227329 +1
  H(HETATM 4343 2H   HOH A1368)   0.50078102 +1  11.23882912 +1   4.65328666 +1
  O(HETATM 4344  O   HOH A1369)  -3.18673787 +1  20.41516084 +1  13.81948271 +1
  H(HETATM 4345 1H   HOH A1369)  -3.57480762 +1  19.87031544 +1  13.08131848 +1
  H(HETATM 4346 2H   HOH A1369)  -3.49894664 +1  21.31769344 +1  13.64115366 +1
  O(HETATM 4347  O   HOH A1370)  27.22514567 +1   7.15491758 +1  26.22919691 +1
  H(HETATM 4348 1H   HOH A1370)  28.04954273 +1   7.65410330 +1  26.35888748 +1
  H(HETATM 4349 2H   HOH A1370)  26.57284816 +1   7.70680160 +1  26.65292844 +1
  O(HETATM 4350  O   HOH A1371)   4.50715304 +1  19.08746599 +1  12.19943231 +1
  H(HETATM 4351 1H   HOH A1371)   3.71509591 +1  18.96551507 +1  12.71477853 +1
  H(HETATM 4352 2H   HOH A1371)   4.30052611 +1  19.31939061 +1  11.30036146 +1
  O(HETATM 4353  O   HOH A1372)  18.32371696 +1 -14.89218585 +1  13.70228854 +1
  H(HETATM 4354 1H   HOH A1372)  17.58821205 +1 -14.93696040 +1  13.04364784 +1
  H(HETATM 4355 2H   HOH A1372)  18.78471698 +1 -14.06503708 +1  13.54430938 +1
  O(HETATM 4356  O   HOH A1373)  18.57723993 +1 -16.99353342 +1  12.03597486 +1
  H(HETATM 4357 1H   HOH A1373)  17.75805670 +1 -16.55485759 +1  11.74622453 +1
  H(HETATM 4358 2H   HOH A1373)  18.91681071 +1 -16.36967685 +1  12.70158555 +1
  O(HETATM 4359  O   HOH A1374)  25.79751755 +1  -2.66907947 +1  10.77449749 +1
  H(HETATM 4360 1H   HOH A1374)  26.48394022 +1  -2.37596205 +1  11.38676537 +1
  H(HETATM 4361 2H   HOH A1374)  26.25073832 +1  -2.80830218 +1   9.94017650 +1
  O(HETATM 4362  O   HOH A1375)  18.46782285 +1   2.79653479 +1  32.35745760 +1
  H(HETATM 4363 1H   HOH A1375)  18.99924052 +1   3.22160237 +1  33.06823373 +1
  H(HETATM 4364 2H   HOH A1375)  19.10128838 +1   2.29557125 +1  31.81914109 +1
  O(HETATM 4365  O   HOH A1376)  25.79501404 +1  -7.97941925 +1  14.12318782 +1
  H(HETATM 4366 1H   HOH A1376)  25.81836899 +1  -7.95845579 +1  13.16706279 +1
  H(HETATM 4367 2H   HOH A1376)  24.91420686 +1  -7.69820456 +1  14.38747846 +1
  O(HETATM 4368  O   HOH A1377)  23.69007236 +1   5.35015613 +1  18.76382495 +1
  H(HETATM 4369 1H   HOH A1377)  23.86386428 +1   5.01077627 +1  17.85988746 +1
  H(HETATM 4370 2H   HOH A1377)  24.41028593 +1   4.91925788 +1  19.26601318 +1
  O(HETATM 4371  O   HOH A1378)  22.58491894 +1   7.28566403 +1  32.47037111 +1
  H(HETATM 4372 1H   HOH A1378)  23.03717673 +1   7.54626550 +1  31.65924986 +1
  H(HETATM 4373 2H   HOH A1378)  21.82547901 +1   7.87450337 +1  32.52714598 +1
  O(HETATM 4374  O   HOH A1379)  27.92258328 +1   9.83793257 +1  20.05306364 +1
  H(HETATM 4375 1H   HOH A1379)  28.04570789 +1  10.67724305 +1  19.61129811 +1
  H(HETATM 4376 2H   HOH A1379)  26.98016349 +1   9.64397503 +1  20.14531599 +1
  O(HETATM 4377  O   HOH A1380)  29.42301747 +1  -3.75943418 +1   8.83293169 +1
  H(HETATM 4378 1H   HOH A1380)  28.49950743 +1  -3.46119981 +1   8.85073426 +1
  H(HETATM 4379 2H   HOH A1380)  29.89978880 +1  -3.09797121 +1   9.37843036 +1
  O(HETATM 4380  O   HOH A1381)  25.87553417 +1  -7.91778783 +1  11.09322664 +1
  H(HETATM 4381 1H   HOH A1381)  26.18536249 +1  -8.84967964 +1  11.29064984 +1
  H(HETATM 4382 2H   HOH A1381)  26.67118099 +1  -7.38918568 +1  10.93645388 +1
  O(HETATM 4383  O   HOH A1382)  14.93471948 +1 -12.33765101 +1  31.47002379 +1
  H(HETATM 4384 1H   HOH A1382)  14.48672695 +1 -12.13020263 +1  30.63604755 +1
  H(HETATM 4385 2H   HOH A1382)  15.29906937 +1 -11.47878584 +1  31.71422031 +1
  O(HETATM 4386  O   HOH A1383)  19.99412350 +1 -16.04587410 +1  24.52784819 +1
  H(HETATM 4387 1H   HOH A1383)  19.76012111 +1 -15.44239040 +1  23.80765255 +1
  H(HETATM 4388 2H   HOH A1383)  19.15700037 +1 -16.02984538 +1  25.04303007 +1
  O(HETATM 4389  O   HOH A1384)  21.91060942 +1  10.70156052 +1  36.39500537 +1
  H(HETATM 4390 1H   HOH A1384)  21.42822921 +1  11.18234345 +1  35.70413058 +1
  H(HETATM 4391 2H   HOH A1384)  22.55069140 +1  10.16237470 +1  35.93095236 +1
  O(HETATM 4392  O   HOH A1385)   7.19399329 +1  10.82429244 +1   6.15231372 +1
  H(HETATM 4393 1H   HOH A1385)   7.62713727 +1  10.02251122 +1   5.81530730 +1
  H(HETATM 4394 2H   HOH A1385)   7.75915538 +1  11.54757447 +1   5.85697056 +1
  O(HETATM 4395  O   HOH A1386)   4.62207307 +1  -5.14716715 +1  31.06527344 +1
  H(HETATM 4396 1H   HOH A1386)   4.91526136 +1  -5.83607634 +1  30.41608245 +1
  H(HETATM 4397 2H   HOH A1386)   5.40775121 +1  -4.80571254 +1  31.48849423 +1
  O(HETATM 4398  O   HOH A1387)  15.19035294 +1  18.13395470 +1  19.91214064 +1
  H(HETATM 4399 1H   HOH A1387)  14.91673042 +1  18.39667057 +1  19.00760233 +1
  H(HETATM 4400 2H   HOH A1387)  15.54763827 +1  18.95359548 +1  20.29556000 +1
  O(HETATM 4401  O   HOH A1388)  33.44990754 +1  -8.26026880 +1  19.00224858 +1
  H(HETATM 4402 1H   HOH A1388)  34.12379400 +1  -7.69906332 +1  19.39147209 +1
  H(HETATM 4403 2H   HOH A1388)  32.74039673 +1  -7.65528710 +1  18.74968583 +1
  O(HETATM 4404  O   HOH A1389)  32.69072037 +1  11.59956267 +1  25.09617250 +1
  H(HETATM 4405 1H   HOH A1389)  32.97500878 +1  11.75069805 +1  24.18486259 +1
  H(HETATM 4406 2H   HOH A1389)  33.09361779 +1  12.31540883 +1  25.59348021 +1
  O(HETATM 4407  O   HOH A1390)  26.94385335 +1   7.92050332 +1  34.92089496 +1
  H(HETATM 4408 1H   HOH A1390)  27.25520832 +1   8.12579485 +1  34.03038684 +1
  H(HETATM 4409 2H   HOH A1390)  26.07592614 +1   8.34853208 +1  34.93173661 +1
  O(HETATM 4410  O   HOH A1391)   3.75613089 +1 -10.53093260 +1  27.12609494 +1
  H(HETATM 4411 1H   HOH A1391)   4.35703293 +1  -9.77150176 +1  27.27739871 +1
  H(HETATM 4412 2H   HOH A1391)   2.87624815 +1 -10.12666688 +1  27.00877385 +1
  O(HETATM 4413  O   HOH A1392)  10.10723344 +1  -0.31845734 +1   2.55992020 +1
  H(HETATM 4414 1H   HOH A1392)  11.00678552 +1  -0.39962822 +1   2.94337111 +1
  H(HETATM 4415 2H   HOH A1392)   9.62177270 +1   0.24076470 +1   3.16587882 +1
  O(HETATM 4416  O   HOH A1393)   4.33013726 +1  -4.23573197 +1  22.10562098 +1
  H(HETATM 4417 1H   HOH A1393)   4.60798010 +1  -3.42568161 +1  22.51612466 +1
  H(HETATM 4418 2H   HOH A1393)   4.80758186 +1  -4.97633857 +1  22.51436720 +1
  O(HETATM 4419  O   HOH A1394)  13.57232808 +1   3.38694870 +1  35.49295665 +1
  H(HETATM 4420 1H   HOH A1394)  12.75368861 +1   3.47232207 +1  34.99163687 +1
  H(HETATM 4421 2H   HOH A1394)  14.27236233 +1   3.20201908 +1  34.86573805 +1
  O(HETATM 4422  O   HOH A1395)   5.45792881 +1  -8.63932971 +1  25.02009642 +1
  H(HETATM 4423 1H   HOH A1395)   6.39645969 +1  -8.84487300 +1  24.90005633 +1
  H(HETATM 4424 2H   HOH A1395)   5.32926541 +1  -8.63714407 +1  25.99903619 +1
  O(HETATM 4425  O   HOH A1396)  29.90589559 +1   2.75560775 +1   2.82320070 +1
  H(HETATM 4426 1H   HOH A1396)  29.53027846 +1   3.52259189 +1   2.38307162 +1
  H(HETATM 4427 2H   HOH A1396)  30.53202395 +1   3.09985445 +1   3.47170415 +1
  O(HETATM 4428  O   HOH A1397)  19.24714887 +1  15.09522383 +1  18.33136821 +1
  H(HETATM 4429 1H   HOH A1397)  19.33034586 +1  14.21481501 +1  17.90195408 +1
  H(HETATM 4430 2H   HOH A1397)  19.15954830 +1  14.91780134 +1  19.26567440 +1
  O(HETATM 4431  O   HOH A1398)  18.33232356 +1  26.12000018 +1   0.91774406 +1
  H(HETATM 4432 1H   HOH A1398)  18.69773560 +1  26.11401769 +1   0.03415788 +1
  H(HETATM 4433 2H   HOH A1398)  18.91080987 +1  25.56907646 +1   1.47855415 +1
  O(HETATM 4434  O   HOH A1399)   2.63393969 +1  22.93486757 +1   4.33964049 +1
  H(HETATM 4435 1H   HOH A1399)   3.50026218 +1  22.56851079 +1   4.56269293 +1
  H(HETATM 4436 2H   HOH A1399)   2.09195697 +1  22.75700312 +1   5.11286698 +1
  O(HETATM 4437  O   HOH A1400)  21.11679064 +1  22.02347905 +1  15.46422642 +1
  H(HETATM 4438 1H   HOH A1400)  20.62890540 +1  22.55358350 +1  14.82662425 +1
  H(HETATM 4439 2H   HOH A1400)  20.78940347 +1  21.12506387 +1  15.28870478 +1
  O(HETATM 4440  O   HOH A1401)  17.89771438 +1  15.68179785 +1  13.59264747 +1
  H(HETATM 4441 1H   HOH A1401)  18.11900444 +1  14.83441245 +1  13.19338648 +1
  H(HETATM 4442 2H   HOH A1401)  17.20376499 +1  15.46658969 +1  14.24853043 +1
  O(HETATM 4443  O   HOH A1402)  21.17143319 +1  13.40141772 +1  -2.30932122 +1
  H(HETATM 4444 1H   HOH A1402)  21.33761168 +1  13.63708816 +1  -3.22900460 +1
  H(HETATM 4445 2H   HOH A1402)  22.02413841 +1  13.53281255 +1  -1.88365130 +1
  O(HETATM 4446  O   HOH A1403)  22.89287947 +1  16.87789399 +1 -10.24765624 +1
  H(HETATM 4447 1H   HOH A1403)  23.15181756 +1  16.35268106 +1 -11.02671200 +1
  H(HETATM 4448 2H   HOH A1403)  21.92284199 +1  16.85525929 +1 -10.26219465 +1
  O(HETATM 4449  O   HOH A1404)  26.59178491 +1  18.03891583 +1  -5.50316220 +1
  H(HETATM 4450 1H   HOH A1404)  26.00476125 +1  17.76785678 +1  -6.21350801 +1
  H(HETATM 4451 2H   HOH A1404)  26.07863552 +1  17.94805618 +1  -4.68815511 +1
  O(HETATM 4452  O   HOH A1405)  18.02748620 +1  18.09144271 +1  -2.50590822 +1
  H(HETATM 4453 1H   HOH A1405)  18.92572306 +1  17.88639276 +1  -2.78290856 +1
  H(HETATM 4454 2H   HOH A1405)  18.09785967 +1  18.18212767 +1  -1.54962987 +1
  O(HETATM 4455  O   HOH A1406)  29.25122882 +1  15.09829819 +1  -2.38746465 +1
  H(HETATM 4456 1H   HOH A1406)  29.88694695 +1  14.58012110 +1  -1.88549355 +1
  H(HETATM 4457 2H   HOH A1406)  28.42196587 +1  14.61711096 +1  -2.27047325 +1
  O(HETATM 4458  O   HOH A1407)  22.17914588 +1  18.49907268 +1   1.90327887 +1
  H(HETATM 4459 1H   HOH A1407)  22.09098483 +1  17.55951243 +1   2.11373046 +1
  H(HETATM 4460 2H   HOH A1407)  22.74091814 +1  18.90031669 +1   2.58469406 +1
  O(HETATM 4461  O   HOH A1408)  14.95679945 +1  21.65509537 +1  17.77312256 +1
  H(HETATM 4462 1H   HOH A1408)  15.79045225 +1  21.51464931 +1  17.29972231 +1
  H(HETATM 4463 2H   HOH A1408)  14.57584255 +1  20.77397560 +1  17.77791644 +1
  O(HETATM 4464  O   HOH A1409)   0.03129971 +1  11.44395558 +1   1.73170431 +1
  H(HETATM 4465 1H   HOH A1409)   0.24579047 +1  11.08652279 +1   2.63298008 +1
  H(HETATM 4466 2H   HOH A1409)  -0.83497426 +1  11.81805419 +1   1.86238491 +1
  O(HETATM 4467  O   HOH A1410)  19.51652913 +1 -17.07870771 +1   9.52682788 +1
  H(HETATM 4468 1H   HOH A1410)  19.32740405 +1 -17.01564769 +1  10.47708720 +1
  H(HETATM 4469 2H   HOH A1410)  18.62848143 +1 -16.97688099 +1   9.14182587 +1
  O(HETATM 4470  O   HOH A1411)  16.97453367 +1 -16.83482001 +1   8.71069826 +1
  H(HETATM 4471 1H   HOH A1411)  16.67381177 +1 -15.92823347 +1   8.95939654 +1
  H(HETATM 4472 2H   HOH A1411)  16.83922207 +1 -16.88608401 +1   7.75739588 +1
  O(HETATM 4473  O   HOH A1412)  19.11728657 +1  -9.80228474 +1  11.81013894 +1
  H(HETATM 4474 1H   HOH A1412)  18.48229863 +1  -9.40624997 +1  11.22131887 +1
  H(HETATM 4475 2H   HOH A1412)  19.68437409 +1  -9.08605821 +1  12.12319679 +1
 
 

 **********************
 *                    *
 * JOB ENDED NORMALLY *
 *                    *
 **********************



 TOTAL JOB TIME:        171340.33 SECONDS

 == MOPAC DONE ==
