 *******************************************************************************
 ** Site#: 9602  E-mail support:    MrMOPAC@ATT.net    Version 17.184W 64BITS **
 *******************************************************************************
 ** Cite this program as: MOPAC2016, Version: 17.184W, James J. P. Stewart,   **
 ** Stewart Computational Chemistry, web: HTTP://OpenMOPAC.net. Days left: 406**
 *******************************************************************************
 **                                                                           **
 **                                MOPAC2016                                  **
 **                                                                           **
 *******************************************************************************

                              PM7 CALCULATION RESULTS


 *******************************************************************************
 *  CALCULATION DONE:                                Wed Jul 05 09:13:07 2017  *
 *  MOZYME     - USE LOCALIZED M.O.s IN SOLVING THE SCF EQUATIONS
 *
 *
 *
 *                 CHARGE ON SYSTEM =    -5
 *
 *
 *
 *  EPS= 78.40 - USE ANDREAS KLAMT'S COSMO IMPLICIT SOLVATION MODEL
 *  IRC=N      - INTRINSIC REACTION COORDINATE -1 DEFINED
 *  RESTART    - CALCULATION RESTARTED
 *  FORCETS    - VERIFY THAT TRANSITION STATE IS GENUINE
 *  T=         - A TIME OF      1.0 WEEKS   REQUESTED
 *  DUMP=N     - RESTART FILE WRITTEN EVERY  7200.000 SECONDS
 *  MINI       - REDUCE OUTPUT BY ONLY PRINTING FLAGGED ATOMS
 *  HTML       - WRITE HTML SCRIPT TO GENERATE ANIMATION USING JSMOL
 *             - TO DISPLAY IN PDB FORMAT, ADD "PDBOUT"
 *  X-PRIOR    - GEOMETRY CHANGES TAKE PRIORITY IN DRC
 *******************************************************************************
 EPS=78.4 T=1W CHARGE=-5 MOZYME FORCETS restart mini x-priority=0.1 IRC=-1 HTML
 Generate IRC in the negative direction for the transition state for hydride transfer in Ene-Enolate reaction

   ATOM                 CHEMICAL                   X               Y               Z
  NUMBER                 SYMBOL               (ANGSTROMS)     (ANGSTROMS)     (ANGSTROMS)
 
  4000       P(HETATM 4000  PA  NAI A1301)   19.73217730     11.98563424     15.57598948   
  4001       O(HETATM 4001  O1A NAI A1301)   20.00314571     12.97542742     14.50979031   
  4002       O(HETATM 4002  O2A NAI A1301)   20.35241837     12.14518750     16.93749424   
  4003       O(HETATM 4003  O5B NAI A1301)   19.88041129     10.51117546     14.93780872   
  4004       C(HETATM 4004  C5B NAI A1301)   21.11224950      9.87744253     14.62017252   
  4005       C(HETATM 4005  C4B NAI A1301)   21.38670718      8.87919069     15.75601291   
  4006       O(HETATM 4006  O4B NAI A1301)   21.93390131      7.71097548     15.12685956   
  4007       C(HETATM 4007  C3B NAI A1301)   22.40972762      9.37809054     16.79180064   
  4008       O(HETATM 4008  O3B NAI A1301)   21.92312173      9.21789427     18.10092080   
  4009       C(HETATM 4009  C2B NAI A1301)   23.61582079      8.41488867     16.67826911   
  4010       O(HETATM 4010  O2B NAI A1301)   24.11890615      7.94004829     17.89794386   
  4011       C(HETATM 4011  C1B NAI A1301)   23.02756405      7.21895303     15.86754423   
  4012       N(HETATM 4012  N9A NAI A1301)   23.95677957      6.71428731     14.87407482   
  4013       C(HETATM 4013  C8A NAI A1301)   24.35448669      7.30431019     13.64619974   
  4014       N(HETATM 4014  N7A NAI A1301)   25.26223846      6.55256442     13.02600195   
  4015       C(HETATM 4015  C5A NAI A1301)   25.47923736      5.43090243     13.82437343   
  4016       C(HETATM 4016  C6A NAI A1301)   26.30863658      4.28332625     13.73128422   
  4017       N(HETATM 4017  N6A NAI A1301)   27.13112240      3.96803618     12.70577374   
  4018       N(HETATM 4018  N1A NAI A1301)   26.23028364      3.35601708     14.74512458   
  4019       C(HETATM 4019  C2A NAI A1301)   25.42309882      3.55202576     15.80760624   
  4020       N(HETATM 4020  N3A NAI A1301)   24.61568408      4.61410807     16.00272789   
  4021       C(HETATM 4021  C4A NAI A1301)   24.65926603      5.52797709     14.99575887   
  4022       O(HETATM 4022  O3  NAI A1301)   18.22630889     11.84437779     16.07902614   
  4023       P(HETATM 4023  PN  NAI A1301)   16.77167772     11.30464967     15.75525737   
  4024       O(HETATM 4024  O1N NAI A1301)   16.00700539     12.28885132     14.94415391   
  4025       O(HETATM 4025  O2N NAI A1301)   16.34191685     10.93460468     17.14794308   
  4026       O(HETATM 4026  O5D NAI A1301)   16.87195413      9.97695248     14.85246220   
  4027       C(HETATM 4027  C5D NAI A1301)   16.77602556      8.69784891     15.51385377   
  4028       C(HETATM 4028  C4D NAI A1301)   16.34531032      7.76374026     14.38379458   
  4029       O(HETATM 4029  O4D NAI A1301)   14.97565623      8.08077777     14.07184193   
  4030       C(HETATM 4030  C3D NAI A1301)   17.17828587      7.94688362     13.10116128   
  4031       O(HETATM 4031  O3D NAI A1301)   17.32838372      6.75300354     12.38049581   
  4032       C(HETATM 4032  C2D NAI A1301)   16.28474954      8.90528192     12.27859918   
  4033       O(HETATM 4033  O2D NAI A1301)   16.49995598      8.70517307     10.92022989   
  4034       C(HETATM 4034  C1D NAI A1301)   14.86533693      8.41738710     12.69971460   
  4035       N(HETATM 4035  N1N NAI A1301)   13.79345320      9.40376086     12.57220240   
  4036       C(HETATM 4036  C2N NAI A1301)   13.92962094     10.70203563     12.99860665   
  4037       C(HETATM 4037  C3N NAI A1301)   12.90792696     11.60364280     12.81943112   
  4038       C(HETATM 4038  C7N NAI A1301)   13.00719674     13.04065972     13.13139828   
  4039       O(HETATM 4039  O7N NAI A1301)   12.42533485     13.86154010     12.41827130   
  4040       N(HETATM 4040  N7N NAI A1301)   13.66686560     13.46713432     14.24626536   
  4041       C(HETATM 4041  C4N NAI A1301)   11.73460816  *  11.24452938  *  12.06177761  *
  4042       H(HETATM 4042  H4N NAI A1301)   10.82182143     11.87252156     12.18413002   
  4043       H(HETATM 4043 H42N NAI A1301)   12.16067254  *  11.79596467  *  10.72335946  *
  4044       C(HETATM 4044  C5N NAI A1301)   11.54850085      9.82923488     11.83733578   
  4045       C(HETATM 4045  C6N NAI A1301)   12.56488047      8.95912215     12.07155377   
  4046       H(HETATM 4046 HO3N NAI A1301)   16.95681265      5.96428033     12.86678960   
  4047       H(HETATM 4047 HO3A NAI A1301)   21.00070893      9.57112346     18.19417762   
  4048       H(HETATM 4048 HO2N NAI A1301)   16.13772134      9.51231546     10.41449379   
  4049       H(HETATM 4049 HO2A NAI A1301)   23.55833885      8.23343192     18.66894052   
  4050       H(HETATM 4050 H71N NAI A1301)   13.81586616     14.45855406     14.40278392   
  4051       H(HETATM 4051 H72N NAI A1301)   14.25859927     12.84275201     14.77027037   
  4052       H(HETATM 4052 H61A NAI A1301)   27.81280317      3.20901982     12.82783539   
  4053       H(HETATM 4053 H62A NAI A1301)   27.31553322      4.61872752     11.96424022   
  4054       H(HETATM 4054 H51N NAI A1301)   17.77565175      8.40256910     15.90831373   
  4055       H(HETATM 4055 H51A NAI A1301)   20.85881095      9.34184482     13.67158833   
  4056       H(HETATM 4056 H52N NAI A1301)   16.01845233      8.64566573     16.32891675   
  4057       H(HETATM 4057 H52A NAI A1301)   21.98310489     10.52181975     14.40565473   
  4058       H(HETATM 4058  H8A NAI A1301)   23.91938922      8.24010557     13.29341733   
  4059       H(HETATM 4059  H6N NAI A1301)   12.46984357      7.88018538     11.89149508   
  4060       H(HETATM 4060  H5N NAI A1301)   10.59792827      9.46810358     11.43481246   
  4061       H(HETATM 4061  H4D NAI A1301)   16.31920702      6.70532238     14.73463515   
  4062       H(HETATM 4062  H4B NAI A1301)   20.43454285      8.53191625     16.23156256   
  4063       H(HETATM 4063  H3D NAI A1301)   18.20293106      8.33475820     13.27324103   
  4064       H(HETATM 4064  H3B NAI A1301)   22.69720965     10.44436712     16.66006123   
  4065       H(HETATM 4065  H2N NAI A1301)   14.89491253     10.98181690     13.45988075   
  4066       H(HETATM 4066  H2D NAI A1301)   16.47384498      9.97000245     12.54231953   
  4067       H(HETATM 4067  H2B NAI A1301)   24.49059074      8.88554692     16.17673960   
  4068       H(HETATM 4068  H2A NAI A1301)   25.42333763      2.76503490     16.58727182   
  4069       H(HETATM 4069  H1D NAI A1301)   14.57549537      7.48171689     12.15386710   
  4070       H(HETATM 4070  H1B NAI A1301)   22.66314069      6.38372928     16.51998130   
  4071       C(HETATM 4071  C1  THT A1302)   22.55433991     11.63506986     11.18420161   
  4072       C(HETATM 4072  C2  THT A1302)   21.18621664     11.17773265     10.78695427   
  4073       O(HETATM 4073  O2  THT A1302)   20.96860036     10.61329477      9.71495730   
  4074       N(HETATM 4074  N3  THT A1302)   20.16404188     11.42077163     11.65885426   
  4075       C(HETATM 4075  C4  THT A1302)   18.81724347     10.89878969     11.39386694   
  4076       C(HETATM 4076  C5  THT A1302)   18.10363046     11.73444891     10.32538226   
  4077       S(HETATM 4077  S6  THT A1302)   16.75412256     12.76296571     10.99086183   
  4078       C(HETATM 4078  C7  THT A1302)   15.27697149     11.97643309     10.29130090   
  4079       O(HETATM 4079  O7  THT A1302)   15.37900360     10.81499663      9.85627939   
  4080       C(HETATM 4080  C8  THT A1302)   14.14026800     12.77083235     10.24739339   
  4081       H(HETATM 4081  H8  THT A1302)   14.16769546     13.78373478     10.65067121   
  4082       C(HETATM 4082  C9  THT A1302)   12.89729514  *  12.32034285  *   9.71038128  *
  4083       H(HETATM 4083 2H9  THT A1302)   12.92733022     11.40542569      9.08580527   
  4084       C(HETATM 4084  C10 THT A1302)   12.00428416     13.41470826      9.14344855   
  4085       C(HETATM 4085  C11 THT A1302)   12.32654789     13.63295665      7.66187804   
  4086       C(HETATM 4086  C12 THT A1302)   11.41870845     14.70510102      7.05812797   
  4087       C(HETATM 4087  C13 THT A1302)   12.02691529     15.28062081      5.77190380   
  4088       C(HETATM 4088  C14 THT A1302)   12.70440897     16.62846328      6.04295656   
  4089       C(HETATM 4089  C15 THT A1302)   13.97619764     16.48973756      6.89335109   
  4090       C(HETATM 4090  C16 THT A1302)   15.19715249     16.19315379      6.02188731   
  4091       C(HETATM 4091  C17 THT A1302)   16.34045771     15.53805985      6.80380205   
  4092       C(HETATM 4092  C18 THT A1302)   17.09242516     16.49475529      7.73244606   
  4093       C(HETATM 4093  C19 THT A1302)   17.91223481     17.55163263      6.98285145   
  4094       C(HETATM 4094  C20 THT A1302)   19.05591184     17.01932700      6.11482110   
  4095       C(HETATM 4095  C21 THT A1302)   20.07355792     16.17620620      6.88687659   
  4096       C(HETATM 4096  C22 THT A1302)   20.87647293     16.95930259      7.92073217   
  4097       H(HETATM 4097  H3  THT A1302)   20.29914404     11.83237900     12.57762679   
  4098       H(HETATM 4098 1H5  THT A1302)   18.82675923     12.41615515      9.83120313   
  4099       H(HETATM 4099 2H5  THT A1302)   17.71885352     11.08036041      9.51750644   
  4100       H(HETATM 4100 1H4  THT A1302)   18.26414029     10.88001816     12.36543288   
  4101       H(HETATM 4101 2H4  THT A1302)   18.88797494      9.83609942     11.05607209   
  4102       H(HETATM 4102 1H1  THT A1302)   22.55404149     12.53345732     11.81821204   
  4103       H(HETATM 4103 2H1  THT A1302)   23.17243051     11.86127745     10.30402537   
  4104       H(HETATM 4104 3H1  THT A1302)   23.06920885     10.84408776     11.75956621   
  4105       H(HETATM 4105 1H22 THT A1302)   21.67428233     16.33960480      8.35129362   
  4106       H(HETATM 4106 2H22 THT A1302)   20.24222426     17.28418728      8.75475872   
  4107       H(HETATM 4107 3H22 THT A1302)   21.35228174     17.84320089      7.48798062   
  4108       H(HETATM 4108 1H21 THT A1302)   19.53933548     15.35380135      7.40204677   
  4109       H(HETATM 4109 2H21 THT A1302)   20.76729093     15.69206866      6.17104031   
  4110       H(HETATM 4110 1H20 THT A1302)   18.62947612     16.40600806      5.29103196   
  4111       H(HETATM 4111 2H20 THT A1302)   19.57504651     17.87317202      5.63820072   
  4112       H(HETATM 4112 1H19 THT A1302)   17.22814099     18.14236088      6.33973935   
  4113       H(HETATM 4113 2H19 THT A1302)   18.34351101     18.25303477      7.72565949   
  4114       H(HETATM 4114 1H18 THT A1302)   16.37402729     17.00160879      8.40705551   
  4115       H(HETATM 4115 2H18 THT A1302)   17.75699962     15.90888053      8.39779151   
  4116       H(HETATM 4116 1H17 THT A1302)   15.95831847     14.68408016      7.39749461   
  4117       H(HETATM 4117 2H17 THT A1302)   17.05499653     15.10335411      6.07633243   
  4118       H(HETATM 4118 1H16 THT A1302)   14.90599311     15.51756251      5.19238377   
  4119       H(HETATM 4119 2H16 THT A1302)   15.56245063     17.11739208      5.53767587   
  4120       H(HETATM 4120 1H15 THT A1302)   14.15305027     17.40377866      7.48930056   
  4121       H(HETATM 4121 2H15 THT A1302)   13.84467079     15.69279313      7.65260023   
  4122       H(HETATM 4122 1H14 THT A1302)   12.94573590     17.11540417      5.07890756   
  4123       H(HETATM 4123 2H14 THT A1302)   11.98674328     17.29674794      6.56062536   
  4124       H(HETATM 4124 1H13 THT A1302)   12.75358415     14.56774811      5.33769822   
  4125       H(HETATM 4125 2H13 THT A1302)   11.24051365     15.40155182      5.00388474   
  4126       H(HETATM 4126 1H12 THT A1302)   10.42589608     14.26523604      6.84498766   
  4127       H(HETATM 4127 2H12 THT A1302)   11.24496576     15.51185087      7.79614351   
  4128       H(HETATM 4128 1H11 THT A1302)   13.39499573     13.91373347      7.55797622   
  4129       H(HETATM 4129 2H11 THT A1302)   12.21807549     12.68315055      7.09957364   
  4130       H(HETATM 4130 1H10 THT A1302)   12.13572462     14.35571531      9.71720282   
  4131       H(HETATM 4131 2H10 THT A1302)   10.94045820     13.13037046      9.26156038   
 

 General Reference for PM7:
 "Optimization of Parameters for Semiempirical Methods VI: More Modifications to the 
 NDDO Approximations and Re-optimization of Parameters", J. J. P. Stewart, J. Mol. Mod., 1:32, 19 (2013)
 http://www.springerlink.com/openurl.asp?genre=article&id=doi:10.1007/s00894-012-1667-x

           Empirical Formula: C1301 H2294 N355 O498 S11 P2  =  4461 atoms


   Ion Atom No.           Label               Charge (Distances are between charged sites predicted by Lewis structure theory)
 
    1   N    1   (ATOM      1  N   GLY A   3)   +1  (2.6 Angstroms from anion  O   55, Label: ATOM     55  OD2 ASP A   6)
    2   N   75   (ATOM     75  NZ  LYS A   8)   +1  (3.9 Angstroms from anion  O 3688, Label: ATOM   3688  OD2 ASP A 248)
    3   C   97   (ATOM     97  CZ  ARG A   9)   +1  (5.3 Angstroms from anion  O 1348, Label: ATOM   1348  OD2 ASP A  89)
    4   C  374   (ATOM    374  CZ  ARG A  27)   +1  (3.9 Angstroms from anion  O  441, Label: ATOM    441  OE2 GLU A  31)
    5   C  614   (ATOM    614  CZ  ARG A  43)   +1  (3.7 Angstroms from anion  O  601, Label: ATOM    601  OD2 ASP A  42)
    6   C  657   (ATOM    657  CZ  ARG A  45)   +1
    7   C  736   (ATOM    736  CZ  ARG A  49)   +1  (9.9 Angstroms from anion  O  792, Label: ATOM    792  OD2 ASP A  52)
    8   C  805   (ATOM    805  CZ  ARG A  53)   +1  (5.8 Angstroms from anion  O  244, Label: ATOM    244  OD2 ASP A  18)
    9   N  872   (ATOM    872  NZ  LYS A  57)   +1  (4.8 Angstroms from anion  O  792, Label: ATOM    792  OD2 ASP A  52)
   10   C 1172   (ATOM   1172  CZ  ARG A  77)   +1  (8.4 Angstroms from anion  O  956, Label: ATOM    956  OE2 GLU A  62)
   11   N 1308   (ATOM   1308  NZ  LYS A  87)   +1
   12   N 1760   (ATOM   1760  NZ  LYS A 118)   +1  (4.3 Angstroms from anion  O 1720, Label: ATOM   1720  OD2 ASP A 115)
   13   N 1966   (ATOM   1966  NZ  LYS A 132)   +1  (4.4 Angstroms from anion  O 1049, Label: ATOM   1049  OE2 GLU A  68)
   14   C 2267   (ATOM   2267  CZ  ARG A 153)   +1  (5.5 Angstroms from anion  O 2229, Label: ATOM   2229  OD2 ASP A 150)
   15   N 2458   (ATOM   2458  NZ  LYS A 165)   +1  (4.6 Angstroms from anion  O 4079, Label: HETATM 4079  O7  THT A1302)
   16   C 2576   (ATOM   2576  CZ  ARG A 173)   +1  (5.2 Angstroms from anion  O 2520, Label: ATOM   2520  OE2 GLU A 169)
   17   C 2646   (ATOM   2646  CZ  ARG A 177)   +1  (3.4 Angstroms from anion  O 2670, Label: ATOM   2670  OE2 GLU A 178)
   18   N 2702   (ATOM   2702  NZ  LYS A 181)   +1  (3.5 Angstroms from anion  O 2670, Label: ATOM   2670  OE2 GLU A 178)
   19   C 2768   (ATOM   2768  CZ  ARG A 185)   +1  (8.3 Angstroms from anion  O 3688, Label: ATOM   3688  OD2 ASP A 248)
   20   C 2912   (ATOM   2912  CZ  ARG A 195)   +1  (3.5 Angstroms from anion  O 3250, Label: ATOM   3250  OE2 GLU A 219)
   21   C 3340   (ATOM   3340  CZ  ARG A 225)   +1  (5.8 Angstroms from anion  O 3883, Label: ATOM   3883  OD2 ASP A 261)
   22   N 3469   (ATOM   3469  NZ  LYS A 233)   +1  (6.7 Angstroms from anion  O 3310, Label: ATOM   3310  OD2 ASP A 223)
   23   N 3567   (ATOM   3567  NZ  LYS A 240)   +1  (6.8 Angstroms from anion  O  441, Label: ATOM    441  OE2 GLU A  31)
   24   C 3921   (ATOM   3921  CE1 HIS A 265)   +1  (5.1 Angstroms from anion  O 3883, Label: ATOM   3883  OD2 ASP A 261)
   25   C 4041   (HETATM 4041  C4N NAI A1301)   +1  (4.3 Angstroms from anion  O 4079, Label: HETATM 4079  O7  THT A1302)
 
    1   O   55   (ATOM     55  OD2 ASP A   6)   -1  (2.6 Angstroms from cation  N    1, Label: ATOM      1  N   GLY A   3)
    2   O  244   (ATOM    244  OD2 ASP A  18)   -1  (5.8 Angstroms from cation  C  805, Label: ATOM    805  CZ  ARG A  53)
    3   O  441   (ATOM    441  OE2 GLU A  31)   -1  (3.9 Angstroms from cation  C  374, Label: ATOM    374  CZ  ARG A  27)
    4   O  601   (ATOM    601  OD2 ASP A  42)   -1  (3.7 Angstroms from cation  C  614, Label: ATOM    614  CZ  ARG A  43)
    5   O  792   (ATOM    792  OD2 ASP A  52)   -1  (4.8 Angstroms from cation  N  872, Label: ATOM    872  NZ  LYS A  57)
    6   O  956   (ATOM    956  OE2 GLU A  62)   -1  (8.4 Angstroms from cation  C 1172, Label: ATOM   1172  CZ  ARG A  77)
    7   O  989   (ATOM    989  OD2 ASP A  64)   -1  (7.2 Angstroms from cation  N 1760, Label: ATOM   1760  NZ  LYS A 118)
    8   O 1049   (ATOM   1049  OE2 GLU A  68)   -1  (4.4 Angstroms from cation  N 1966, Label: ATOM   1966  NZ  LYS A 132)
    9   O 1064   (ATOM   1064  OE2 GLU A  69)   -1
   10   O 1226   (ATOM   1226  OE2 GLU A  80)   -1
   11   O 1348   (ATOM   1348  OD2 ASP A  89)   -1  (5.3 Angstroms from cation  C   97, Label: ATOM     97  CZ  ARG A   9)
   12   O 1653   (ATOM   1653  OD2 ASP A 110)   -1
   13   O 1720   (ATOM   1720  OD2 ASP A 115)   -1  (4.3 Angstroms from cation  N 1760, Label: ATOM   1760  NZ  LYS A 118)
   14   O 2197   (ATOM   2197  OD2 ASP A 148)   -1  (5.7 Angstroms from cation  N 2458, Label: ATOM   2458  NZ  LYS A 165)
   15   O 2229   (ATOM   2229  OD2 ASP A 150)   -1  (5.5 Angstroms from cation  C 2267, Label: ATOM   2267  CZ  ARG A 153)
   16   O 2520   (ATOM   2520  OE2 GLU A 169)   -1  (5.2 Angstroms from cation  C 2576, Label: ATOM   2576  CZ  ARG A 173)
   17   O 2670   (ATOM   2670  OE2 GLU A 178)   -1  (3.4 Angstroms from cation  C 2646, Label: ATOM   2646  CZ  ARG A 177)
                                                    (3.5 Angstroms from cation  N 2702, Label: ATOM   2702  NZ  LYS A 181)
   18   O 3102   (ATOM   3102  OE2 GLU A 209)   -1
   19   O 3117   (ATOM   3117  OE2 GLU A 210)   -1
   20   O 3250   (ATOM   3250  OE2 GLU A 219)   -1  (3.5 Angstroms from cation  C 2912, Label: ATOM   2912  CZ  ARG A 195)
   21   O 3265   (ATOM   3265  OE2 GLU A 220)   -1
   22   O 3310   (ATOM   3310  OD2 ASP A 223)   -1  (6.7 Angstroms from cation  N 3469, Label: ATOM   3469  NZ  LYS A 233)
   23   O 3490   (ATOM   3490  OD2 ASP A 234)   -1  (7.1 Angstroms from cation  C  374, Label: ATOM    374  CZ  ARG A  27)
   24   O 3688   (ATOM   3688  OD2 ASP A 248)   -1  (3.9 Angstroms from cation  N   75, Label: ATOM     75  NZ  LYS A   8)
   25   O 3802   (ATOM   3802  OD2 ASP A 256)   -1  (9.1 Angstroms from cation  C 2768, Label: ATOM   2768  CZ  ARG A 185)
   26   O 3883   (ATOM   3883  OD2 ASP A 261)   -1  (5.1 Angstroms from cation  C 3921, Label: ATOM   3921  CE1 HIS A 265)
   27   O 3988   (ATOM   3988  OXT LEU A 269)   -1  (6.5 Angstroms from cation  C 3340, Label: ATOM   3340  CZ  ARG A 225)
   28   O 4002   (HETATM 4002  O2A NAI A1301)   -1  (8.4 Angstroms from cation  C  614, Label: ATOM    614  CZ  ARG A  43)
   29   O 4025   (HETATM 4025  O2N NAI A1301)   -1  (6.9 Angstroms from cation  C 4041, Label: HETATM 4041  C4N NAI A1301)
   30   O 4079   (HETATM 4079  O7  THT A1302)   -1  (4.3 Angstroms from cation  C 4041, Label: HETATM 4041  C4N NAI A1301)
                                                    (4.6 Angstroms from cation  N 2458, Label: ATOM   2458  NZ  LYS A 165)

          COMPUTED CHARGE ON SYSTEM: -5

          TIME USED UP TO RESTART =              26736.92


                         Atoms used in the FORCETS calculation

   1     C(HETATM 4041  C4N NAI A1301)  11.73460816 +1  11.24452938 +1  12.06177761 +1
   2     H(HETATM 4043 H42N NAI A1301)  12.16067254 +1  11.79596467 +1  10.72335946 +1
   3     C(HETATM 4082  C9  THT A1302)  12.89729514 +1  12.32034285 +1   9.71038128 +1
           INITIAL VELOCITY IN DRC (Angstroms/Femtosecond)
         0.00000         0.00000         0.00000
         0.00000         0.00000         0.00000
         0.00000         0.00000         0.00000
         0.00000         0.00000         0.00000
         0.00000         0.00000         0.00000
         0.00000         0.00000         0.00000
         0.00000         0.00000         0.00000
         0.00000         0.00000         0.00000
         0.00000         0.00000         0.00000
         0.00000         0.00000         0.00000
         0.00000         0.00000         0.00000
         0.00000         0.00000         0.00000
         0.00000         0.00000         0.00000
         0.00000         0.00000         0.00000
         0.00000         0.00000         0.00000
         0.00000         0.00000         0.00000
         0.00000         0.00000         0.00000
         0.00000         0.00000         0.00000
         0.00000         0.00000         0.00000
         0.00000         0.00000         0.00000
         0.00000         0.00000         0.00000
         0.00000         0.00000         0.00000
         0.00000         0.00000         0.00000
         0.00000         0.00000         0.00000
         0.00000         0.00000         0.00000
         0.00000         0.00000         0.00000
         0.00000         0.00000         0.00000
         0.00000         0.00000         0.00000
         0.00000         0.00000         0.00000
         0.00000         0.00000         0.00000
         0.00000         0.00000         0.00000
         0.00000         0.00000         0.00000
         0.00000         0.00000         0.00000
         0.00000         0.00000         0.00000
         0.00000         0.00000         0.00000
         0.00000         0.00000         0.00000
         0.00000         0.00000         0.00000
         0.00000         0.00000         0.00000
         0.00000         0.00000         0.00000
         0.00000         0.00000         0.00000
         0.00000         0.00000         0.00000
         0.00000         0.00000         0.00000
         0.00000         0.00000         0.00000
         0.00000         0.00000         0.00000
         0.00000         0.00000         0.00000
         0.00000         0.00000         0.00000
         0.00000         0.00000         0.00000
         0.00000         0.00000         0.00000
         0.00000         0.00000         0.00000
         0.00000         0.00000         0.00000
         0.00000         0.00000         0.00000
         0.00000         0.00000         0.00000
         0.00000         0.00000         0.00000
         0.00000         0.00000         0.00000
         0.00000         0.00000         0.00000
         0.00000         0.00000         0.00000
         0.00000         0.00000         0.00000
         0.00000         0.00000         0.00000
         0.00000         0.00000         0.00000
         0.00000         0.00000         0.00000
         0.00000         0.00000         0.00000
         0.00000         0.00000         0.00000
         0.00000         0.00000         0.00000
         0.00000         0.00000         0.00000
         0.00000         0.00000         0.00000
         0.00000         0.00000         0.00000
         0.00000         0.00000         0.00000
         0.00000         0.00000         0.00000
         0.00000         0.00000         0.00000
         0.00000         0.00000         0.00000
         0.00000         0.00000         0.00000
         0.00000         0.00000         0.00000
         0.00000         0.00000         0.00000
         0.00000         0.00000         0.00000
         0.00000         0.00000         0.00000
         0.00000         0.00000         0.00000
         0.00000         0.00000         0.00000
         0.00000         0.00000         0.00000
         0.00000         0.00000         0.00000
         0.00000         0.00000         0.00000
         0.00000         0.00000         0.00000
         0.00000         0.00000         0.00000
         0.00000         0.00000         0.00000
         0.00000         0.00000         0.00000
         0.00000         0.00000         0.00000
         0.00000         0.00000         0.00000
         0.00000         0.00000         0.00000
         0.00000         0.00000         0.00000
         0.00000         0.00000         0.00000
         0.00000         0.00000         0.00000
         0.00000         0.00000         0.00000
         0.00000         0.00000         0.00000
         0.00000         0.00000         0.00000
         0.00000         0.00000         0.00000
         0.00000         0.00000         0.00000
         0.00000         0.00000         0.00000
         0.00000         0.00000         0.00000
         0.00000         0.00000         0.00000
         0.00000         0.00000         0.00000
         0.00000         0.00000         0.00000
         0.00000         0.00000         0.00000
         0.00000         0.00000         0.00000
         0.00000         0.00000         0.00000
         0.00000         0.00000         0.00000
         0.00000         0.00000         0.00000
         0.00000         0.00000         0.00000
         0.00000         0.00000         0.00000
         0.00000         0.00000         0.00000
         0.00000         0.00000         0.00000
         0.00000         0.00000         0.00000
         0.00000         0.00000         0.00000
         0.00000         0.00000         0.00000
         0.00000         0.00000         0.00000
         0.00000         0.00000         0.00000
         0.00000         0.00000         0.00000
         0.00000         0.00000         0.00000
         0.00000         0.00000         0.00000
         0.00000         0.00000         0.00000
         0.00000         0.00000         0.00000
         0.00000         0.00000         0.00000
         0.00000         0.00000         0.00000
         0.00000         0.00000         0.00000
         0.00000         0.00000         0.00000
         0.00000         0.00000         0.00000
         0.00000         0.00000         0.00000
         0.00000         0.00000         0.00000
         0.00000         0.00000         0.00000
         0.00000         0.00000         0.00000
         0.00000         0.00000         0.00000
         0.00000         0.00000         0.00000
         0.00000         0.00000         0.00000
         0.00000         0.00000         0.00000
         0.00000         0.00000         0.00000
         0.00000         0.00000         0.00000
         0.00000         0.00000         0.00000
         0.00000         0.00000         0.00000
         0.00000         0.00000         0.00000
         0.00000         0.00000         0.00000
         0.00000         0.00000         0.00000
         0.00000         0.00000         0.00000
         0.00000         0.00000         0.00000
         0.00000         0.00000         0.00000
         0.00000         0.00000         0.00000
         0.00000         0.00000         0.00000
         0.00000         0.00000         0.00000
         0.00000         0.00000         0.00000
         0.00000         0.00000         0.00000
         0.00000         0.00000         0.00000
         0.00000         0.00000         0.00000
         0.00000         0.00000         0.00000
         0.00000         0.00000         0.00000
         0.00000         0.00000         0.00000
         0.00000         0.00000         0.00000
         0.00000         0.00000         0.00000
         0.00000         0.00000         0.00000
         0.00000         0.00000         0.00000
         0.00000         0.00000         0.00000
         0.00000         0.00000         0.00000
         0.00000         0.00000         0.00000
         0.00000         0.00000         0.00000
         0.00000         0.00000         0.00000
         0.00000         0.00000         0.00000
         0.00000         0.00000         0.00000
         0.00000         0.00000         0.00000
         0.00000         0.00000         0.00000
         0.00000         0.00000         0.00000
         0.00000         0.00000         0.00000
         0.00000         0.00000         0.00000
         0.00000         0.00000         0.00000
         0.00000         0.00000         0.00000
         0.00000         0.00000         0.00000
         0.00000         0.00000         0.00000
         0.00000         0.00000         0.00000
         0.00000         0.00000         0.00000
         0.00000         0.00000         0.00000
         0.00000         0.00000         0.00000
         0.00000         0.00000         0.00000
         0.00000         0.00000         0.00000
         0.00000         0.00000         0.00000
         0.00000         0.00000         0.00000
         0.00000         0.00000         0.00000
         0.00000         0.00000         0.00000
         0.00000         0.00000         0.00000
         0.00000         0.00000         0.00000
         0.00000         0.00000         0.00000
         0.00000         0.00000         0.00000
         0.00000         0.00000         0.00000
         0.00000         0.00000         0.00000
         0.00000         0.00000         0.00000
         0.00000         0.00000         0.00000
         0.00000         0.00000         0.00000
         0.00000         0.00000         0.00000
         0.00000         0.00000         0.00000
         0.00000         0.00000         0.00000
         0.00000         0.00000         0.00000
         0.00000         0.00000         0.00000
         0.00000         0.00000         0.00000
         0.00000         0.00000         0.00000
         0.00000         0.00000         0.00000
         0.00000         0.00000         0.00000
         0.00000         0.00000         0.00000
         0.00000         0.00000         0.00000
         0.00000         0.00000         0.00000
         0.00000         0.00000         0.00000
         0.00000         0.00000         0.00000
         0.00000         0.00000         0.00000
         0.00000         0.00000         0.00000
         0.00000         0.00000         0.00000
         0.00000         0.00000         0.00000
         0.00000         0.00000         0.00000
         0.00000         0.00000         0.00000
         0.00000         0.00000         0.00000
         0.00000         0.00000         0.00000
         0.00000         0.00000         0.00000
         0.00000         0.00000         0.00000
         0.00000         0.00000         0.00000
         0.00000         0.00000         0.00000
         0.00000         0.00000         0.00000
         0.00000         0.00000         0.00000
         0.00000         0.00000         0.00000
         0.00000         0.00000         0.00000
         0.00000         0.00000         0.00000
         0.00000         0.00000         0.00000
         0.00000         0.00000         0.00000
         0.00000         0.00000         0.00000
         0.00000         0.00000         0.00000
         0.00000         0.00000         0.00000
         0.00000         0.00000         0.00000
         0.00000         0.00000         0.00000
         0.00000         0.00000         0.00000
         0.00000         0.00000         0.00000
         0.00000         0.00000         0.00000
         0.00000         0.00000         0.00000
         0.00000         0.00000         0.00000
         0.00000         0.00000         0.00000
         0.00000         0.00000         0.00000
         0.00000         0.00000         0.00000
         0.00000         0.00000         0.00000
         0.00000         0.00000         0.00000
         0.00000         0.00000         0.00000
         0.00000         0.00000         0.00000
         0.00000         0.00000         0.00000
         0.00000         0.00000         0.00000
         0.00000         0.00000         0.00000
         0.00000         0.00000         0.00000
         0.00000         0.00000         0.00000
         0.00000         0.00000         0.00000
         0.00000         0.00000         0.00000
         0.00000         0.00000         0.00000
         0.00000         0.00000         0.00000
         0.00000         0.00000         0.00000
         0.00000         0.00000         0.00000
         0.00000         0.00000         0.00000
         0.00000         0.00000         0.00000
         0.00000         0.00000         0.00000
         0.00000         0.00000         0.00000
         0.00000         0.00000         0.00000
         0.00000         0.00000         0.00000
         0.00000         0.00000         0.00000
         0.00000         0.00000         0.00000
         0.00000         0.00000         0.00000
         0.00000         0.00000         0.00000
         0.00000         0.00000         0.00000
         0.00000         0.00000         0.00000
         0.00000         0.00000         0.00000
         0.00000         0.00000         0.00000
         0.00000         0.00000         0.00000
         0.00000         0.00000         0.00000
         0.00000         0.00000         0.00000
         0.00000         0.00000         0.00000
         0.00000         0.00000         0.00000
         0.00000         0.00000         0.00000
         0.00000         0.00000         0.00000
         0.00000         0.00000         0.00000
         0.00000         0.00000         0.00000
         0.00000         0.00000         0.00000
         0.00000         0.00000         0.00000
         0.00000         0.00000         0.00000
         0.00000         0.00000         0.00000
         0.00000         0.00000         0.00000
         0.00000         0.00000         0.00000
         0.00000         0.00000         0.00000
         0.00000         0.00000         0.00000
         0.00000         0.00000         0.00000
         0.00000         0.00000         0.00000
         0.00000         0.00000         0.00000
         0.00000         0.00000         0.00000
         0.00000         0.00000         0.00000
         0.00000         0.00000         0.00000
         0.00000         0.00000         0.00000
         0.00000         0.00000         0.00000
         0.00000         0.00000         0.00000
         0.00000         0.00000         0.00000
         0.00000         0.00000         0.00000
         0.00000         0.00000         0.00000
         0.00000         0.00000         0.00000
         0.00000         0.00000         0.00000
         0.00000         0.00000         0.00000
         0.00000         0.00000         0.00000
         0.00000         0.00000         0.00000
         0.00000         0.00000         0.00000
         0.00000         0.00000         0.00000
         0.00000         0.00000         0.00000
         0.00000         0.00000         0.00000
         0.00000         0.00000         0.00000
         0.00000         0.00000         0.00000
         0.00000         0.00000         0.00000
         0.00000         0.00000         0.00000
         0.00000         0.00000         0.00000
         0.00000         0.00000         0.00000
         0.00000         0.00000         0.00000
         0.00000         0.00000         0.00000
         0.00000         0.00000         0.00000
         0.00000         0.00000         0.00000
         0.00000         0.00000         0.00000
         0.00000         0.00000         0.00000
         0.00000         0.00000         0.00000
         0.00000         0.00000         0.00000
         0.00000         0.00000         0.00000
         0.00000         0.00000         0.00000
         0.00000         0.00000         0.00000
         0.00000         0.00000         0.00000
         0.00000         0.00000         0.00000
         0.00000         0.00000         0.00000
         0.00000         0.00000         0.00000
         0.00000         0.00000         0.00000
         0.00000         0.00000         0.00000
         0.00000         0.00000         0.00000
         0.00000         0.00000         0.00000
         0.00000         0.00000         0.00000
         0.00000         0.00000         0.00000
         0.00000         0.00000         0.00000
         0.00000         0.00000         0.00000
         0.00000         0.00000         0.00000
         0.00000         0.00000         0.00000
         0.00000         0.00000         0.00000
         0.00000         0.00000         0.00000
         0.00000         0.00000         0.00000
         0.00000         0.00000         0.00000
         0.00000         0.00000         0.00000
         0.00000         0.00000         0.00000
         0.00000         0.00000         0.00000
         0.00000         0.00000         0.00000
         0.00000         0.00000         0.00000
         0.00000         0.00000         0.00000
         0.00000         0.00000         0.00000
         0.00000         0.00000         0.00000
         0.00000         0.00000         0.00000
         0.00000         0.00000         0.00000
         0.00000         0.00000         0.00000
         0.00000         0.00000         0.00000
         0.00000         0.00000         0.00000
         0.00000         0.00000         0.00000
         0.00000         0.00000         0.00000
         0.00000         0.00000         0.00000
         0.00000         0.00000         0.00000
         0.00000         0.00000         0.00000
         0.00000         0.00000         0.00000
         0.00000         0.00000         0.00000
         0.00000         0.00000         0.00000
         0.00000         0.00000         0.00000
         0.00000         0.00000         0.00000
         0.00000         0.00000         0.00000
         0.00000         0.00000         0.00000
         0.00000         0.00000         0.00000
         0.00000         0.00000         0.00000
         0.00000         0.00000         0.00000
         0.00000         0.00000         0.00000
         0.00000         0.00000         0.00000
         0.00000         0.00000         0.00000
         0.00000         0.00000         0.00000
         0.00000         0.00000         0.00000
         0.00000         0.00000         0.00000
         0.00000         0.00000         0.00000
         0.00000         0.00000         0.00000
         0.00000         0.00000         0.00000
         0.00000         0.00000         0.00000
         0.00000         0.00000         0.00000
         0.00000         0.00000         0.00000
         0.00000         0.00000         0.00000
         0.00000         0.00000         0.00000
         0.00000         0.00000         0.00000
         0.00000         0.00000         0.00000
         0.00000         0.00000         0.00000
         0.00000         0.00000         0.00000
         0.00000         0.00000         0.00000
         0.00000         0.00000         0.00000
         0.00000         0.00000         0.00000
         0.00000         0.00000         0.00000
         0.00000         0.00000         0.00000
         0.00000         0.00000         0.00000
         0.00000         0.00000         0.00000
         0.00000         0.00000         0.00000
         0.00000         0.00000         0.00000
         0.00000         0.00000         0.00000
         0.00000         0.00000         0.00000
         0.00000         0.00000         0.00000
         0.00000         0.00000         0.00000
         0.00000         0.00000         0.00000
         0.00000         0.00000         0.00000
         0.00000         0.00000         0.00000
         0.00000         0.00000         0.00000
         0.00000         0.00000         0.00000
         0.00000         0.00000         0.00000
         0.00000         0.00000         0.00000
         0.00000         0.00000         0.00000
         0.00000         0.00000         0.00000
         0.00000         0.00000         0.00000
         0.00000         0.00000         0.00000
         0.00000         0.00000         0.00000
         0.00000         0.00000         0.00000
         0.00000         0.00000         0.00000
         0.00000         0.00000         0.00000
         0.00000         0.00000         0.00000
         0.00000         0.00000         0.00000
         0.00000         0.00000         0.00000
         0.00000         0.00000         0.00000
         0.00000         0.00000         0.00000
         0.00000         0.00000         0.00000
         0.00000         0.00000         0.00000
         0.00000         0.00000         0.00000
         0.00000         0.00000         0.00000
         0.00000         0.00000         0.00000
         0.00000         0.00000         0.00000
         0.00000         0.00000         0.00000
         0.00000         0.00000         0.00000
         0.00000         0.00000         0.00000
         0.00000         0.00000         0.00000
         0.00000         0.00000         0.00000
         0.00000         0.00000         0.00000
         0.00000         0.00000         0.00000
         0.00000         0.00000         0.00000
         0.00000         0.00000         0.00000
         0.00000         0.00000         0.00000
         0.00000         0.00000         0.00000
         0.00000         0.00000         0.00000
         0.00000         0.00000         0.00000
         0.00000         0.00000         0.00000
         0.00000         0.00000         0.00000
         0.00000         0.00000         0.00000
         0.00000         0.00000         0.00000
         0.00000         0.00000         0.00000
         0.00000         0.00000         0.00000
         0.00000         0.00000         0.00000
         0.00000         0.00000         0.00000
         0.00000         0.00000         0.00000
         0.00000         0.00000         0.00000
         0.00000         0.00000         0.00000
         0.00000         0.00000         0.00000
         0.00000         0.00000         0.00000
         0.00000         0.00000         0.00000
         0.00000         0.00000         0.00000
         0.00000         0.00000         0.00000
         0.00000         0.00000         0.00000
         0.00000         0.00000         0.00000
         0.00000         0.00000         0.00000
         0.00000         0.00000         0.00000
         0.00000         0.00000         0.00000
         0.00000         0.00000         0.00000
         0.00000         0.00000         0.00000
         0.00000         0.00000         0.00000
         0.00000         0.00000         0.00000
         0.00000         0.00000         0.00000
         0.00000         0.00000         0.00000
         0.00000         0.00000         0.00000
         0.00000         0.00000         0.00000
         0.00000         0.00000         0.00000
         0.00000         0.00000         0.00000
         0.00000         0.00000         0.00000
         0.00000         0.00000         0.00000
         0.00000         0.00000         0.00000
         0.00000         0.00000         0.00000
         0.00000         0.00000         0.00000
         0.00000         0.00000         0.00000
         0.00000         0.00000         0.00000
         0.00000         0.00000         0.00000
         0.00000         0.00000         0.00000
         0.00000         0.00000         0.00000
         0.00000         0.00000         0.00000
         0.00000         0.00000         0.00000
         0.00000         0.00000         0.00000
         0.00000         0.00000         0.00000
         0.00000         0.00000         0.00000
         0.00000         0.00000         0.00000
         0.00000         0.00000         0.00000
         0.00000         0.00000         0.00000
         0.00000         0.00000         0.00000
         0.00000         0.00000         0.00000
         0.00000         0.00000         0.00000
         0.00000         0.00000         0.00000
         0.00000         0.00000         0.00000
         0.00000         0.00000         0.00000
         0.00000         0.00000         0.00000
         0.00000         0.00000         0.00000
         0.00000         0.00000         0.00000
         0.00000         0.00000         0.00000
         0.00000         0.00000         0.00000
         0.00000         0.00000         0.00000
         0.00000         0.00000         0.00000
         0.00000         0.00000         0.00000
         0.00000         0.00000         0.00000
         0.00000         0.00000         0.00000
         0.00000         0.00000         0.00000
         0.00000         0.00000         0.00000
         0.00000         0.00000         0.00000
         0.00000         0.00000         0.00000
         0.00000         0.00000         0.00000
         0.00000         0.00000         0.00000
         0.00000         0.00000         0.00000
         0.00000         0.00000         0.00000
         0.00000         0.00000         0.00000
         0.00000         0.00000         0.00000
         0.00000         0.00000         0.00000
         0.00000         0.00000         0.00000
         0.00000         0.00000         0.00000
         0.00000         0.00000         0.00000
         0.00000         0.00000         0.00000
         0.00000         0.00000         0.00000
         0.00000         0.00000         0.00000
         0.00000         0.00000         0.00000
         0.00000         0.00000         0.00000
         0.00000         0.00000         0.00000
         0.00000         0.00000         0.00000
         0.00000         0.00000         0.00000
         0.00000         0.00000         0.00000
         0.00000         0.00000         0.00000
         0.00000         0.00000         0.00000
         0.00000         0.00000         0.00000
         0.00000         0.00000         0.00000
         0.00000         0.00000         0.00000
         0.00000         0.00000         0.00000
         0.00000         0.00000         0.00000
         0.00000         0.00000         0.00000
         0.00000         0.00000         0.00000
         0.00000         0.00000         0.00000
         0.00000         0.00000         0.00000
         0.00000         0.00000         0.00000
         0.00000         0.00000         0.00000
         0.00000         0.00000         0.00000
         0.00000         0.00000         0.00000
         0.00000         0.00000         0.00000
         0.00000         0.00000         0.00000
         0.00000         0.00000         0.00000
         0.00000         0.00000         0.00000
         0.00000         0.00000         0.00000
         0.00000         0.00000         0.00000
         0.00000         0.00000         0.00000
         0.00000         0.00000         0.00000
         0.00000         0.00000         0.00000
         0.00000         0.00000         0.00000
         0.00000         0.00000         0.00000
         0.00000         0.00000         0.00000
         0.00000         0.00000         0.00000
         0.00000         0.00000         0.00000
         0.00000         0.00000         0.00000
         0.00000         0.00000         0.00000
         0.00000         0.00000         0.00000
         0.00000         0.00000         0.00000
         0.00000         0.00000         0.00000
         0.00000         0.00000         0.00000
         0.00000         0.00000         0.00000
         0.00000         0.00000         0.00000
         0.00000         0.00000         0.00000
         0.00000         0.00000         0.00000
         0.00000         0.00000         0.00000
         0.00000         0.00000         0.00000
         0.00000         0.00000         0.00000
         0.00000         0.00000         0.00000
         0.00000         0.00000         0.00000
         0.00000         0.00000         0.00000
         0.00000         0.00000         0.00000
         0.00000         0.00000         0.00000
         0.00000         0.00000         0.00000
         0.00000         0.00000         0.00000
         0.00000         0.00000         0.00000
         0.00000         0.00000         0.00000
         0.00000         0.00000         0.00000
         0.00000         0.00000         0.00000
         0.00000         0.00000         0.00000
         0.00000         0.00000         0.00000
         0.00000         0.00000         0.00000
         0.00000         0.00000         0.00000
         0.00000         0.00000         0.00000
         0.00000         0.00000         0.00000
         0.00000         0.00000         0.00000
         0.00000         0.00000         0.00000
         0.00000         0.00000         0.00000
         0.00000         0.00000         0.00000
         0.00000         0.00000         0.00000
         0.00000         0.00000         0.00000
         0.00000         0.00000         0.00000
         0.00000         0.00000         0.00000
         0.00000         0.00000         0.00000
         0.00000         0.00000         0.00000
         0.00000         0.00000         0.00000
         0.00000         0.00000         0.00000
         0.00000         0.00000         0.00000
         0.00000         0.00000         0.00000
         0.00000         0.00000         0.00000
         0.00000         0.00000         0.00000
         0.00000         0.00000         0.00000
         0.00000         0.00000         0.00000
         0.00000         0.00000         0.00000
         0.00000         0.00000         0.00000
         0.00000         0.00000         0.00000
         0.00000         0.00000         0.00000
         0.00000         0.00000         0.00000
         0.00000         0.00000         0.00000
         0.00000         0.00000         0.00000
         0.00000         0.00000         0.00000
         0.00000         0.00000         0.00000
         0.00000         0.00000         0.00000
         0.00000         0.00000         0.00000
         0.00000         0.00000         0.00000
         0.00000         0.00000         0.00000
         0.00000         0.00000         0.00000
         0.00000         0.00000         0.00000
         0.00000         0.00000         0.00000
         0.00000         0.00000         0.00000
         0.00000         0.00000         0.00000
         0.00000         0.00000         0.00000
         0.00000         0.00000         0.00000
         0.00000         0.00000         0.00000
         0.00000         0.00000         0.00000
         0.00000         0.00000         0.00000
         0.00000         0.00000         0.00000
         0.00000         0.00000         0.00000
         0.00000         0.00000         0.00000
         0.00000         0.00000         0.00000
         0.00000         0.00000         0.00000
         0.00000         0.00000         0.00000
         0.00000         0.00000         0.00000
         0.00000         0.00000         0.00000
         0.00000         0.00000         0.00000
         0.00000         0.00000         0.00000
         0.00000         0.00000         0.00000
         0.00000         0.00000         0.00000
         0.00000         0.00000         0.00000
         0.00000         0.00000         0.00000
         0.00000         0.00000         0.00000
         0.00000         0.00000         0.00000
         0.00000         0.00000         0.00000
         0.00000         0.00000         0.00000
         0.00000         0.00000         0.00000
         0.00000         0.00000         0.00000
         0.00000         0.00000         0.00000
         0.00000         0.00000         0.00000
         0.00000         0.00000         0.00000
         0.00000         0.00000         0.00000
         0.00000         0.00000         0.00000
         0.00000         0.00000         0.00000
         0.00000         0.00000         0.00000
         0.00000         0.00000         0.00000
         0.00000         0.00000         0.00000
         0.00000         0.00000         0.00000
         0.00000         0.00000         0.00000
         0.00000         0.00000         0.00000
         0.00000         0.00000         0.00000
         0.00000         0.00000         0.00000
         0.00000         0.00000         0.00000
         0.00000         0.00000         0.00000
         0.00000         0.00000         0.00000
         0.00000         0.00000         0.00000
         0.00000         0.00000         0.00000
         0.00000         0.00000         0.00000
         0.00000         0.00000         0.00000
         0.00000         0.00000         0.00000
         0.00000         0.00000         0.00000
         0.00000         0.00000         0.00000
         0.00000         0.00000         0.00000
         0.00000         0.00000         0.00000
         0.00000         0.00000         0.00000
         0.00000         0.00000         0.00000
         0.00000         0.00000         0.00000
         0.00000         0.00000         0.00000
         0.00000         0.00000         0.00000
         0.00000         0.00000         0.00000
         0.00000         0.00000         0.00000
         0.00000         0.00000         0.00000
         0.00000         0.00000         0.00000
         0.00000         0.00000         0.00000
         0.00000         0.00000         0.00000
         0.00000         0.00000         0.00000
         0.00000         0.00000         0.00000
         0.00000         0.00000         0.00000
         0.00000         0.00000         0.00000
         0.00000         0.00000         0.00000
         0.00000         0.00000         0.00000
         0.00000         0.00000         0.00000
         0.00000         0.00000         0.00000
         0.00000         0.00000         0.00000
         0.00000         0.00000         0.00000
         0.00000         0.00000         0.00000
         0.00000         0.00000         0.00000
         0.00000         0.00000         0.00000
         0.00000         0.00000         0.00000
         0.00000         0.00000         0.00000
         0.00000         0.00000         0.00000
         0.00000         0.00000         0.00000
         0.00000         0.00000         0.00000
         0.00000         0.00000         0.00000
         0.00000         0.00000         0.00000
         0.00000         0.00000         0.00000
         0.00000         0.00000         0.00000
         0.00000         0.00000         0.00000
         0.00000         0.00000         0.00000
         0.00000         0.00000         0.00000
         0.00000         0.00000         0.00000
         0.00000         0.00000         0.00000
         0.00000         0.00000         0.00000
         0.00000         0.00000         0.00000
         0.00000         0.00000         0.00000
         0.00000         0.00000         0.00000
         0.00000         0.00000         0.00000
         0.00000         0.00000         0.00000
         0.00000         0.00000         0.00000
         0.00000         0.00000         0.00000
         0.00000         0.00000         0.00000
         0.00000         0.00000         0.00000
         0.00000         0.00000         0.00000
         0.00000         0.00000         0.00000
         0.00000         0.00000         0.00000
         0.00000         0.00000         0.00000
         0.00000         0.00000         0.00000
         0.00000         0.00000         0.00000
         0.00000         0.00000         0.00000
         0.00000         0.00000         0.00000
         0.00000         0.00000         0.00000
         0.00000         0.00000         0.00000
         0.00000         0.00000         0.00000
         0.00000         0.00000         0.00000
         0.00000         0.00000         0.00000
         0.00000         0.00000         0.00000
         0.00000         0.00000         0.00000
         0.00000         0.00000         0.00000
         0.00000         0.00000         0.00000
         0.00000         0.00000         0.00000
         0.00000         0.00000         0.00000
         0.00000         0.00000         0.00000
         0.00000         0.00000         0.00000
         0.00000         0.00000         0.00000
         0.00000         0.00000         0.00000
         0.00000         0.00000         0.00000
         0.00000         0.00000         0.00000
         0.00000         0.00000         0.00000
         0.00000         0.00000         0.00000
         0.00000         0.00000         0.00000
         0.00000         0.00000         0.00000
         0.00000         0.00000         0.00000
         0.00000         0.00000         0.00000
         0.00000         0.00000         0.00000
         0.00000         0.00000         0.00000
         0.00000         0.00000         0.00000
         0.00000         0.00000         0.00000
         0.00000         0.00000         0.00000
         0.00000         0.00000         0.00000
         0.00000         0.00000         0.00000
         0.00000         0.00000         0.00000
         0.00000         0.00000         0.00000
         0.00000         0.00000         0.00000
         0.00000         0.00000         0.00000
         0.00000         0.00000         0.00000
         0.00000         0.00000         0.00000
         0.00000         0.00000         0.00000
         0.00000         0.00000         0.00000
         0.00000         0.00000         0.00000
         0.00000         0.00000         0.00000
         0.00000         0.00000         0.00000
         0.00000         0.00000         0.00000
         0.00000         0.00000         0.00000
         0.00000         0.00000         0.00000
         0.00000         0.00000         0.00000
         0.00000         0.00000         0.00000
         0.00000         0.00000         0.00000
         0.00000         0.00000         0.00000
         0.00000         0.00000         0.00000
         0.00000         0.00000         0.00000
         0.00000         0.00000         0.00000
         0.00000         0.00000         0.00000
         0.00000         0.00000         0.00000
         0.00000         0.00000         0.00000
         0.00000         0.00000         0.00000
         0.00000         0.00000         0.00000
         0.00000         0.00000         0.00000
         0.00000         0.00000         0.00000
         0.00000         0.00000         0.00000
         0.00000         0.00000         0.00000
         0.00000         0.00000         0.00000
         0.00000         0.00000         0.00000
         0.00000         0.00000         0.00000
         0.00000         0.00000         0.00000
         0.00000         0.00000         0.00000
         0.00000         0.00000         0.00000
         0.00000         0.00000         0.00000
         0.00000         0.00000         0.00000
         0.00000         0.00000         0.00000
         0.00000         0.00000         0.00000
         0.00000         0.00000         0.00000
         0.00000         0.00000         0.00000
         0.00000         0.00000         0.00000
         0.00000         0.00000         0.00000
         0.00000         0.00000         0.00000
         0.00000         0.00000         0.00000
         0.00000         0.00000         0.00000
         0.00000         0.00000         0.00000
         0.00000         0.00000         0.00000
         0.00000         0.00000         0.00000
         0.00000         0.00000         0.00000
         0.00000         0.00000         0.00000
         0.00000         0.00000         0.00000
         0.00000         0.00000         0.00000
         0.00000         0.00000         0.00000
         0.00000         0.00000         0.00000
         0.00000         0.00000         0.00000
         0.00000         0.00000         0.00000
         0.00000         0.00000         0.00000
         0.00000         0.00000         0.00000
         0.00000         0.00000         0.00000
         0.00000         0.00000         0.00000
         0.00000         0.00000         0.00000
         0.00000         0.00000         0.00000
         0.00000         0.00000         0.00000
         0.00000         0.00000         0.00000
         0.00000         0.00000         0.00000
         0.00000         0.00000         0.00000
         0.00000         0.00000         0.00000
         0.00000         0.00000         0.00000
         0.00000         0.00000         0.00000
         0.00000         0.00000         0.00000
         0.00000         0.00000         0.00000
         0.00000         0.00000         0.00000
         0.00000         0.00000         0.00000
         0.00000         0.00000         0.00000
         0.00000         0.00000         0.00000
         0.00000         0.00000         0.00000
         0.00000         0.00000         0.00000
         0.00000         0.00000         0.00000
         0.00000         0.00000         0.00000
         0.00000         0.00000         0.00000
         0.00000         0.00000         0.00000
         0.00000         0.00000         0.00000
         0.00000         0.00000         0.00000
         0.00000         0.00000         0.00000
         0.00000         0.00000         0.00000
         0.00000         0.00000         0.00000
         0.00000         0.00000         0.00000
         0.00000         0.00000         0.00000
         0.00000         0.00000         0.00000
         0.00000         0.00000         0.00000
         0.00000         0.00000         0.00000
         0.00000         0.00000         0.00000
         0.00000         0.00000         0.00000
         0.00000         0.00000         0.00000
         0.00000         0.00000         0.00000
         0.00000         0.00000         0.00000
         0.00000         0.00000         0.00000
         0.00000         0.00000         0.00000
         0.00000         0.00000         0.00000
         0.00000         0.00000         0.00000
         0.00000         0.00000         0.00000
         0.00000         0.00000         0.00000
         0.00000         0.00000         0.00000
         0.00000         0.00000         0.00000
         0.00000         0.00000         0.00000
         0.00000         0.00000         0.00000
         0.00000         0.00000         0.00000
         0.00000         0.00000         0.00000
         0.00000         0.00000         0.00000
         0.00000         0.00000         0.00000
         0.00000         0.00000         0.00000
         0.00000         0.00000         0.00000
         0.00000         0.00000         0.00000
         0.00000         0.00000         0.00000
         0.00000         0.00000         0.00000
         0.00000         0.00000         0.00000
         0.00000         0.00000         0.00000
         0.00000         0.00000         0.00000
         0.00000         0.00000         0.00000
         0.00000         0.00000         0.00000
         0.00000         0.00000         0.00000
         0.00000         0.00000         0.00000
         0.00000         0.00000         0.00000
         0.00000         0.00000         0.00000
         0.00000         0.00000         0.00000
         0.00000         0.00000         0.00000
         0.00000         0.00000         0.00000
         0.00000         0.00000         0.00000
         0.00000         0.00000         0.00000
         0.00000         0.00000         0.00000
         0.00000         0.00000         0.00000
         0.00000         0.00000         0.00000
         0.00000         0.00000         0.00000
         0.00000         0.00000         0.00000
         0.00000         0.00000         0.00000
         0.00000         0.00000         0.00000
         0.00000         0.00000         0.00000
         0.00000         0.00000         0.00000
         0.00000         0.00000         0.00000
         0.00000         0.00000         0.00000
         0.00000         0.00000         0.00000
         0.00000         0.00000         0.00000
         0.00000         0.00000         0.00000
         0.00000         0.00000         0.00000
         0.00000         0.00000         0.00000
         0.00000         0.00000         0.00000
         0.00000         0.00000         0.00000
         0.00000         0.00000         0.00000
         0.00000         0.00000         0.00000
         0.00000         0.00000         0.00000
         0.00000         0.00000         0.00000
         0.00000         0.00000         0.00000
         0.00000         0.00000         0.00000
         0.00000         0.00000         0.00000
         0.00000         0.00000         0.00000
         0.00000         0.00000         0.00000
         0.00000         0.00000         0.00000
         0.00000         0.00000         0.00000
         0.00000         0.00000         0.00000
         0.00000         0.00000         0.00000
         0.00000         0.00000         0.00000
         0.00000         0.00000         0.00000
         0.00000         0.00000         0.00000
         0.00000         0.00000         0.00000
         0.00000         0.00000         0.00000
         0.00000         0.00000         0.00000
         0.00000         0.00000         0.00000
         0.00000         0.00000         0.00000
         0.00000         0.00000         0.00000
         0.00000         0.00000         0.00000
         0.00000         0.00000         0.00000
         0.00000         0.00000         0.00000
         0.00000         0.00000         0.00000
         0.00000         0.00000         0.00000
         0.00000         0.00000         0.00000
         0.00000         0.00000         0.00000
         0.00000         0.00000         0.00000
         0.00000         0.00000         0.00000
         0.00000         0.00000         0.00000
         0.00000         0.00000         0.00000
         0.00000         0.00000         0.00000
         0.00000         0.00000         0.00000
         0.00000         0.00000         0.00000
         0.00000         0.00000         0.00000
         0.00000         0.00000         0.00000
         0.00000         0.00000         0.00000
         0.00000         0.00000         0.00000
         0.00000         0.00000         0.00000
         0.00000         0.00000         0.00000
         0.00000         0.00000         0.00000
         0.00000         0.00000         0.00000
         0.00000         0.00000         0.00000
         0.00000         0.00000         0.00000
         0.00000         0.00000         0.00000
         0.00000         0.00000         0.00000
         0.00000         0.00000         0.00000
         0.00000         0.00000         0.00000
         0.00000         0.00000         0.00000
         0.00000         0.00000         0.00000
         0.00000         0.00000         0.00000
         0.00000         0.00000         0.00000
         0.00000         0.00000         0.00000
         0.00000         0.00000         0.00000
         0.00000         0.00000         0.00000
         0.00000         0.00000         0.00000
         0.00000         0.00000         0.00000
         0.00000         0.00000         0.00000
         0.00000         0.00000         0.00000
         0.00000         0.00000         0.00000
         0.00000         0.00000         0.00000
         0.00000         0.00000         0.00000
         0.00000         0.00000         0.00000
         0.00000         0.00000         0.00000
         0.00000         0.00000         0.00000
         0.00000         0.00000         0.00000
         0.00000         0.00000         0.00000
         0.00000         0.00000         0.00000
         0.00000         0.00000         0.00000
         0.00000         0.00000         0.00000
         0.00000         0.00000         0.00000
         0.00000         0.00000         0.00000
         0.00000         0.00000         0.00000
         0.00000         0.00000         0.00000
         0.00000         0.00000         0.00000
         0.00000         0.00000         0.00000
         0.00000         0.00000         0.00000
         0.00000         0.00000         0.00000
         0.00000         0.00000         0.00000
         0.00000         0.00000         0.00000
         0.00000         0.00000         0.00000
         0.00000         0.00000         0.00000
         0.00000         0.00000         0.00000
         0.00000         0.00000         0.00000
         0.00000         0.00000         0.00000
         0.00000         0.00000         0.00000
         0.00000         0.00000         0.00000
         0.00000         0.00000         0.00000
         0.00000         0.00000         0.00000
         0.00000         0.00000         0.00000
         0.00000         0.00000         0.00000
         0.00000         0.00000         0.00000
         0.00000         0.00000         0.00000
         0.00000         0.00000         0.00000
         0.00000         0.00000         0.00000
         0.00000         0.00000         0.00000
         0.00000         0.00000         0.00000
         0.00000         0.00000         0.00000
         0.00000         0.00000         0.00000
         0.00000         0.00000         0.00000
         0.00000         0.00000         0.00000
         0.00000         0.00000         0.00000
         0.00000         0.00000         0.00000
         0.00000         0.00000         0.00000
         0.00000         0.00000         0.00000
         0.00000         0.00000         0.00000
         0.00000         0.00000         0.00000
         0.00000         0.00000         0.00000
         0.00000         0.00000         0.00000
         0.00000         0.00000         0.00000
         0.00000         0.00000         0.00000
         0.00000         0.00000         0.00000
         0.00000         0.00000         0.00000
         0.00000         0.00000         0.00000
         0.00000         0.00000         0.00000
         0.00000         0.00000         0.00000
         0.00000         0.00000         0.00000
         0.00000         0.00000         0.00000
         0.00000         0.00000         0.00000
         0.00000         0.00000         0.00000
         0.00000         0.00000         0.00000
         0.00000         0.00000         0.00000
         0.00000         0.00000         0.00000
         0.00000         0.00000         0.00000
         0.00000         0.00000         0.00000
         0.00000         0.00000         0.00000
         0.00000         0.00000         0.00000
         0.00000         0.00000         0.00000
         0.00000         0.00000         0.00000
         0.00000         0.00000         0.00000
         0.00000         0.00000         0.00000
         0.00000         0.00000         0.00000
         0.00000         0.00000         0.00000
         0.00000         0.00000         0.00000
         0.00000         0.00000         0.00000
         0.00000         0.00000         0.00000
         0.00000         0.00000         0.00000
         0.00000         0.00000         0.00000
         0.00000         0.00000         0.00000
         0.00000         0.00000         0.00000
         0.00000         0.00000         0.00000
         0.00000         0.00000         0.00000
         0.00000         0.00000         0.00000
         0.00000         0.00000         0.00000
         0.00000         0.00000         0.00000
         0.00000         0.00000         0.00000
         0.00000         0.00000         0.00000
         0.00000         0.00000         0.00000
         0.00000         0.00000         0.00000
         0.00000         0.00000         0.00000
         0.00000         0.00000         0.00000
         0.00000         0.00000         0.00000
         0.00000         0.00000         0.00000
         0.00000         0.00000         0.00000
         0.00000         0.00000         0.00000
         0.00000         0.00000         0.00000
         0.00000         0.00000         0.00000
         0.00000         0.00000         0.00000
         0.00000         0.00000         0.00000
         0.00000         0.00000         0.00000
         0.00000         0.00000         0.00000
         0.00000         0.00000         0.00000
         0.00000         0.00000         0.00000
         0.00000         0.00000         0.00000
         0.00000         0.00000         0.00000
         0.00000         0.00000         0.00000
         0.00000         0.00000         0.00000
         0.00000         0.00000         0.00000
         0.00000         0.00000         0.00000
         0.00000         0.00000         0.00000
         0.00000         0.00000         0.00000
         0.00000         0.00000         0.00000
         0.00000         0.00000         0.00000
         0.00000         0.00000         0.00000
         0.00000         0.00000         0.00000
         0.00000         0.00000         0.00000
         0.00000         0.00000         0.00000
         0.00000         0.00000         0.00000
         0.00000         0.00000         0.00000
         0.00000         0.00000         0.00000
         0.00000         0.00000         0.00000
         0.00000         0.00000         0.00000
         0.00000         0.00000         0.00000
         0.00000         0.00000         0.00000
         0.00000         0.00000         0.00000
         0.00000         0.00000         0.00000
         0.00000         0.00000         0.00000
         0.00000         0.00000         0.00000
         0.00000         0.00000         0.00000
         0.00000         0.00000         0.00000
         0.00000         0.00000         0.00000
         0.00000         0.00000         0.00000
         0.00000         0.00000         0.00000
         0.00000         0.00000         0.00000
         0.00000         0.00000         0.00000
         0.00000         0.00000         0.00000
         0.00000         0.00000         0.00000
         0.00000         0.00000         0.00000
         0.00000         0.00000         0.00000
         0.00000         0.00000         0.00000
         0.00000         0.00000         0.00000
         0.00000         0.00000         0.00000
         0.00000         0.00000         0.00000
         0.00000         0.00000         0.00000
         0.00000         0.00000         0.00000
         0.00000         0.00000         0.00000
         0.00000         0.00000         0.00000
         0.00000         0.00000         0.00000
         0.00000         0.00000         0.00000
         0.00000         0.00000         0.00000
         0.00000         0.00000         0.00000
         0.00000         0.00000         0.00000
         0.00000         0.00000         0.00000
         0.00000         0.00000         0.00000
         0.00000         0.00000         0.00000
         0.00000         0.00000         0.00000
         0.00000         0.00000         0.00000
         0.00000         0.00000         0.00000
         0.00000         0.00000         0.00000
         0.00000         0.00000         0.00000
         0.00000         0.00000         0.00000
         0.00000         0.00000         0.00000
         0.00000         0.00000         0.00000
         0.00000         0.00000         0.00000
         0.00000         0.00000         0.00000
         0.00000         0.00000         0.00000
         0.00000         0.00000         0.00000
         0.00000         0.00000         0.00000
         0.00000         0.00000         0.00000
         0.00000         0.00000         0.00000
         0.00000         0.00000         0.00000
         0.00000         0.00000         0.00000
         0.00000         0.00000         0.00000
         0.00000         0.00000         0.00000
         0.00000         0.00000         0.00000
         0.00000         0.00000         0.00000
         0.00000         0.00000         0.00000
         0.00000         0.00000         0.00000
         0.00000         0.00000         0.00000
         0.00000         0.00000         0.00000
         0.00000         0.00000         0.00000
         0.00000         0.00000         0.00000
         0.00000         0.00000         0.00000
         0.00000         0.00000         0.00000
         0.00000         0.00000         0.00000
         0.00000         0.00000         0.00000
         0.00000         0.00000         0.00000
         0.00000         0.00000         0.00000
         0.00000         0.00000         0.00000
         0.00000         0.00000         0.00000
         0.00000         0.00000         0.00000
[...]
     176    -32944.771     28.75623     -32916.01525  10.75341   141   %  6.4037
     177    -32945.119     28.85469     -32916.26421  10.50445   142   %  6.4264
     178    -32944.276     28.96225     -32915.31383  11.45483   143   %  6.4526
     179    -32945.067     29.05555     -32916.01190  10.75676   144   %  6.4767
     181    -32945.107     29.26011     -32915.84683  10.92183   145   %  6.5260
     182    -32944.708     29.36117     -32915.34658  11.42208   146   %  6.5476
     183    -32944.951     29.45633     -32915.49494  11.27372   147   %  6.5685
     184    -32944.936     29.55505     -32915.38076  11.38790   148   %  6.5991
     185    -32945.391     29.65674     -32915.73376  11.03489   149   %  6.6204
     186    -32944.937     29.76418     -32915.17308  11.59558   150   %  6.6479
     187    -32945.093     29.94189     -32915.15145  11.61720   151   %  6.6859
     188    -32945.046     29.96923     -32915.07675  11.69191   152   %  6.6932
     189    -32944.837     30.07035     -32914.76700  12.00166   153   %  6.7191
     191    -32945.329     30.28635     -32915.04296  11.72570   154   %  6.7647
     192    -32944.771     30.39893     -32914.37255  12.39611   155   %  6.7859
     193    -32945.555     30.49364     -32915.06163  11.70703   156   %  6.8124
     194    -32945.272     30.65316     -32914.61899  12.14966   157   %  6.8521
     195    -32945.317     30.68770     -32914.62934  12.13932   158   %  6.8597
     196    -32944.795     30.79257     -32914.00293  12.76573   159   %  6.8815
     198    -32945.429     30.97770     -32914.45127  12.31739   160   %  6.9300
     199    -32945.173     31.06842     -32914.10436  12.66430   161   %  6.9566
     200    -32944.879     31.16482     -32913.71454  13.05412   162   %  6.9774
     201    -32945.375     31.26696     -32914.10836  12.66030   163   %  7.0026
     202    -32945.179     31.35857     -32913.82026  12.94840   164   %  7.0257
     203    -32945.315     31.51283     -32913.80221  12.96645   165   %  7.0669
     204    -32945.347     31.54205     -32913.80525  12.96341   166   %  7.0736
     205    -32945.394     31.62909     -32913.76451  13.00415   167   %  7.1009
     207    -32945.718     31.82931     -32913.88907  12.87959   168   %  7.1430
     208    -32944.848     31.93809     -32912.91006  13.85860   169   %  7.1706
     209    -32945.541     32.05597     -32913.48489  13.28377   170   %  7.1951
     210    -32945.403     32.16991     -32913.23292  13.53574   171   %  7.2151
     211    -32945.731     32.28566     -32913.44582  13.32284   172   %  7.2359
     212    -32945.598     32.38802     -32913.21002  13.55864   173   %  7.2620
     213    -32945.050     32.48195     -32912.56772  14.20094   174   %  7.2876
     215    -32945.630     32.67088     -32912.95932  13.80933   175   %  7.3296
     216    -32945.220     32.75416     -32912.46618  14.30248   176   %  7.3548
     217    -32945.388     32.83329     -32912.55489  14.21377   177   %  7.3798
     218    -32945.312     32.91667     -32912.39520  14.37346   178   %  7.4074
     219    -32945.733     33.09953     -32912.63330  14.13536   179   %  7.4428
     220    -32945.804     33.11159     -32912.69253  14.07613   180   %  7.4458
     222    -32945.291     33.29273     -32911.99778  14.77088   181   %  7.4983
     223    -32945.313     33.46738     -32911.84534  14.92332   182   %  7.5232
     224    -32945.351     33.50405     -32911.84655  14.92211   183   %  7.5284
     226    -32945.823     33.69508     -32912.12822  14.64044   184   %  7.5829
     227    -32945.434     33.77730     -32911.65671  15.11195   185   %  7.6071
     228    -32945.276     33.87858     -32911.39746  15.37119   186   %  7.6195
     229    -32945.447     33.97872     -32911.46861  15.30005   187   %  7.6394
     230    -32945.718     34.07010     -32911.64820  15.12046   188   %  7.6652
     232    -32945.346     34.23963     -32911.10622  15.66244   189   %  7.7168
     233    -32945.596     34.32652     -32911.26978  15.49888   190   %  7.7351
     234    -32944.965     34.42085     -32910.54430  16.22436   191   %  7.7569
     235    -32946.057     34.51159     -32911.54506  15.22360   192   %  7.7824
     236    -32945.687     34.60157     -32911.08520  15.68345   193   %  7.8064
     237    -32945.596     34.68912     -32910.90657  15.86209   194   %  7.8325
     239    -32945.996     34.90713     -32911.08862  15.68004   195   %  7.8717
     240    -32945.497     35.05831     -32910.43914  16.32952   196   %  7.9050
     241    -32946.274     35.12633     -32911.14772  15.62094   197   %  7.9191
     242    -32945.273     35.22799     -32910.04522  16.72344   198   %  7.9528
     243    -32945.527     35.32650     -32910.20083  16.56783   199   %  7.9710
     245    -32946.012     35.50327     -32910.50853  16.26013   200   %  8.0154
     246    -32945.856     35.58896     -32910.26660  16.50205   201   %  8.0379
     247    -32945.332     35.67598     -32909.65603  17.11263   202   %  8.0652
     248    -32945.515     35.76908     -32909.74633  17.02233   203   %  8.0855
     249    -32945.176     35.85613     -32909.31942  17.44924   204   %  8.1105
     250    -32945.442     36.04533     -32909.39696  17.37169   205   %  8.1495
     252    -32945.374     36.14036     -32909.23367  17.53499   206   %  8.1694
     253    -32945.860     36.22904     -32909.63116  17.13750   207   %  8.1978
     254    -32946.129     36.31514     -32909.81434  16.95432   208   %  8.2218
     256    -32945.730     36.54311     -32909.18725  17.58140   209   %  8.2538
     257    -32946.070     36.64242     -32909.42727  17.34139   210   %  8.2729
     258    -32945.197     36.74167     -32908.45503  18.31363   211   %  8.2930
     259    -32945.790     36.83251     -32908.95729  17.81137   212   %  8.3170
     260    -32945.502     36.92026     -32908.58202  18.18663   213   %  8.3394
     262    -32945.966     37.09455     -32908.87164  17.89702   214   %  8.3802
     263    -32945.435     37.19055     -32908.24412  18.52454   215   %  8.4054
     264    -32945.772     37.28195     -32908.48974  18.27892   216   %  8.4252
     265    -32945.891     37.42654     -32908.46397  18.30468   217   %  8.4666
     266    -32945.952     37.46584     -32908.48627  18.28238   218   %  8.4759
     268    -32945.371     37.67425     -32907.69678  19.07188   219   %  8.5139
     269    -32945.990     37.81625     -32908.17398  18.59468   220   %  8.5403
     270    -32946.169     37.90620     -32908.26247  18.50619   221   %  8.5563
     271    -32945.650     38.02698     -32907.62330  19.14535   222   %  8.5763
     272    -32945.749     38.13665     -32907.61203  19.15662   223   %  8.5963
     274    -32945.720     38.34262     -32907.37775  19.39091   224   %  8.6411
     275    -32945.862     38.43145     -32907.43098  19.33768   225   %  8.6626
     276    -32946.364     38.52082     -32907.84355  18.92510   226   %  8.6881
     277    -32945.690     38.61289     -32907.07758  19.69108   227   %  8.7050
     278    -32945.693     38.70763     -32906.98509  19.78357   228   %  8.7336
     279    -32945.521     38.79467     -32906.72639  20.04227   229   %  8.7475
     281    -32945.928     38.96307     -32906.96522  19.80343   230   %  8.7972
     282    -32946.433     39.05154     -32907.38144  19.38722   231   %  8.8188
     283    -32945.714     39.15079     -32906.56355  20.20511   232   %  8.8345
     284    -32945.790     39.24187     -32906.54771  20.22095   233   %  8.8615
     285    -32945.979     39.32727     -32906.65156  20.11710   234   %  8.8850
     286    -32946.430     39.40839     -32907.02175  19.74690   235   %  8.9072
     288    -32945.720     39.58957     -32906.13054  20.63812   236   %  8.9487
     289    -32945.743     39.67234     -32906.07083  20.69783   237   %  8.9673
     290    -32946.422     39.75639     -32906.66529  20.10337   238   %  8.9924
     291    -32946.228     39.84078     -32906.38742  20.38124   239   %  9.0137
     292    -32945.746     39.92610     -32905.81940  20.94926   240   %  9.0337
     294    -32946.180     40.10275     -32906.07681  20.69185   241   %  9.0757
     295    -32945.702     40.19463     -32905.50773  21.26092   242   %  9.0979
     296    -32946.413     40.28628     -32906.12689  20.64177   243   %  9.1164
     297    -32945.335     40.36969     -32904.96498  21.80368   244   %  9.1481
     298    -32946.000     40.47747     -32905.52298  21.24568   245   %  9.1619
     299    -32946.220     40.69560     -32905.52470  21.24395   246   %  9.2004
     301    -32945.700     40.82569     -32904.87420  21.89446   247   %  9.2237
     302    -32946.238     40.93593     -32905.30256  21.46610   248   %  9.2446
     303    -32946.300     41.03657     -32905.26389  21.50477   249   %  9.2620
     304    -32946.307     41.13569     -32905.17110  21.59756   250   %  9.2845
     305    -32945.356     41.22695     -32904.12900  22.63966   251   %  9.3071
     306    -32945.902     41.31026     -32904.59209  22.17657   252   %  9.3329
     308    -32946.106     41.47967     -32904.62650  22.14216   253   %  9.3740
     309    -32946.219     41.60586     -32904.61339  22.15527   254   %  9.4006
     310    -32946.329     41.70164     -32904.62687  22.14178   255   %  9.4275
     311    -32946.237     41.72985     -32904.50729  22.26137   256   %  9.4345
     313    -32946.304     41.90302     -32904.40098  22.36768   257   %  9.4745
     314    -32945.733     42.00235     -32903.73077  23.03788   258   %  9.4919
     315    -32945.981     42.08916     -32903.89152  22.87713   259   %  9.5125
     316    -32945.915     42.18070     -32903.73466  23.03400   260   %  9.5354
     318    -32945.983     42.37260     -32903.61042  23.15824   261   %  9.5724
     319    -32946.153     42.46217     -32903.69062  23.07804   262   %  9.5895
     320    -32945.868     42.55451     -32903.31352  23.45514   263   %  9.6113
     321    -32946.616     42.63842     -32903.97719  22.79147   264   %  9.6308
     322    -32945.613     42.72803     -32902.88498  23.88368   265   %  9.6454
     323    -32946.121     42.82260     -32903.29843  23.47023   266   %  9.6713
     325    -32946.655     43.00697     -32903.64774  23.12092   267   %  9.7139
     326    -32946.042     43.08970     -32902.95237  23.81629   268   %  9.7307
     327    -32946.180     43.18677     -32902.99299  23.77567   269   %  9.7590
     328    -32945.944     43.29220     -32902.65192  24.11674   270   %  9.7699
     329    -32946.190     43.49419     -32902.69613  24.07253   271   %  9.8087
     331    -32945.931     43.61292     -32902.31768  24.45098   272   %  9.8298
     332    -32946.070     43.71957     -32902.34996  24.41870   273   %  9.8458
     333    -32946.341     43.82930     -32902.51160  24.25706   274   %  9.8631
     334    -32946.373     43.92333     -32902.44956  24.31910   275   %  9.8817
     335    -32946.084     44.01557     -32902.06852  24.70014   276   %  9.9044
     337    -32946.344     44.19877     -32902.14523  24.62343   277   %  9.9386
     338    -32946.264     44.29641     -32901.96806  24.80060   278   %  9.9617
     339    -32946.553     44.42620     -32902.12713  24.64153   279   %  9.9956
     340    -32946.739     44.45549     -32902.28303  24.48563   280   % 10.0034
     342    -32946.060     44.62380     -32901.43610  25.33256   281   % 10.0337
     343    -32945.858     44.71326     -32901.14441  25.62425   282   % 10.0588
     344    -32946.517     44.82937     -32901.68776  25.08089   283   % 10.0888
     345    -32946.248     44.87647     -32901.37184  25.39682   284   % 10.1033
     346    -32946.359     44.95886     -32901.40056  25.36809   285   % 10.1245
     348    -32946.473     45.14282     -32901.33023  25.43843   286   % 10.1530
     349    -32945.832     45.23035     -32900.60192  26.16674   287   % 10.1747
     350    -32946.327     45.31580     -32901.01131  25.75734   288   % 10.1938
     351    -32946.289     45.40083     -32900.88772  25.88094   289   % 10.2196
     353    -32945.851     45.58476     -32900.26670  26.50196   290   % 10.2446
     354    -32946.301     45.66770     -32900.63379  26.13486   291   % 10.2645
     356    -32946.199     45.87318     -32900.32598  26.44268   292   % 10.2868
     357    -32946.097     45.98797     -32900.10915  26.65951   293   % 10.3028
     358    -32946.834     46.07773     -32900.75675  26.01191   294   % 10.3263
     360    -32945.980     46.25286     -32899.72716  27.04150   295   % 10.3679
     361    -32946.494     46.36036     -32900.13412  26.63454   296   % 10.3883
     362    -32946.414     46.44790     -32899.96590  26.80276   297   % 10.3986
     363    -32946.422     46.63682     -32899.78482  26.98384   298   % 10.4338
     364    -32946.555     46.68546     -32899.86999  26.89867   299   % 10.4415
     366    -32946.415     46.91943     -32899.49585  27.27281   300   % 10.4768
     367    -32946.279     47.06323     -32899.21601  27.55265   301   % 10.5002
     368    -32946.637     47.12168     -32899.51489  27.25377   302   % 10.5113
     369    -32946.720     47.21135     -32899.50850  27.26016   303   % 10.5317
     370    -32946.209     47.29760     -32898.91150  27.85716   304   % 10.5539
     372    -32946.290     47.46333     -32898.82704  27.94162   305   % 10.5902
     373    -32946.310     47.58792     -32898.72182  28.04684   306   % 10.6127
     374    -32946.355     47.63512     -32898.71941  28.04925   307   % 10.6215
     375    -32945.914     47.72579     -32898.18819  28.58047   308   % 10.6431
     376    -32947.052     47.80973     -32899.24212  27.52654   309   % 10.6623
     378    -32946.492     47.98018     -32898.51225  28.25641   310   % 10.6996
     379    -32945.762     48.07609     -32897.68552  29.08314   311   % 10.7146
     380    -32946.790     48.15961     -32898.63020  28.13846   312   % 10.7343
     382    -32946.373     48.32583     -32898.04734  28.72132   313   % 10.7746
     383    -32946.024     48.41583     -32897.60838  29.16027   314   % 10.7862
     384    -32946.785     48.48929     -32898.29524  28.47342   315   % 10.8097
     386    -32946.101     48.64899     -32897.45193  29.31672   316   % 10.8406
     387    -32947.044     48.74260     -32898.30131  28.46735   317   % 10.8648
     388    -32946.370     48.82826     -32897.54161  29.22705   318   % 10.8799
     389    -32946.583     48.95579     -32897.62721  29.14145   319   % 10.9122
     390    -32946.558     48.98258     -32897.57562  29.19304   320   % 10.9179
     392    -32946.238     49.20357     -32897.03464  29.73402   321   % 10.9573
     393    -32946.572     49.29302     -32897.27912  29.48954   322   % 10.9739
     394    -32946.956     49.40621     -32897.54940  29.21926   323   % 10.9887
     395    -32945.954     49.52817     -32896.42565  30.34301   324   % 11.0147
     397    -32946.201     49.77328     -32896.42769  30.34097   325   % 11.0385
     398    -32946.085     49.87596     -32896.20874  30.55992   326   % 11.0594
     399    -32946.660     50.00565     -32896.65483  30.11383   327   % 11.0877
     400    -32946.359     50.05311     -32896.30597  30.46269   328   % 11.0993
     401    -32946.615     50.13619     -32896.47831  30.29034   329   % 11.1143
     403    -32946.337     50.30924     -32896.02770  30.74096   330   % 11.1493
     404    -32946.228     50.38935     -32895.83849  30.93017   331   % 11.1678
     405    -32946.082     50.46894     -32895.61346  31.15520   332   % 11.1864
     406    -32946.815     50.54425     -32896.27059  30.49807   333   % 11.2093
     407    -32946.616     50.62224     -32895.99388  30.77477   334   % 11.2289
     409    -32947.248     50.80498     -32896.44272  30.32594   335   % 11.2617
     410    -32946.585     50.89769     -32895.68781  31.08085   336   % 11.2759
     411    -32946.371     50.98554     -32895.38511  31.38355   337   % 11.2931
     412    -32946.389     51.06902     -32895.32039  31.44827   338   % 11.3161
     414    -32946.295     51.23639     -32895.05874  31.70992   339   % 11.3526
     415    -32946.508     51.36541     -32895.14285  31.62581   340   % 11.3731
     416    -32946.478     51.42027     -32895.05762  31.71104   341   % 11.3844
     417    -32946.595     51.51149     -32895.08346  31.68520   342   % 11.3957
     419    -32946.504     51.68239     -32894.82211  31.94655   343   % 11.4334
     420    -32946.769     51.76468     -32895.00464  31.76402   344   % 11.4551
     421    -32946.172     51.85451     -32894.31733  32.45133   345   % 11.4651
     422    -32946.449     51.95412     -32894.49508  32.27358   346   % 11.4852
     424    -32947.036     52.12645     -32894.90987  31.85879   347   % 11.5236
     425    -32946.299     52.22072     -32894.07789  32.69077   348   % 11.5364
     426    -32946.416     52.32283     -32894.09324  32.67542   349   % 11.5544
     427    -32947.551     52.41255     -32895.13834  31.63032   350   % 11.5732
     428    -32946.214     52.50574     -32893.70848  33.06018   351   % 11.5915
     430    -32946.223     52.73553     -32893.48788  33.28078   352   % 11.6263
     431    -32946.414     52.81087     -32893.60345  33.16521   353   % 11.6403
     432    -32946.528     52.91328     -32893.61474  33.15392   354   % 11.6555
     433    -32946.717     53.01422     -32893.70322  33.06543   355   % 11.6734
     435    -32946.120     53.21838     -32892.90164  33.86702   356   % 11.7089
     436    -32946.833     53.31039     -32893.52239  33.24627   357   % 11.7250
     437    -32946.848     53.39945     -32893.44823  33.32043   358   % 11.7407
     438    -32946.258     53.48652     -32892.77167  33.99699   359   % 11.7590
     440    -32946.807     53.66488     -32893.14162  33.62704   360   % 11.7853
     441    -32946.375     53.76028     -32892.61457  34.15409   361   % 11.8080
     442    -32946.936     53.84601     -32893.09022  33.67843   362   % 11.8234
     443    -32946.305     53.92855     -32892.37635  34.39231   363   % 11.8436
     445    -32946.482     54.10067     -32892.38179  34.38687   364   % 11.8768
     446    -32946.140     54.19147     -32891.94902  34.81964   365   % 11.8834
     447    -32946.495     54.27167     -32892.22365  34.54500   366   % 11.9066
     449    -32946.753     54.43988     -32892.31274  34.45592   367   % 11.9351
     450    -32946.439     54.53882     -32891.90062  34.86803   368   % 11.9553
     451    -32947.126     54.62675     -32892.49959  34.26907   369   % 11.9691
     452    -32946.207     54.71380     -32891.49279  35.27587   370   % 11.9915
     454    -32947.031     54.89587     -32892.13505  34.63361   371   % 12.0269
     455    -32945.963     54.99059     -32890.97253  35.79613   372   % 12.0351
     456    -32946.663     55.07453     -32891.58862  35.18004   373   % 12.0580
     457    -32947.367     55.15750     -32892.20973  34.55893   374   % 12.0780
     459    -32946.395     55.34855     -32891.04607  35.72259   375   % 12.1077
     460    -32947.105     55.43304     -32891.67238  35.09628   376   % 12.1213
     461    -32947.089     55.51940     -32891.56920  35.19946   377   % 12.1428
     463    -32946.360     55.69354     -32890.66685  36.10181   378   % 12.1685
     464    -32946.342     55.78646     -32890.55600  36.21266   379   % 12.1847
     465    -32946.650     55.86981     -32890.77975  35.98891   380   % 12.2054


           POTENTIAL ENERGY HAS STOPPED DROPPING


 **********************
 *                    *
 * JOB ENDED NORMALLY *
 *                    *
 **********************



 TOTAL JOB TIME:         96379.73 SECONDS

 == MOPAC DONE ==
