 *******************************************************************************
 ** Site#: 9602  E-mail support:    MrMOPAC@ATT.net    Version 17.184W 64BITS **
 *******************************************************************************
 ** Cite this program as: MOPAC2016, Version: 17.184W, James J. P. Stewart,   **
 ** Stewart Computational Chemistry, web: HTTP://OpenMOPAC.net. Days left: 406**
 *******************************************************************************
 **                                                                           **
 **                                MOPAC2016                                  **
 **                                                                           **
 *******************************************************************************

                              PM7 CALCULATION RESULTS


 *******************************************************************************
 *  CALCULATION DONE:                                Wed Jul 05 09:12:23 2017  *
 *  MOZYME     - USE LOCALIZED M.O.s IN SOLVING THE SCF EQUATIONS
 *
 *
 *
 *                 CHARGE ON SYSTEM =    -5
 *
 *
 *
 *  EPS= 78.40 - USE ANDREAS KLAMT'S COSMO IMPLICIT SOLVATION MODEL
 *  IRC=N      - INTRINSIC REACTION COORDINATE  1 DEFINED
 *  RESTART    - CALCULATION RESTARTED
 *  FORCETS    - VERIFY THAT TRANSITION STATE IS GENUINE
 *  T=         - A TIME OF      1.0 WEEKS   REQUESTED
 *  DUMP=N     - RESTART FILE WRITTEN EVERY  7200.000 SECONDS
 *  MINI       - REDUCE OUTPUT BY ONLY PRINTING FLAGGED ATOMS
 *  HTML       - WRITE HTML SCRIPT TO GENERATE ANIMATION USING JSMOL
 *             - TO DISPLAY IN PDB FORMAT, ADD "PDBOUT"
 *  X-PRIOR    - GEOMETRY CHANGES TAKE PRIORITY IN DRC
 *******************************************************************************
 EPS=78.4 T=1W CHARGE=-5 MOZYME FORCETS restart mini x-priority=0.1 IRC=1 HTML
 Generate IRC in the positive direction for the transition state for hydride transfer in Ene-Enolate reaction

   ATOM                 CHEMICAL                   X               Y               Z
  NUMBER                 SYMBOL               (ANGSTROMS)     (ANGSTROMS)     (ANGSTROMS)
 
  4000       P(HETATM 4000  PA  NAI A1301)   19.73217730     11.98563424     15.57598948   
  4001       O(HETATM 4001  O1A NAI A1301)   20.00314571     12.97542742     14.50979031   
  4002       O(HETATM 4002  O2A NAI A1301)   20.35241837     12.14518750     16.93749424   
  4003       O(HETATM 4003  O5B NAI A1301)   19.88041129     10.51117546     14.93780872   
  4004       C(HETATM 4004  C5B NAI A1301)   21.11224950      9.87744253     14.62017252   
  4005       C(HETATM 4005  C4B NAI A1301)   21.38670718      8.87919069     15.75601291   
  4006       O(HETATM 4006  O4B NAI A1301)   21.93390131      7.71097548     15.12685956   
  4007       C(HETATM 4007  C3B NAI A1301)   22.40972762      9.37809054     16.79180064   
  4008       O(HETATM 4008  O3B NAI A1301)   21.92312173      9.21789427     18.10092080   
  4009       C(HETATM 4009  C2B NAI A1301)   23.61582079      8.41488867     16.67826911   
  4010       O(HETATM 4010  O2B NAI A1301)   24.11890615      7.94004829     17.89794386   
  4011       C(HETATM 4011  C1B NAI A1301)   23.02756405      7.21895303     15.86754423   
  4012       N(HETATM 4012  N9A NAI A1301)   23.95677957      6.71428731     14.87407482   
  4013       C(HETATM 4013  C8A NAI A1301)   24.35448669      7.30431019     13.64619974   
  4014       N(HETATM 4014  N7A NAI A1301)   25.26223846      6.55256442     13.02600195   
  4015       C(HETATM 4015  C5A NAI A1301)   25.47923736      5.43090243     13.82437343   
  4016       C(HETATM 4016  C6A NAI A1301)   26.30863658      4.28332625     13.73128422   
  4017       N(HETATM 4017  N6A NAI A1301)   27.13112240      3.96803618     12.70577374   
  4018       N(HETATM 4018  N1A NAI A1301)   26.23028364      3.35601708     14.74512458   
  4019       C(HETATM 4019  C2A NAI A1301)   25.42309882      3.55202576     15.80760624   
  4020       N(HETATM 4020  N3A NAI A1301)   24.61568408      4.61410807     16.00272789   
  4021       C(HETATM 4021  C4A NAI A1301)   24.65926603      5.52797709     14.99575887   
  4022       O(HETATM 4022  O3  NAI A1301)   18.22630889     11.84437779     16.07902614   
  4023       P(HETATM 4023  PN  NAI A1301)   16.77167772     11.30464967     15.75525737   
  4024       O(HETATM 4024  O1N NAI A1301)   16.00700539     12.28885132     14.94415391   
  4025       O(HETATM 4025  O2N NAI A1301)   16.34191685     10.93460468     17.14794308   
  4026       O(HETATM 4026  O5D NAI A1301)   16.87195413      9.97695248     14.85246220   
  4027       C(HETATM 4027  C5D NAI A1301)   16.77602556      8.69784891     15.51385377   
  4028       C(HETATM 4028  C4D NAI A1301)   16.34531032      7.76374026     14.38379458   
  4029       O(HETATM 4029  O4D NAI A1301)   14.97565623      8.08077777     14.07184193   
  4030       C(HETATM 4030  C3D NAI A1301)   17.17828587      7.94688362     13.10116128   
  4031       O(HETATM 4031  O3D NAI A1301)   17.32838372      6.75300354     12.38049581   
  4032       C(HETATM 4032  C2D NAI A1301)   16.28474954      8.90528192     12.27859918   
  4033       O(HETATM 4033  O2D NAI A1301)   16.49995598      8.70517307     10.92022989   
  4034       C(HETATM 4034  C1D NAI A1301)   14.86533693      8.41738710     12.69971460   
  4035       N(HETATM 4035  N1N NAI A1301)   13.79345320      9.40376086     12.57220240   
  4036       C(HETATM 4036  C2N NAI A1301)   13.92962094     10.70203563     12.99860665   
  4037       C(HETATM 4037  C3N NAI A1301)   12.90792696     11.60364280     12.81943112   
  4038       C(HETATM 4038  C7N NAI A1301)   13.00719674     13.04065972     13.13139828   
  4039       O(HETATM 4039  O7N NAI A1301)   12.42533485     13.86154010     12.41827130   
  4040       N(HETATM 4040  N7N NAI A1301)   13.66686560     13.46713432     14.24626536   
  4041       C(HETATM 4041  C4N NAI A1301)   11.73460816  *  11.24452938  *  12.06177761  *
  4042       H(HETATM 4042  H4N NAI A1301)   10.82182143     11.87252156     12.18413002   
  4043       H(HETATM 4043 H42N NAI A1301)   12.16067254  *  11.79596467  *  10.72335946  *
  4044       C(HETATM 4044  C5N NAI A1301)   11.54850085      9.82923488     11.83733578   
  4045       C(HETATM 4045  C6N NAI A1301)   12.56488047      8.95912215     12.07155377   
  4046       H(HETATM 4046 HO3N NAI A1301)   16.95681265      5.96428033     12.86678960   
  4047       H(HETATM 4047 HO3A NAI A1301)   21.00070893      9.57112346     18.19417762   
  4048       H(HETATM 4048 HO2N NAI A1301)   16.13772134      9.51231546     10.41449379   
  4049       H(HETATM 4049 HO2A NAI A1301)   23.55833885      8.23343192     18.66894052   
  4050       H(HETATM 4050 H71N NAI A1301)   13.81586616     14.45855406     14.40278392   
  4051       H(HETATM 4051 H72N NAI A1301)   14.25859927     12.84275201     14.77027037   
  4052       H(HETATM 4052 H61A NAI A1301)   27.81280317      3.20901982     12.82783539   
  4053       H(HETATM 4053 H62A NAI A1301)   27.31553322      4.61872752     11.96424022   
  4054       H(HETATM 4054 H51N NAI A1301)   17.77565175      8.40256910     15.90831373   
  4055       H(HETATM 4055 H51A NAI A1301)   20.85881095      9.34184482     13.67158833   
  4056       H(HETATM 4056 H52N NAI A1301)   16.01845233      8.64566573     16.32891675   
  4057       H(HETATM 4057 H52A NAI A1301)   21.98310489     10.52181975     14.40565473   
  4058       H(HETATM 4058  H8A NAI A1301)   23.91938922      8.24010557     13.29341733   
  4059       H(HETATM 4059  H6N NAI A1301)   12.46984357      7.88018538     11.89149508   
  4060       H(HETATM 4060  H5N NAI A1301)   10.59792827      9.46810358     11.43481246   
  4061       H(HETATM 4061  H4D NAI A1301)   16.31920702      6.70532238     14.73463515   
  4062       H(HETATM 4062  H4B NAI A1301)   20.43454285      8.53191625     16.23156256   
  4063       H(HETATM 4063  H3D NAI A1301)   18.20293106      8.33475820     13.27324103   
  4064       H(HETATM 4064  H3B NAI A1301)   22.69720965     10.44436712     16.66006123   
  4065       H(HETATM 4065  H2N NAI A1301)   14.89491253     10.98181690     13.45988075   
  4066       H(HETATM 4066  H2D NAI A1301)   16.47384498      9.97000245     12.54231953   
  4067       H(HETATM 4067  H2B NAI A1301)   24.49059074      8.88554692     16.17673960   
  4068       H(HETATM 4068  H2A NAI A1301)   25.42333763      2.76503490     16.58727182   
  4069       H(HETATM 4069  H1D NAI A1301)   14.57549537      7.48171689     12.15386710   
  4070       H(HETATM 4070  H1B NAI A1301)   22.66314069      6.38372928     16.51998130   
  4071       C(HETATM 4071  C1  THT A1302)   22.55433991     11.63506986     11.18420161   
  4072       C(HETATM 4072  C2  THT A1302)   21.18621664     11.17773265     10.78695427   
  4073       O(HETATM 4073  O2  THT A1302)   20.96860036     10.61329477      9.71495730   
  4074       N(HETATM 4074  N3  THT A1302)   20.16404188     11.42077163     11.65885426   
  4075       C(HETATM 4075  C4  THT A1302)   18.81724347     10.89878969     11.39386694   
  4076       C(HETATM 4076  C5  THT A1302)   18.10363046     11.73444891     10.32538226   
  4077       S(HETATM 4077  S6  THT A1302)   16.75412256     12.76296571     10.99086183   
  4078       C(HETATM 4078  C7  THT A1302)   15.27697149     11.97643309     10.29130090   
  4079       O(HETATM 4079  O7  THT A1302)   15.37900360     10.81499663      9.85627939   
  4080       C(HETATM 4080  C8  THT A1302)   14.14026800     12.77083235     10.24739339   
  4081       H(HETATM 4081  H8  THT A1302)   14.16769546     13.78373478     10.65067121   
  4082       C(HETATM 4082  C9  THT A1302)   12.89729514  *  12.32034285  *   9.71038128  *
  4083       H(HETATM 4083 2H9  THT A1302)   12.92733022     11.40542569      9.08580527   
  4084       C(HETATM 4084  C10 THT A1302)   12.00428416     13.41470826      9.14344855   
  4085       C(HETATM 4085  C11 THT A1302)   12.32654789     13.63295665      7.66187804   
  4086       C(HETATM 4086  C12 THT A1302)   11.41870845     14.70510102      7.05812797   
  4087       C(HETATM 4087  C13 THT A1302)   12.02691529     15.28062081      5.77190380   
  4088       C(HETATM 4088  C14 THT A1302)   12.70440897     16.62846328      6.04295656   
  4089       C(HETATM 4089  C15 THT A1302)   13.97619764     16.48973756      6.89335109   
  4090       C(HETATM 4090  C16 THT A1302)   15.19715249     16.19315379      6.02188731   
  4091       C(HETATM 4091  C17 THT A1302)   16.34045771     15.53805985      6.80380205   
  4092       C(HETATM 4092  C18 THT A1302)   17.09242516     16.49475529      7.73244606   
  4093       C(HETATM 4093  C19 THT A1302)   17.91223481     17.55163263      6.98285145   
  4094       C(HETATM 4094  C20 THT A1302)   19.05591184     17.01932700      6.11482110   
  4095       C(HETATM 4095  C21 THT A1302)   20.07355792     16.17620620      6.88687659   
  4096       C(HETATM 4096  C22 THT A1302)   20.87647293     16.95930259      7.92073217   
  4097       H(HETATM 4097  H3  THT A1302)   20.29914404     11.83237900     12.57762679   
  4098       H(HETATM 4098 1H5  THT A1302)   18.82675923     12.41615515      9.83120313   
  4099       H(HETATM 4099 2H5  THT A1302)   17.71885352     11.08036041      9.51750644   
  4100       H(HETATM 4100 1H4  THT A1302)   18.26414029     10.88001816     12.36543288   
  4101       H(HETATM 4101 2H4  THT A1302)   18.88797494      9.83609942     11.05607209   
  4102       H(HETATM 4102 1H1  THT A1302)   22.55404149     12.53345732     11.81821204   
  4103       H(HETATM 4103 2H1  THT A1302)   23.17243051     11.86127745     10.30402537   
  4104       H(HETATM 4104 3H1  THT A1302)   23.06920885     10.84408776     11.75956621   
  4105       H(HETATM 4105 1H22 THT A1302)   21.67428233     16.33960480      8.35129362   
  4106       H(HETATM 4106 2H22 THT A1302)   20.24222426     17.28418728      8.75475872   
  4107       H(HETATM 4107 3H22 THT A1302)   21.35228174     17.84320089      7.48798062   
  4108       H(HETATM 4108 1H21 THT A1302)   19.53933548     15.35380135      7.40204677   
  4109       H(HETATM 4109 2H21 THT A1302)   20.76729093     15.69206866      6.17104031   
  4110       H(HETATM 4110 1H20 THT A1302)   18.62947612     16.40600806      5.29103196   
  4111       H(HETATM 4111 2H20 THT A1302)   19.57504651     17.87317202      5.63820072   
  4112       H(HETATM 4112 1H19 THT A1302)   17.22814099     18.14236088      6.33973935   
  4113       H(HETATM 4113 2H19 THT A1302)   18.34351101     18.25303477      7.72565949   
  4114       H(HETATM 4114 1H18 THT A1302)   16.37402729     17.00160879      8.40705551   
  4115       H(HETATM 4115 2H18 THT A1302)   17.75699962     15.90888053      8.39779151   
  4116       H(HETATM 4116 1H17 THT A1302)   15.95831847     14.68408016      7.39749461   
  4117       H(HETATM 4117 2H17 THT A1302)   17.05499653     15.10335411      6.07633243   
  4118       H(HETATM 4118 1H16 THT A1302)   14.90599311     15.51756251      5.19238377   
  4119       H(HETATM 4119 2H16 THT A1302)   15.56245063     17.11739208      5.53767587   
  4120       H(HETATM 4120 1H15 THT A1302)   14.15305027     17.40377866      7.48930056   
  4121       H(HETATM 4121 2H15 THT A1302)   13.84467079     15.69279313      7.65260023   
  4122       H(HETATM 4122 1H14 THT A1302)   12.94573590     17.11540417      5.07890756   
  4123       H(HETATM 4123 2H14 THT A1302)   11.98674328     17.29674794      6.56062536   
  4124       H(HETATM 4124 1H13 THT A1302)   12.75358415     14.56774811      5.33769822   
  4125       H(HETATM 4125 2H13 THT A1302)   11.24051365     15.40155182      5.00388474   
  4126       H(HETATM 4126 1H12 THT A1302)   10.42589608     14.26523604      6.84498766   
  4127       H(HETATM 4127 2H12 THT A1302)   11.24496576     15.51185087      7.79614351   
  4128       H(HETATM 4128 1H11 THT A1302)   13.39499573     13.91373347      7.55797622   
  4129       H(HETATM 4129 2H11 THT A1302)   12.21807549     12.68315055      7.09957364   
  4130       H(HETATM 4130 1H10 THT A1302)   12.13572462     14.35571531      9.71720282   
  4131       H(HETATM 4131 2H10 THT A1302)   10.94045820     13.13037046      9.26156038   
 

 General Reference for PM7:
 "Optimization of Parameters for Semiempirical Methods VI: More Modifications to the 
 NDDO Approximations and Re-optimization of Parameters", J. J. P. Stewart, J. Mol. Mod., 1:32, 19 (2013)
 http://www.springerlink.com/openurl.asp?genre=article&id=doi:10.1007/s00894-012-1667-x

           Empirical Formula: C1301 H2294 N355 O498 S11 P2  =  4461 atoms


   Ion Atom No.           Label               Charge (Distances are between charged sites predicted by Lewis structure theory)
 
    1   N    1   (ATOM      1  N   GLY A   3)   +1  (2.6 Angstroms from anion  O   55, Label: ATOM     55  OD2 ASP A   6)
    2   N   75   (ATOM     75  NZ  LYS A   8)   +1  (3.9 Angstroms from anion  O 3688, Label: ATOM   3688  OD2 ASP A 248)
    3   C   97   (ATOM     97  CZ  ARG A   9)   +1  (5.3 Angstroms from anion  O 1348, Label: ATOM   1348  OD2 ASP A  89)
    4   C  374   (ATOM    374  CZ  ARG A  27)   +1  (3.9 Angstroms from anion  O  441, Label: ATOM    441  OE2 GLU A  31)
    5   C  614   (ATOM    614  CZ  ARG A  43)   +1  (3.7 Angstroms from anion  O  601, Label: ATOM    601  OD2 ASP A  42)
    6   C  657   (ATOM    657  CZ  ARG A  45)   +1
    7   C  736   (ATOM    736  CZ  ARG A  49)   +1  (9.9 Angstroms from anion  O  792, Label: ATOM    792  OD2 ASP A  52)
    8   C  805   (ATOM    805  CZ  ARG A  53)   +1  (5.8 Angstroms from anion  O  244, Label: ATOM    244  OD2 ASP A  18)
    9   N  872   (ATOM    872  NZ  LYS A  57)   +1  (4.8 Angstroms from anion  O  792, Label: ATOM    792  OD2 ASP A  52)
   10   C 1172   (ATOM   1172  CZ  ARG A  77)   +1  (8.4 Angstroms from anion  O  956, Label: ATOM    956  OE2 GLU A  62)
   11   N 1308   (ATOM   1308  NZ  LYS A  87)   +1
   12   N 1760   (ATOM   1760  NZ  LYS A 118)   +1  (4.3 Angstroms from anion  O 1720, Label: ATOM   1720  OD2 ASP A 115)
   13   N 1966   (ATOM   1966  NZ  LYS A 132)   +1  (4.4 Angstroms from anion  O 1049, Label: ATOM   1049  OE2 GLU A  68)
   14   C 2267   (ATOM   2267  CZ  ARG A 153)   +1  (5.5 Angstroms from anion  O 2229, Label: ATOM   2229  OD2 ASP A 150)
   15   N 2458   (ATOM   2458  NZ  LYS A 165)   +1  (4.6 Angstroms from anion  O 4079, Label: HETATM 4079  O7  THT A1302)
   16   C 2576   (ATOM   2576  CZ  ARG A 173)   +1  (5.2 Angstroms from anion  O 2520, Label: ATOM   2520  OE2 GLU A 169)
   17   C 2646   (ATOM   2646  CZ  ARG A 177)   +1  (3.4 Angstroms from anion  O 2670, Label: ATOM   2670  OE2 GLU A 178)
   18   N 2702   (ATOM   2702  NZ  LYS A 181)   +1  (3.5 Angstroms from anion  O 2670, Label: ATOM   2670  OE2 GLU A 178)
   19   C 2768   (ATOM   2768  CZ  ARG A 185)   +1  (8.3 Angstroms from anion  O 3688, Label: ATOM   3688  OD2 ASP A 248)
   20   C 2912   (ATOM   2912  CZ  ARG A 195)   +1  (3.5 Angstroms from anion  O 3250, Label: ATOM   3250  OE2 GLU A 219)
   21   C 3340   (ATOM   3340  CZ  ARG A 225)   +1  (5.8 Angstroms from anion  O 3883, Label: ATOM   3883  OD2 ASP A 261)
   22   N 3469   (ATOM   3469  NZ  LYS A 233)   +1  (6.7 Angstroms from anion  O 3310, Label: ATOM   3310  OD2 ASP A 223)
   23   N 3567   (ATOM   3567  NZ  LYS A 240)   +1  (6.8 Angstroms from anion  O  441, Label: ATOM    441  OE2 GLU A  31)
   24   C 3921   (ATOM   3921  CE1 HIS A 265)   +1  (5.1 Angstroms from anion  O 3883, Label: ATOM   3883  OD2 ASP A 261)
   25   C 4041   (HETATM 4041  C4N NAI A1301)   +1  (4.3 Angstroms from anion  O 4079, Label: HETATM 4079  O7  THT A1302)
 
    1   O   55   (ATOM     55  OD2 ASP A   6)   -1  (2.6 Angstroms from cation  N    1, Label: ATOM      1  N   GLY A   3)
    2   O  244   (ATOM    244  OD2 ASP A  18)   -1  (5.8 Angstroms from cation  C  805, Label: ATOM    805  CZ  ARG A  53)
    3   O  441   (ATOM    441  OE2 GLU A  31)   -1  (3.9 Angstroms from cation  C  374, Label: ATOM    374  CZ  ARG A  27)
    4   O  601   (ATOM    601  OD2 ASP A  42)   -1  (3.7 Angstroms from cation  C  614, Label: ATOM    614  CZ  ARG A  43)
    5   O  792   (ATOM    792  OD2 ASP A  52)   -1  (4.8 Angstroms from cation  N  872, Label: ATOM    872  NZ  LYS A  57)
    6   O  956   (ATOM    956  OE2 GLU A  62)   -1  (8.4 Angstroms from cation  C 1172, Label: ATOM   1172  CZ  ARG A  77)
    7   O  989   (ATOM    989  OD2 ASP A  64)   -1  (7.2 Angstroms from cation  N 1760, Label: ATOM   1760  NZ  LYS A 118)
    8   O 1049   (ATOM   1049  OE2 GLU A  68)   -1  (4.4 Angstroms from cation  N 1966, Label: ATOM   1966  NZ  LYS A 132)
    9   O 1064   (ATOM   1064  OE2 GLU A  69)   -1
   10   O 1226   (ATOM   1226  OE2 GLU A  80)   -1
   11   O 1348   (ATOM   1348  OD2 ASP A  89)   -1  (5.3 Angstroms from cation  C   97, Label: ATOM     97  CZ  ARG A   9)
   12   O 1653   (ATOM   1653  OD2 ASP A 110)   -1
   13   O 1720   (ATOM   1720  OD2 ASP A 115)   -1  (4.3 Angstroms from cation  N 1760, Label: ATOM   1760  NZ  LYS A 118)
   14   O 2197   (ATOM   2197  OD2 ASP A 148)   -1  (5.7 Angstroms from cation  N 2458, Label: ATOM   2458  NZ  LYS A 165)
   15   O 2229   (ATOM   2229  OD2 ASP A 150)   -1  (5.5 Angstroms from cation  C 2267, Label: ATOM   2267  CZ  ARG A 153)
   16   O 2520   (ATOM   2520  OE2 GLU A 169)   -1  (5.2 Angstroms from cation  C 2576, Label: ATOM   2576  CZ  ARG A 173)
   17   O 2670   (ATOM   2670  OE2 GLU A 178)   -1  (3.4 Angstroms from cation  C 2646, Label: ATOM   2646  CZ  ARG A 177)
                                                    (3.5 Angstroms from cation  N 2702, Label: ATOM   2702  NZ  LYS A 181)
   18   O 3102   (ATOM   3102  OE2 GLU A 209)   -1
   19   O 3117   (ATOM   3117  OE2 GLU A 210)   -1
   20   O 3250   (ATOM   3250  OE2 GLU A 219)   -1  (3.5 Angstroms from cation  C 2912, Label: ATOM   2912  CZ  ARG A 195)
   21   O 3265   (ATOM   3265  OE2 GLU A 220)   -1
   22   O 3310   (ATOM   3310  OD2 ASP A 223)   -1  (6.7 Angstroms from cation  N 3469, Label: ATOM   3469  NZ  LYS A 233)
   23   O 3490   (ATOM   3490  OD2 ASP A 234)   -1  (7.1 Angstroms from cation  C  374, Label: ATOM    374  CZ  ARG A  27)
   24   O 3688   (ATOM   3688  OD2 ASP A 248)   -1  (3.9 Angstroms from cation  N   75, Label: ATOM     75  NZ  LYS A   8)
   25   O 3802   (ATOM   3802  OD2 ASP A 256)   -1  (9.1 Angstroms from cation  C 2768, Label: ATOM   2768  CZ  ARG A 185)
   26   O 3883   (ATOM   3883  OD2 ASP A 261)   -1  (5.1 Angstroms from cation  C 3921, Label: ATOM   3921  CE1 HIS A 265)
   27   O 3988   (ATOM   3988  OXT LEU A 269)   -1  (6.5 Angstroms from cation  C 3340, Label: ATOM   3340  CZ  ARG A 225)
   28   O 4002   (HETATM 4002  O2A NAI A1301)   -1  (8.4 Angstroms from cation  C  614, Label: ATOM    614  CZ  ARG A  43)
   29   O 4025   (HETATM 4025  O2N NAI A1301)   -1  (6.9 Angstroms from cation  C 4041, Label: HETATM 4041  C4N NAI A1301)
   30   O 4079   (HETATM 4079  O7  THT A1302)   -1  (4.3 Angstroms from cation  C 4041, Label: HETATM 4041  C4N NAI A1301)
                                                    (4.6 Angstroms from cation  N 2458, Label: ATOM   2458  NZ  LYS A 165)

          COMPUTED CHARGE ON SYSTEM: -5

          TIME USED UP TO RESTART =              26736.92


                         Atoms used in the FORCETS calculation

   1     C(HETATM 4041  C4N NAI A1301)  11.73460816 +1  11.24452938 +1  12.06177761 +1
   2     H(HETATM 4043 H42N NAI A1301)  12.16067254 +1  11.79596467 +1  10.72335946 +1
   3     C(HETATM 4082  C9  THT A1302)  12.89729514 +1  12.32034285 +1   9.71038128 +1
           INITIAL VELOCITY IN DRC (Angstroms/Femtosecond)
         0.00000         0.00000         0.00000
         0.00000         0.00000         0.00000
         0.00000         0.00000         0.00000
         0.00000         0.00000         0.00000
         0.00000         0.00000         0.00000
         0.00000         0.00000         0.00000
         0.00000         0.00000         0.00000
         0.00000         0.00000         0.00000
         0.00000         0.00000         0.00000
         0.00000         0.00000         0.00000
         0.00000         0.00000         0.00000
         0.00000         0.00000         0.00000
         0.00000         0.00000         0.00000
         0.00000         0.00000         0.00000
         0.00000         0.00000         0.00000
         0.00000         0.00000         0.00000
         0.00000         0.00000         0.00000
         0.00000         0.00000         0.00000
         0.00000         0.00000         0.00000
         0.00000         0.00000         0.00000
         0.00000         0.00000         0.00000
         0.00000         0.00000         0.00000
         0.00000         0.00000         0.00000
         0.00000         0.00000         0.00000
         0.00000         0.00000         0.00000
         0.00000         0.00000         0.00000
         0.00000         0.00000         0.00000
         0.00000         0.00000         0.00000
         0.00000         0.00000         0.00000
         0.00000         0.00000         0.00000
         0.00000         0.00000         0.00000
         0.00000         0.00000         0.00000
         0.00000         0.00000         0.00000
         0.00000         0.00000         0.00000
         0.00000         0.00000         0.00000
         0.00000         0.00000         0.00000
         0.00000         0.00000         0.00000
         0.00000         0.00000         0.00000
         0.00000         0.00000         0.00000
         0.00000         0.00000         0.00000
         0.00000         0.00000         0.00000
         0.00000         0.00000         0.00000
         0.00000         0.00000         0.00000
         0.00000         0.00000         0.00000
         0.00000         0.00000         0.00000
         0.00000         0.00000         0.00000
         0.00000         0.00000         0.00000
         0.00000         0.00000         0.00000
         0.00000         0.00000         0.00000
         0.00000         0.00000         0.00000
         0.00000         0.00000         0.00000
         0.00000         0.00000         0.00000
         0.00000         0.00000         0.00000
         0.00000         0.00000         0.00000
         0.00000         0.00000         0.00000
         0.00000         0.00000         0.00000
         0.00000         0.00000         0.00000
         0.00000         0.00000         0.00000
         0.00000         0.00000         0.00000
         0.00000         0.00000         0.00000
         0.00000         0.00000         0.00000
         0.00000         0.00000         0.00000
         0.00000         0.00000         0.00000
         0.00000         0.00000         0.00000
         0.00000         0.00000         0.00000
         0.00000         0.00000         0.00000
         0.00000         0.00000         0.00000
         0.00000         0.00000         0.00000
         0.00000         0.00000         0.00000
         0.00000         0.00000         0.00000
         0.00000         0.00000         0.00000
         0.00000         0.00000         0.00000
         0.00000         0.00000         0.00000
         0.00000         0.00000         0.00000
         0.00000         0.00000         0.00000
         0.00000         0.00000         0.00000
         0.00000         0.00000         0.00000
         0.00000         0.00000         0.00000
         0.00000         0.00000         0.00000
         0.00000         0.00000         0.00000
         0.00000         0.00000         0.00000
         0.00000         0.00000         0.00000
         0.00000         0.00000         0.00000
         0.00000         0.00000         0.00000
         0.00000         0.00000         0.00000
         0.00000         0.00000         0.00000
         0.00000         0.00000         0.00000
         0.00000         0.00000         0.00000
         0.00000         0.00000         0.00000
         0.00000         0.00000         0.00000
         0.00000         0.00000         0.00000
         0.00000         0.00000         0.00000
         0.00000         0.00000         0.00000
         0.00000         0.00000         0.00000
         0.00000         0.00000         0.00000
         0.00000         0.00000         0.00000
         0.00000         0.00000         0.00000
         0.00000         0.00000         0.00000
         0.00000         0.00000         0.00000
         0.00000         0.00000         0.00000
         0.00000         0.00000         0.00000
         0.00000         0.00000         0.00000
         0.00000         0.00000         0.00000
         0.00000         0.00000         0.00000
         0.00000         0.00000         0.00000
         0.00000         0.00000         0.00000
         0.00000         0.00000         0.00000
         0.00000         0.00000         0.00000
         0.00000         0.00000         0.00000
         0.00000         0.00000         0.00000
         0.00000         0.00000         0.00000
         0.00000         0.00000         0.00000
         0.00000         0.00000         0.00000
         0.00000         0.00000         0.00000
         0.00000         0.00000         0.00000
         0.00000         0.00000         0.00000
         0.00000         0.00000         0.00000
         0.00000         0.00000         0.00000
         0.00000         0.00000         0.00000
         0.00000         0.00000         0.00000
         0.00000         0.00000         0.00000
         0.00000         0.00000         0.00000
         0.00000         0.00000         0.00000
         0.00000         0.00000         0.00000
         0.00000         0.00000         0.00000
         0.00000         0.00000         0.00000
         0.00000         0.00000         0.00000
         0.00000         0.00000         0.00000
         0.00000         0.00000         0.00000
         0.00000         0.00000         0.00000
         0.00000         0.00000         0.00000
         0.00000         0.00000         0.00000
         0.00000         0.00000         0.00000
         0.00000         0.00000         0.00000
         0.00000         0.00000         0.00000
         0.00000         0.00000         0.00000
         0.00000         0.00000         0.00000
         0.00000         0.00000         0.00000
         0.00000         0.00000         0.00000
         0.00000         0.00000         0.00000
         0.00000         0.00000         0.00000
         0.00000         0.00000         0.00000
         0.00000         0.00000         0.00000
         0.00000         0.00000         0.00000
         0.00000         0.00000         0.00000
         0.00000         0.00000         0.00000
         0.00000         0.00000         0.00000
         0.00000         0.00000         0.00000
         0.00000         0.00000         0.00000
         0.00000         0.00000         0.00000
         0.00000         0.00000         0.00000
         0.00000         0.00000         0.00000
         0.00000         0.00000         0.00000
         0.00000         0.00000         0.00000
         0.00000         0.00000         0.00000
         0.00000         0.00000         0.00000
         0.00000         0.00000         0.00000
         0.00000         0.00000         0.00000
         0.00000         0.00000         0.00000
         0.00000         0.00000         0.00000
         0.00000         0.00000         0.00000
         0.00000         0.00000         0.00000
         0.00000         0.00000         0.00000
         0.00000         0.00000         0.00000
         0.00000         0.00000         0.00000
         0.00000         0.00000         0.00000
         0.00000         0.00000         0.00000
         0.00000         0.00000         0.00000
         0.00000         0.00000         0.00000
         0.00000         0.00000         0.00000
         0.00000         0.00000         0.00000
         0.00000         0.00000         0.00000
         0.00000         0.00000         0.00000
         0.00000         0.00000         0.00000
         0.00000         0.00000         0.00000
         0.00000         0.00000         0.00000
         0.00000         0.00000         0.00000
         0.00000         0.00000         0.00000
         0.00000         0.00000         0.00000
         0.00000         0.00000         0.00000
         0.00000         0.00000         0.00000
         0.00000         0.00000         0.00000
         0.00000         0.00000         0.00000
         0.00000         0.00000         0.00000
         0.00000         0.00000         0.00000
         0.00000         0.00000         0.00000
         0.00000         0.00000         0.00000
         0.00000         0.00000         0.00000
         0.00000         0.00000         0.00000
         0.00000         0.00000         0.00000
         0.00000         0.00000         0.00000
         0.00000         0.00000         0.00000
         0.00000         0.00000         0.00000
         0.00000         0.00000         0.00000
         0.00000         0.00000         0.00000
         0.00000         0.00000         0.00000
         0.00000         0.00000         0.00000
         0.00000         0.00000         0.00000
         0.00000         0.00000         0.00000
         0.00000         0.00000         0.00000
         0.00000         0.00000         0.00000
         0.00000         0.00000         0.00000
         0.00000         0.00000         0.00000
         0.00000         0.00000         0.00000
         0.00000         0.00000         0.00000
         0.00000         0.00000         0.00000
         0.00000         0.00000         0.00000
         0.00000         0.00000         0.00000
         0.00000         0.00000         0.00000
         0.00000         0.00000         0.00000
         0.00000         0.00000         0.00000
         0.00000         0.00000         0.00000
         0.00000         0.00000         0.00000
         0.00000         0.00000         0.00000
         0.00000         0.00000         0.00000
         0.00000         0.00000         0.00000
         0.00000         0.00000         0.00000
         0.00000         0.00000         0.00000
         0.00000         0.00000         0.00000
         0.00000         0.00000         0.00000
         0.00000         0.00000         0.00000
         0.00000         0.00000         0.00000
         0.00000         0.00000         0.00000
         0.00000         0.00000         0.00000
         0.00000         0.00000         0.00000
         0.00000         0.00000         0.00000
         0.00000         0.00000         0.00000
         0.00000         0.00000         0.00000
         0.00000         0.00000         0.00000
         0.00000         0.00000         0.00000
         0.00000         0.00000         0.00000
         0.00000         0.00000         0.00000
         0.00000         0.00000         0.00000
         0.00000         0.00000         0.00000
         0.00000         0.00000         0.00000
         0.00000         0.00000         0.00000
         0.00000         0.00000         0.00000
         0.00000         0.00000         0.00000
         0.00000         0.00000         0.00000
         0.00000         0.00000         0.00000
         0.00000         0.00000         0.00000
         0.00000         0.00000         0.00000
         0.00000         0.00000         0.00000
         0.00000         0.00000         0.00000
         0.00000         0.00000         0.00000
         0.00000         0.00000         0.00000
         0.00000         0.00000         0.00000
         0.00000         0.00000         0.00000
         0.00000         0.00000         0.00000
         0.00000         0.00000         0.00000
         0.00000         0.00000         0.00000
         0.00000         0.00000         0.00000
         0.00000         0.00000         0.00000
         0.00000         0.00000         0.00000
         0.00000         0.00000         0.00000
         0.00000         0.00000         0.00000
         0.00000         0.00000         0.00000
         0.00000         0.00000         0.00000
         0.00000         0.00000         0.00000
         0.00000         0.00000         0.00000
         0.00000         0.00000         0.00000
         0.00000         0.00000         0.00000
         0.00000         0.00000         0.00000
         0.00000         0.00000         0.00000
         0.00000         0.00000         0.00000
         0.00000         0.00000         0.00000
         0.00000         0.00000         0.00000
         0.00000         0.00000         0.00000
         0.00000         0.00000         0.00000
         0.00000         0.00000         0.00000
         0.00000         0.00000         0.00000
         0.00000         0.00000         0.00000
         0.00000         0.00000         0.00000
         0.00000         0.00000         0.00000
         0.00000         0.00000         0.00000
         0.00000         0.00000         0.00000
         0.00000         0.00000         0.00000
         0.00000         0.00000         0.00000
         0.00000         0.00000         0.00000
         0.00000         0.00000         0.00000
         0.00000         0.00000         0.00000
         0.00000         0.00000         0.00000
         0.00000         0.00000         0.00000
         0.00000         0.00000         0.00000
         0.00000         0.00000         0.00000
         0.00000         0.00000         0.00000
         0.00000         0.00000         0.00000
         0.00000         0.00000         0.00000
         0.00000         0.00000         0.00000
         0.00000         0.00000         0.00000
         0.00000         0.00000         0.00000
         0.00000         0.00000         0.00000
         0.00000         0.00000         0.00000
         0.00000         0.00000         0.00000
         0.00000         0.00000         0.00000
         0.00000         0.00000         0.00000
         0.00000         0.00000         0.00000
         0.00000         0.00000         0.00000
         0.00000         0.00000         0.00000
         0.00000         0.00000         0.00000
         0.00000         0.00000         0.00000
         0.00000         0.00000         0.00000
         0.00000         0.00000         0.00000
         0.00000         0.00000         0.00000
         0.00000         0.00000         0.00000
         0.00000         0.00000         0.00000
         0.00000         0.00000         0.00000
         0.00000         0.00000         0.00000
         0.00000         0.00000         0.00000
         0.00000         0.00000         0.00000
         0.00000         0.00000         0.00000
         0.00000         0.00000         0.00000
         0.00000         0.00000         0.00000
         0.00000         0.00000         0.00000
         0.00000         0.00000         0.00000
         0.00000         0.00000         0.00000
         0.00000         0.00000         0.00000
         0.00000         0.00000         0.00000
         0.00000         0.00000         0.00000
         0.00000         0.00000         0.00000
         0.00000         0.00000         0.00000
         0.00000         0.00000         0.00000
         0.00000         0.00000         0.00000
         0.00000         0.00000         0.00000
         0.00000         0.00000         0.00000
         0.00000         0.00000         0.00000
         0.00000         0.00000         0.00000
         0.00000         0.00000         0.00000
         0.00000         0.00000         0.00000
         0.00000         0.00000         0.00000
         0.00000         0.00000         0.00000
         0.00000         0.00000         0.00000
         0.00000         0.00000         0.00000
         0.00000         0.00000         0.00000
         0.00000         0.00000         0.00000
         0.00000         0.00000         0.00000
         0.00000         0.00000         0.00000
         0.00000         0.00000         0.00000
         0.00000         0.00000         0.00000
         0.00000         0.00000         0.00000
         0.00000         0.00000         0.00000
         0.00000         0.00000         0.00000
         0.00000         0.00000         0.00000
         0.00000         0.00000         0.00000
         0.00000         0.00000         0.00000
         0.00000         0.00000         0.00000
         0.00000         0.00000         0.00000
         0.00000         0.00000         0.00000
         0.00000         0.00000         0.00000
         0.00000         0.00000         0.00000
         0.00000         0.00000         0.00000
         0.00000         0.00000         0.00000
         0.00000         0.00000         0.00000
         0.00000         0.00000         0.00000
         0.00000         0.00000         0.00000
         0.00000         0.00000         0.00000
         0.00000         0.00000         0.00000
         0.00000         0.00000         0.00000
         0.00000         0.00000         0.00000
         0.00000         0.00000         0.00000
         0.00000         0.00000         0.00000
         0.00000         0.00000         0.00000
         0.00000         0.00000         0.00000
         0.00000         0.00000         0.00000
         0.00000         0.00000         0.00000
         0.00000         0.00000         0.00000
         0.00000         0.00000         0.00000
         0.00000         0.00000         0.00000
         0.00000         0.00000         0.00000
         0.00000         0.00000         0.00000
         0.00000         0.00000         0.00000
         0.00000         0.00000         0.00000
         0.00000         0.00000         0.00000
         0.00000         0.00000         0.00000
         0.00000         0.00000         0.00000
         0.00000         0.00000         0.00000
         0.00000         0.00000         0.00000
         0.00000         0.00000         0.00000
         0.00000         0.00000         0.00000
         0.00000         0.00000         0.00000
         0.00000         0.00000         0.00000
         0.00000         0.00000         0.00000
         0.00000         0.00000         0.00000
         0.00000         0.00000         0.00000
         0.00000         0.00000         0.00000
         0.00000         0.00000         0.00000
         0.00000         0.00000         0.00000
         0.00000         0.00000         0.00000
         0.00000         0.00000         0.00000
         0.00000         0.00000         0.00000
         0.00000         0.00000         0.00000
         0.00000         0.00000         0.00000
         0.00000         0.00000         0.00000
         0.00000         0.00000         0.00000
         0.00000         0.00000         0.00000
         0.00000         0.00000         0.00000
         0.00000         0.00000         0.00000
         0.00000         0.00000         0.00000
         0.00000         0.00000         0.00000
         0.00000         0.00000         0.00000
         0.00000         0.00000         0.00000
         0.00000         0.00000         0.00000
         0.00000         0.00000         0.00000
         0.00000         0.00000         0.00000
         0.00000         0.00000         0.00000
         0.00000         0.00000         0.00000
         0.00000         0.00000         0.00000
         0.00000         0.00000         0.00000
         0.00000         0.00000         0.00000
         0.00000         0.00000         0.00000
         0.00000         0.00000         0.00000
         0.00000         0.00000         0.00000
         0.00000         0.00000         0.00000
         0.00000         0.00000         0.00000
         0.00000         0.00000         0.00000
         0.00000         0.00000         0.00000
         0.00000         0.00000         0.00000
         0.00000         0.00000         0.00000
         0.00000         0.00000         0.00000
         0.00000         0.00000         0.00000
         0.00000         0.00000         0.00000
         0.00000         0.00000         0.00000
         0.00000         0.00000         0.00000
         0.00000         0.00000         0.00000
         0.00000         0.00000         0.00000
         0.00000         0.00000         0.00000
         0.00000         0.00000         0.00000
         0.00000         0.00000         0.00000
         0.00000         0.00000         0.00000
         0.00000         0.00000         0.00000
         0.00000         0.00000         0.00000
         0.00000         0.00000         0.00000
         0.00000         0.00000         0.00000
         0.00000         0.00000         0.00000
         0.00000         0.00000         0.00000
         0.00000         0.00000         0.00000
         0.00000         0.00000         0.00000
         0.00000         0.00000         0.00000
         0.00000         0.00000         0.00000
         0.00000         0.00000         0.00000
         0.00000         0.00000         0.00000
         0.00000         0.00000         0.00000
         0.00000         0.00000         0.00000
         0.00000         0.00000         0.00000
         0.00000         0.00000         0.00000
         0.00000         0.00000         0.00000
         0.00000         0.00000         0.00000
         0.00000         0.00000         0.00000
         0.00000         0.00000         0.00000
         0.00000         0.00000         0.00000
         0.00000         0.00000         0.00000
         0.00000         0.00000         0.00000
         0.00000         0.00000         0.00000
         0.00000         0.00000         0.00000
         0.00000         0.00000         0.00000
         0.00000         0.00000         0.00000
         0.00000         0.00000         0.00000
         0.00000         0.00000         0.00000
         0.00000         0.00000         0.00000
         0.00000         0.00000         0.00000
         0.00000         0.00000         0.00000
         0.00000         0.00000         0.00000
         0.00000         0.00000         0.00000
         0.00000         0.00000         0.00000
         0.00000         0.00000         0.00000
         0.00000         0.00000         0.00000
         0.00000         0.00000         0.00000
         0.00000         0.00000         0.00000
         0.00000         0.00000         0.00000
         0.00000         0.00000         0.00000
         0.00000         0.00000         0.00000
         0.00000         0.00000         0.00000
         0.00000         0.00000         0.00000
         0.00000         0.00000         0.00000
         0.00000         0.00000         0.00000
         0.00000         0.00000         0.00000
         0.00000         0.00000         0.00000
         0.00000         0.00000         0.00000
         0.00000         0.00000         0.00000
         0.00000         0.00000         0.00000
         0.00000         0.00000         0.00000
         0.00000         0.00000         0.00000
         0.00000         0.00000         0.00000
         0.00000         0.00000         0.00000
         0.00000         0.00000         0.00000
         0.00000         0.00000         0.00000
         0.00000         0.00000         0.00000
         0.00000         0.00000         0.00000
         0.00000         0.00000         0.00000
         0.00000         0.00000         0.00000
         0.00000         0.00000         0.00000
         0.00000         0.00000         0.00000
         0.00000         0.00000         0.00000
         0.00000         0.00000         0.00000
         0.00000         0.00000         0.00000
         0.00000         0.00000         0.00000
         0.00000         0.00000         0.00000
         0.00000         0.00000         0.00000
         0.00000         0.00000         0.00000
         0.00000         0.00000         0.00000
         0.00000         0.00000         0.00000
         0.00000         0.00000         0.00000
         0.00000         0.00000         0.00000
         0.00000         0.00000         0.00000
         0.00000         0.00000         0.00000
         0.00000         0.00000         0.00000
         0.00000         0.00000         0.00000
         0.00000         0.00000         0.00000
         0.00000         0.00000         0.00000
         0.00000         0.00000         0.00000
         0.00000         0.00000         0.00000
         0.00000         0.00000         0.00000
         0.00000         0.00000         0.00000
         0.00000         0.00000         0.00000
         0.00000         0.00000         0.00000
         0.00000         0.00000         0.00000
         0.00000         0.00000         0.00000
         0.00000         0.00000         0.00000
         0.00000         0.00000         0.00000
         0.00000         0.00000         0.00000
         0.00000         0.00000         0.00000
         0.00000         0.00000         0.00000
         0.00000         0.00000         0.00000
         0.00000         0.00000         0.00000
         0.00000         0.00000         0.00000
         0.00000         0.00000         0.00000
         0.00000         0.00000         0.00000
         0.00000         0.00000         0.00000
         0.00000         0.00000         0.00000
         0.00000         0.00000         0.00000
         0.00000         0.00000         0.00000
         0.00000         0.00000         0.00000
         0.00000         0.00000         0.00000
         0.00000         0.00000         0.00000
         0.00000         0.00000         0.00000
         0.00000         0.00000         0.00000
         0.00000         0.00000         0.00000
         0.00000         0.00000         0.00000
         0.00000         0.00000         0.00000
         0.00000         0.00000         0.00000
         0.00000         0.00000         0.00000
         0.00000         0.00000         0.00000
         0.00000         0.00000         0.00000
         0.00000         0.00000         0.00000
         0.00000         0.00000         0.00000
         0.00000         0.00000         0.00000
         0.00000         0.00000         0.00000
         0.00000         0.00000         0.00000
         0.00000         0.00000         0.00000
         0.00000         0.00000         0.00000
         0.00000         0.00000         0.00000
         0.00000         0.00000         0.00000
         0.00000         0.00000         0.00000
         0.00000         0.00000         0.00000
         0.00000         0.00000         0.00000
         0.00000         0.00000         0.00000
         0.00000         0.00000         0.00000
         0.00000         0.00000         0.00000
         0.00000         0.00000         0.00000
         0.00000         0.00000         0.00000
         0.00000         0.00000         0.00000
         0.00000         0.00000         0.00000
         0.00000         0.00000         0.00000
         0.00000         0.00000         0.00000
         0.00000         0.00000         0.00000
         0.00000         0.00000         0.00000
         0.00000         0.00000         0.00000
         0.00000         0.00000         0.00000
         0.00000         0.00000         0.00000
         0.00000         0.00000         0.00000
         0.00000         0.00000         0.00000
         0.00000         0.00000         0.00000
         0.00000         0.00000         0.00000
         0.00000         0.00000         0.00000
         0.00000         0.00000         0.00000
         0.00000         0.00000         0.00000
         0.00000         0.00000         0.00000
         0.00000         0.00000         0.00000
         0.00000         0.00000         0.00000
         0.00000         0.00000         0.00000
         0.00000         0.00000         0.00000
         0.00000         0.00000         0.00000
         0.00000         0.00000         0.00000
         0.00000         0.00000         0.00000
         0.00000         0.00000         0.00000
         0.00000         0.00000         0.00000
         0.00000         0.00000         0.00000
         0.00000         0.00000         0.00000
         0.00000         0.00000         0.00000
         0.00000         0.00000         0.00000
         0.00000         0.00000         0.00000
         0.00000         0.00000         0.00000
         0.00000         0.00000         0.00000
         0.00000         0.00000         0.00000
         0.00000         0.00000         0.00000
         0.00000         0.00000         0.00000
         0.00000         0.00000         0.00000
         0.00000         0.00000         0.00000
         0.00000         0.00000         0.00000
         0.00000         0.00000         0.00000
         0.00000         0.00000         0.00000
         0.00000         0.00000         0.00000
         0.00000         0.00000         0.00000
         0.00000         0.00000         0.00000
         0.00000         0.00000         0.00000
         0.00000         0.00000         0.00000
         0.00000         0.00000         0.00000
         0.00000         0.00000         0.00000
         0.00000         0.00000         0.00000
         0.00000         0.00000         0.00000
         0.00000         0.00000         0.00000
         0.00000         0.00000         0.00000
         0.00000         0.00000         0.00000
         0.00000         0.00000         0.00000
         0.00000         0.00000         0.00000
         0.00000         0.00000         0.00000
         0.00000         0.00000         0.00000
         0.00000         0.00000         0.00000
         0.00000         0.00000         0.00000
         0.00000         0.00000         0.00000
         0.00000         0.00000         0.00000
         0.00000         0.00000         0.00000
         0.00000         0.00000         0.00000
         0.00000         0.00000         0.00000
         0.00000         0.00000         0.00000
         0.00000         0.00000         0.00000
         0.00000         0.00000         0.00000
         0.00000         0.00000         0.00000
         0.00000         0.00000         0.00000
         0.00000         0.00000         0.00000
         0.00000         0.00000         0.00000
         0.00000         0.00000         0.00000
         0.00000         0.00000         0.00000
         0.00000         0.00000         0.00000
         0.00000         0.00000         0.00000
         0.00000         0.00000         0.00000
         0.00000         0.00000         0.00000
         0.00000         0.00000         0.00000
         0.00000         0.00000         0.00000
         0.00000         0.00000         0.00000
         0.00000         0.00000         0.00000
         0.00000         0.00000         0.00000
         0.00000         0.00000         0.00000
         0.00000         0.00000         0.00000
         0.00000         0.00000         0.00000
         0.00000         0.00000         0.00000
         0.00000         0.00000         0.00000
         0.00000         0.00000         0.00000
         0.00000         0.00000         0.00000
         0.00000         0.00000         0.00000
         0.00000         0.00000         0.00000
         0.00000         0.00000         0.00000
         0.00000         0.00000         0.00000
         0.00000         0.00000         0.00000
         0.00000         0.00000         0.00000
         0.00000         0.00000         0.00000
         0.00000         0.00000         0.00000
         0.00000         0.00000         0.00000
         0.00000         0.00000         0.00000
         0.00000         0.00000         0.00000
         0.00000         0.00000         0.00000
         0.00000         0.00000         0.00000
         0.00000         0.00000         0.00000
         0.00000         0.00000         0.00000
         0.00000         0.00000         0.00000
         0.00000         0.00000         0.00000
         0.00000         0.00000         0.00000
         0.00000         0.00000         0.00000
         0.00000         0.00000         0.00000
         0.00000         0.00000         0.00000
         0.00000         0.00000         0.00000
         0.00000         0.00000         0.00000
         0.00000         0.00000         0.00000
         0.00000         0.00000         0.00000
         0.00000         0.00000         0.00000
         0.00000         0.00000         0.00000
         0.00000         0.00000         0.00000
         0.00000         0.00000         0.00000
         0.00000         0.00000         0.00000
         0.00000         0.00000         0.00000
         0.00000         0.00000         0.00000
         0.00000         0.00000         0.00000
         0.00000         0.00000         0.00000
         0.00000         0.00000         0.00000
         0.00000         0.00000         0.00000
         0.00000         0.00000         0.00000
         0.00000         0.00000         0.00000
         0.00000         0.00000         0.00000
         0.00000         0.00000         0.00000
         0.00000         0.00000         0.00000
         0.00000         0.00000         0.00000
         0.00000         0.00000         0.00000
         0.00000         0.00000         0.00000
         0.00000         0.00000         0.00000
         0.00000         0.00000         0.00000
         0.00000         0.00000         0.00000
         0.00000         0.00000         0.00000
         0.00000         0.00000         0.00000
         0.00000         0.00000         0.00000
         0.00000         0.00000         0.00000
         0.00000         0.00000         0.00000
         0.00000         0.00000         0.00000
         0.00000         0.00000         0.00000
         0.00000         0.00000         0.00000
         0.00000         0.00000         0.00000
         0.00000         0.00000         0.00000
         0.00000         0.00000         0.00000
         0.00000         0.00000         0.00000
         0.00000         0.00000         0.00000
         0.00000         0.00000         0.00000
         0.00000         0.00000         0.00000
         0.00000         0.00000         0.00000
         0.00000         0.00000         0.00000
         0.00000         0.00000         0.00000
         0.00000         0.00000         0.00000
         0.00000         0.00000         0.00000
         0.00000         0.00000         0.00000
         0.00000         0.00000         0.00000
         0.00000         0.00000         0.00000
         0.00000         0.00000         0.00000
         0.00000         0.00000         0.00000
         0.00000         0.00000         0.00000
         0.00000         0.00000         0.00000
         0.00000         0.00000         0.00000
         0.00000         0.00000         0.00000
         0.00000         0.00000         0.00000
         0.00000         0.00000         0.00000
         0.00000         0.00000         0.00000
         0.00000         0.00000         0.00000
         0.00000         0.00000         0.00000
         0.00000         0.00000         0.00000
         0.00000         0.00000         0.00000
         0.00000         0.00000         0.00000
         0.00000         0.00000         0.00000
         0.00000         0.00000         0.00000
         0.00000         0.00000         0.00000
         0.00000         0.00000         0.00000
         0.00000         0.00000         0.00000
         0.00000         0.00000         0.00000
         0.00000         0.00000         0.00000
         0.00000         0.00000         0.00000
         0.00000         0.00000         0.00000
         0.00000         0.00000         0.00000
         0.00000         0.00000         0.00000
         0.00000         0.00000         0.00000
         0.00000         0.00000         0.00000
         0.00000         0.00000         0.00000
         0.00000         0.00000         0.00000
         0.00000         0.00000         0.00000
         0.00000         0.00000         0.00000
         0.00000         0.00000         0.00000
         0.00000         0.00000         0.00000
         0.00000         0.00000         0.00000
         0.00000         0.00000         0.00000
         0.00000         0.00000         0.00000
         0.00000         0.00000         0.00000
         0.00000         0.00000         0.00000
         0.00000         0.00000         0.00000
         0.00000         0.00000         0.00000
         0.00000         0.00000         0.00000
         0.00000         0.00000         0.00000
         0.00000         0.00000         0.00000
         0.00000         0.00000         0.00000
         0.00000         0.00000         0.00000
         0.00000         0.00000         0.00000
         0.00000         0.00000         0.00000
         0.00000         0.00000         0.00000
         0.00000         0.00000         0.00000
         0.00000         0.00000         0.00000
         0.00000         0.00000         0.00000
         0.00000         0.00000         0.00000
         0.00000         0.00000         0.00000
         0.00000         0.00000         0.00000
         0.00000         0.00000         0.00000
         0.00000         0.00000         0.00000
         0.00000         0.00000         0.00000
         0.00000         0.00000         0.00000
         0.00000         0.00000         0.00000
         0.00000         0.00000         0.00000
         0.00000         0.00000         0.00000
         0.00000         0.00000         0.00000
         0.00000         0.00000         0.00000
         0.00000         0.00000         0.00000
         0.00000         0.00000         0.00000
         0.00000         0.00000         0.00000
         0.00000         0.00000         0.00000
         0.00000         0.00000         0.00000
         0.00000         0.00000         0.00000
         0.00000         0.00000         0.00000
         0.00000         0.00000         0.00000
         0.00000         0.00000         0.00000
         0.00000         0.00000         0.00000
         0.00000         0.00000         0.00000
         0.00000         0.00000         0.00000
         0.00000         0.00000         0.00000
         0.00000         0.00000         0.00000
         0.00000         0.00000         0.00000
         0.00000         0.00000         0.00000
         0.00000         0.00000         0.00000
         0.00000         0.00000         0.00000
         0.00000         0.00000         0.00000
         0.00000         0.00000         0.00000
         0.00000         0.00000         0.00000
         0.00000         0.00000         0.00000
         0.00000         0.00000         0.00000
         0.00000         0.00000         0.00000
         0.00000         0.00000         0.00000
         0.00000         0.00000         0.00000
         0.00000         0.00000         0.00000
         0.00000         0.00000         0.00000
         0.00000         0.00000         0.00000
         0.00000         0.00000         0.00000
         0.00000         0.00000         0.00000
         0.00000         0.00000         0.00000
         0.00000         0.00000         0.00000
         0.00000         0.00000         0.00000
         0.00000         0.00000         0.00000
         0.00000         0.00000         0.00000
         0.00000         0.00000         0.00000
         0.00000         0.00000         0.00000
         0.00000         0.00000         0.00000
         0.00000         0.00000         0.00000
         0.00000         0.00000         0.00000
         0.00000         0.00000         0.00000
         0.00000         0.00000         0.00000
         0.00000         0.00000         0.00000
         0.00000         0.00000         0.00000
         0.00000         0.00000         0.00000
         0.00000         0.00000         0.00000
         0.00000         0.00000         0.00000
         0.00000         0.00000         0.00000
         0.00000         0.00000         0.00000
         0.00000         0.00000         0.00000
         0.00000         0.00000         0.00000
         0.00000         0.00000         0.00000
         0.00000         0.00000         0.00000
         0.00000         0.00000         0.00000
         0.00000         0.00000         0.00000
         0.00000         0.00000         0.00000
         0.00000         0.00000         0.00000
         0.00000         0.00000         0.00000
         0.00000         0.00000         0.00000
         0.00000         0.00000         0.00000
         0.00000         0.00000         0.00000
         0.00000         0.00000         0.00000
         0.00000         0.00000         0.00000
         0.00000         0.00000         0.00000
         0.00000         0.00000         0.00000
         0.00000         0.00000         0.00000
         0.00000         0.00000         0.00000
         0.00000         0.00000         0.00000
         0.00000         0.00000         0.00000
         0.00000         0.00000         0.00000
         0.00000         0.00000         0.00000
         0.00000         0.00000         0.00000
         0.00000         0.00000         0.00000
         0.00000         0.00000         0.00000
         0.00000         0.00000         0.00000
         0.00000         0.00000         0.00000
         0.00000         0.00000         0.00000
         0.00000         0.00000         0.00000
         0.00000         0.00000         0.00000
         0.00000         0.00000         0.00000
         0.00000         0.00000         0.00000
         0.00000         0.00000         0.00000
         0.00000         0.00000         0.00000
         0.00000         0.00000         0.00000
         0.00000         0.00000         0.00000
         0.00000         0.00000         0.00000
         0.00000         0.00000         0.00000
         0.00000         0.00000         0.00000
         0.00000         0.00000         0.00000
         0.00000         0.00000         0.00000
         0.00000         0.00000         0.00000
         0.00000         0.00000         0.00000
         0.00000         0.00000         0.00000
         0.00000         0.00000         0.00000
         0.00000         0.00000         0.00000
         0.00000         0.00000         0.00000
         0.00000         0.00000         0.00000
         0.00000         0.00000         0.00000
         0.00000         0.00000         0.00000
         0.00000         0.00000         0.00000
         0.00000         0.00000         0.00000
         0.00000         0.00000         0.00000
         0.00000         0.00000         0.00000
         0.00000         0.00000         0.00000
         0.00000         0.00000         0.00000
         0.00000         0.00000         0.00000
         0.00000         0.00000         0.00000
         0.00000         0.00000         0.00000
         0.00000         0.00000         0.00000
         0.00000         0.00000         0.00000
         0.00000         0.00000         0.00000
         0.00000         0.00000         0.00000
         0.00000         0.00000         0.00000
         0.00000         0.00000         0.00000
         0.00000         0.00000         0.00000
         0.00000         0.00000         0.00000
         0.00000         0.00000         0.00000
         0.00000         0.00000         0.00000
         0.00000         0.00000         0.00000
         0.00000         0.00000         0.00000
         0.00000         0.00000         0.00000
         0.00000         0.00000         0.00000
         0.00000         0.00000         0.00000
         0.00000         0.00000         0.00000
         0.00000         0.00000         0.00000
         0.00000         0.00000         0.00000
         0.00000         0.00000         0.00000
         0.00000         0.00000         0.00000
         0.00000         0.00000         0.00000
         0.00000         0.00000         0.00000
         0.00000         0.00000         0.00000
         0.00000         0.00000         0.00000
         0.00000         0.00000         0.00000
         0.00000         0.00000         0.00000
         0.00000         0.00000         0.00000
         0.00000         0.00000         0.00000
         0.00000         0.00000         0.00000
         0.00000         0.00000         0.00000
         0.00000         0.00000         0.00000
         0.00000         0.00000         0.00000
         0.00000         0.00000         0.00000
         0.00000         0.00000         0.00000
         0.00000         0.00000         0.00000
         0.00000         0.00000         0.00000
         0.00000         0.00000         0.00000
         0.00000         0.00000         0.00000
         0.00000         0.00000         0.00000
         0.00000         0.00000         0.00000
         0.00000         0.00000         0.00000
         0.00000         0.00000         0.00000
         0.00000         0.00000         0.00000
         0.00000         0.00000         0.00000
         0.00000         0.00000         0.00000
         0.00000         0.00000         0.00000
         0.00000         0.00000         0.00000
         0.00000         0.00000         0.00000
         0.00000         0.00000         0.00000
         0.00000         0.00000         0.00000
         0.00000         0.00000         0.00000
         0.00000         0.00000         0.00000
         0.00000         0.00000         0.00000
         0.00000         0.00000         0.00000
         0.00000         0.00000         0.00000
         0.00000         0.00000         0.00000
         0.00000         0.00000         0.00000
         0.00000         0.00000         0.00000
         0.00000         0.00000         0.00000
         0.00000         0.00000         0.00000
         0.00000         0.00000         0.00000
         0.00000         0.00000         0.00000
         0.00000         0.00000         0.00000
         0.00000         0.00000         0.00000
         0.00000         0.00000         0.00000
         0.00000         0.00000         0.00000
         0.00000         0.00000         0.00000
         0.00000         0.00000         0.00000
         0.00000         0.00000         0.00000
         0.00000         0.00000         0.00000
         0.00000         0.00000         0.00000
         0.00000         0.00000         0.00000
         0.00000         0.00000         0.00000
         0.00000         0.00000         0.00000
         0.00000         0.00000         0.00000
         0.00000         0.00000         0.00000
         0.00000         0.00000         0.00000
         0.00000         0.00000         0.00000
         0.00000         0.00000         0.00000
         0.00000         0.00000         0.00000
         0.00000         0.00000         0.00000
         0.00000         0.00000         0.00000
         0.00000         0.00000         0.00000
         0.00000         0.00000         0.00000
         0.00000         0.00000         0.00000
         0.00000         0.00000         0.00000
         0.00000         0.00000         0.00000
         0.00000         0.00000         0.00000
         0.00000         0.00000         0.00000
         0.00000         0.00000         0.00000
         0.00000         0.00000         0.00000
         0.00000         0.00000         0.00000
         0.00000         0.00000         0.00000
         0.00000         0.00000         0.00000
         0.00000         0.00000         0.00000
         0.00000         0.00000         0.00000
         0.00000         0.00000         0.00000
         0.00000         0.00000         0.00000
         0.00000         0.00000         0.00000
         0.00000         0.00000         0.00000
         0.00000         0.00000         0.00000
         0.00000         0.00000         0.00000
         0.00000         0.00000         0.00000
         0.00000         0.00000         0.00000
         0.00000         0.00000         0.00000
         0.00000         0.00000         0.00000
         0.00000         0.00000         0.00000
         0.00000         0.00000         0.00000
         0.00000         0.00000         0.00000
         0.00000         0.00000         0.00000
         0.00000         0.00000         0.00000
         0.00000         0.00000         0.00000
         0.00000         0.00000         0.00000
         0.00000         0.00000         0.00000
         0.00000         0.00000         0.00000
         0.00000         0.00000         0.00000
         0.00000         0.00000         0.00000
         0.00000         0.00000         0.00000
         0.00000         0.00000         0.00000
         0.00000         0.00000         0.00000
         0.00000         0.00000         0.00000
         0.00000         0.00000         0.00000
         0.00000         0.00000         0.00000
         0.00000         0.00000         0.00000
         0.00000         0.00000         0.00000
         0.00000         0.00000         0.00000
         0.00000         0.00000         0.00000
         0.00000         0.00000         0.00000
         0.00000         0.00000         0.00000
         0.00000         0.00000         0.00000
         0.00000         0.00000         0.00000
         0.00000         0.00000         0.00000
         0.00000         0.00000         0.00000
         0.00000         0.00000         0.00000
         0.00000         0.00000         0.00000
         0.00000         0.00000         0.00000
         0.00000         0.00000         0.00000
         0.00000         0.00000         0.00000
         0.00000         0.00000         0.00000
         0.00000         0.00000         0.00000
         0.00000         0.00000         0.00000
         0.00000         0.00000         0.00000
         0.00000         0.00000         0.00000
         0.00000         0.00000         0.00000
         0.00000         0.00000         0.00000
         0.00000         0.00000         0.00000
         0.00000         0.00000         0.00000
         0.00000         0.00000         0.00000
         0.00000         0.00000         0.00000
         0.00000         0.00000         0.00000
         0.00000         0.00000         0.00000
         0.00000         0.00000         0.00000
         0.00000         0.00000         0.00000
         0.00000         0.00000         0.00000
         0.00000         0.00000         0.00000
         0.00000         0.00000         0.00000
         0.00000         0.00000         0.00000
         0.00000         0.00000         0.00000
         0.00000         0.00000         0.00000
         0.00000         0.00000         0.00000
         0.00000         0.00000         0.00000
         0.00000         0.00000         0.00000
         0.00000         0.00000         0.00000
         0.00000         0.00000         0.00000
         0.00000         0.00000         0.00000
         0.00000         0.00000         0.00000
         0.00000         0.00000         0.00000
         0.00000         0.00000         0.00000
         0.00000         0.00000         0.00000
         0.00000         0.00000         0.00000
         0.00000         0.00000         0.00000
         0.00000         0.00000         0.00000
         0.00000         0.00000         0.00000
         0.00000         0.00000         0.00000
         0.00000         0.00000         0.00000
         0.00000         0.00000         0.00000
         0.00000         0.00000         0.00000
         0.00000         0.00000         0.00000
         0.00000         0.00000         0.00000
         0.00000         0.00000         0.00000
         0.00000         0.00000         0.00000
         0.00000         0.00000         0.00000
         0.00000         0.00000         0.00000
         0.00000         0.00000         0.00000
         0.00000         0.00000         0.00000
         0.00000         0.00000         0.00000
         0.00000         0.00000         0.00000
         0.00000         0.00000         0.00000
         0.00000         0.00000         0.00000
         0.00000         0.00000         0.00000
         0.00000         0.00000         0.00000
         0.00000         0.00000         0.00000
         0.00000         0.00000         0.00000
         0.00000         0.00000         0.00000
         0.00000         0.00000         0.00000
         0.00000         0.00000         0.00000
         0.00000         0.00000         0.00000
         0.00000         0.00000         0.00000
         0.00000         0.00000         0.00000
         0.00000         0.00000         0.00000
         0.00000         0.00000         0.00000
         0.00000         0.00000         0.00000
         0.00000         0.00000         0.00000
         0.00000         0.00000         0.00000
         0.00000         0.00000         0.00000
         0.00000         0.00000         0.00000
         0.00000         0.00000         0.00000
         0.00000         0.00000         0.00000
         0.00000         0.00000         0.00000
         0.00000         0.00000         0.00000
         0.00000         0.00000         0.00000
         0.00000         0.00000         0.00000
         0.00000         0.00000         0.00000
         0.00000         0.00000         0.00000
         0.00000         0.00000         0.00000
         0.00000         0.00000         0.00000
         0.00000         0.00000         0.00000
         0.00000         0.00000         0.00000
         0.00000         0.00000         0.00000
         0.00000         0.00000         0.00000
         0.00000         0.00000         0.00000
         0.00000         0.00000         0.00000
         0.00000         0.00000         0.00000
         0.00000         0.00000         0.00000
         0.00000         0.00000         0.00000
         0.00000         0.00000         0.00000
         0.00000         0.00000         0.00000
         0.00000         0.00000         0.00000
         0.00000         0.00000         0.00000
         0.00000         0.00000         0.00000
         0.00000         0.00000         0.00000
         0.00000         0.00000         0.00000
         0.00000         0.00000         0.00000
         0.00000         0.00000         0.00000
         0.00000         0.00000         0.00000
         0.00000         0.00000         0.00000
         0.00000         0.00000         0.00000
         0.00000         0.00000         0.00000
         0.00000         0.00000         0.00000
         0.00000         0.00000         0.00000
         0.00000         0.00000         0.00000
         0.00000         0.00000         0.00000
         0.00000         0.00000         0.00000
         0.00000         0.00000         0.00000
         0.00000         0.00000         0.00000
         0.00000         0.00000         0.00000
         0.00000         0.00000         0.00000
         0.00000         0.00000         0.00000
         0.00000         0.00000         0.00000
         0.00000         0.00000         0.00000
         0.00000         0.00000         0.00000
         0.00000         0.00000         0.00000
         0.00000         0.00000         0.00000
         0.00000         0.00000         0.00000
         0.00000         0.00000         0.00000
         0.00000         0.00000         0.00000
         0.00000         0.00000         0.00000
         0.00000         0.00000         0.00000
         0.00000         0.00000         0.00000
         0.00000         0.00000         0.00000
         0.00000         0.00000         0.00000
         0.00000         0.00000         0.00000
         0.00000         0.00000         0.00000
         0.00000         0.00000         0.00000
         0.00000         0.00000         0.00000
         0.00000         0.00000         0.00000
         0.00000         0.00000         0.00000
         0.00000         0.00000         0.00000
         0.00000         0.00000         0.00000
[...]
      79    -32951.899     26.85349     -32925.04521   1.72344    39   %  2.5929
      81    -32951.810     27.28127     -32924.52875   2.23991    40   %  2.6637
      83    -32952.547     27.70608     -32924.84094   1.92772    41   %  2.7318
      85    -32953.301     28.10560     -32925.19549   1.57317    42   %  2.7981
      86    -32952.452     28.30177     -32924.15055   2.61810    43   %  2.8321
      88    -32952.725     28.68468     -32924.03987   2.72879    44   %  2.8987
      90    -32953.326     29.04984     -32924.27646   2.49220    45   %  2.9647
      92    -32953.421     29.39969     -32924.02129   2.74737    46   %  3.0340
      93    -32954.435     29.58053     -32924.85478   1.91388    47   %  3.0671
      95    -32954.292     29.92777     -32924.36399   2.40467    48   %  3.1313
      97    -32954.936     30.26097     -32924.67455   2.09410    49   %  3.1967
      98    -32954.368     30.42079     -32923.94683   2.82183    50   %  3.2262
     100    -32955.125     30.74406     -32924.38123   2.38742    51   %  3.2935
     102    -32954.999     31.05514     -32923.94421   2.82445    52   %  3.3584
     103    -32955.323     31.21158     -32924.11145   2.65721    53   %  3.3901
     105    -32955.960     31.51506     -32924.44450   2.32416    54   %  3.4548
     106    -32955.387     31.66027     -32923.72631   3.04235    55   %  3.4882
     108    -32955.953     31.94402     -32924.00898   2.75968    56   %  3.5508
     109    -32956.216     32.08487     -32924.13148   2.63718    57   %  3.5866
     111    -32956.668     32.37830     -32924.28976   2.47890    58   %  3.6468
     112    -32956.354     32.51701     -32923.83749   2.93117    59   %  3.6809
     114    -32956.209     32.78593     -32923.42334   3.34532    60   %  3.7439
     115    -32957.091     32.93389     -32924.15731   2.61135    61   %  3.7657
     117    -32956.576     33.23317     -32923.34270   3.42596    62   %  3.8198
     118    -32956.872     33.45300     -32923.41912   3.34954    63   %  3.8645
     120    -32956.859     33.64482     -32923.21440   3.55426    64   %  3.9050
     121    -32957.047     33.77614     -32923.27111   3.49755    65   %  3.9338
     122    -32957.045     33.89965     -32923.14495   3.62371    66   %  3.9698
     124    -32956.805     34.14994     -32922.65477   4.11389    67   %  4.0305
     125    -32957.897     34.27783     -32923.61938   3.14928    68   %  4.0589
     126    -32957.372     34.41821     -32922.95347   3.81519    69   %  4.0931
     127    -32957.658     34.58127     -32923.07632   3.69234    70   %  4.1220
     129    -32957.547     34.89725     -32922.65018   4.11848    71   %  4.1785
     130    -32957.620     35.03037     -32922.58959   4.17907    72   %  4.2065
     131    -32957.747     35.15253     -32922.59423   4.17443    73   %  4.2384
     132    -32957.742     35.37671     -32922.36542   4.40323    74   %  4.3012
     134    -32957.693     35.50688     -32922.18629   4.58237    75   %  4.3290
     135    -32957.772     35.62095     -32922.15138   4.61728    76   %  4.3614
     136    -32958.078     35.72894     -32922.34951   4.41915    77   %  4.3917
     137    -32958.275     35.84423     -32922.43114   4.33751    78   %  4.4215
     139    -32957.817     36.06980     -32921.74705   5.02161    79   %  4.4834
     140    -32958.868     36.18427     -32922.68380   4.08486    80   %  4.5146
     141    -32957.834     36.30317     -32921.53033   5.23833    81   %  4.5433
     142    -32958.260     36.41425     -32921.84532   4.92334    82   %  4.5725
     143    -32958.625     36.52600     -32922.09944   4.66922    83   %  4.6018
     144    -32958.315     36.63278     -32921.68264   5.08602    84   %  4.6350
     146    -32958.361     36.85227     -32921.50872   5.25994    85   %  4.6953
     147    -32958.484     36.96616     -32921.51740   5.25126    86   %  4.7178
     148    -32958.674     37.07501     -32921.59908   5.16958    87   %  4.7474
     149    -32958.824     37.18001     -32921.64422   5.12444    88   %  4.7728
     150    -32959.181     37.38068     -32921.80025   4.96841    89   %  4.8357
     151    -32958.528     37.50818     -32921.01994   5.74871    90   %  4.8672
     153    -32958.676     37.63126     -32921.04444   5.72422    91   %  4.8936
     154    -32958.644     37.75249     -32920.89106   5.87760    92   %  4.9260
     155    -32958.666     37.93491     -32920.73095   6.03770    93   %  4.9698
     156    -32958.592     37.96387     -32920.62854   6.14012    94   %  4.9786
     158    -32958.859     38.17295     -32920.68599   6.08267    95   %  5.0324
     159    -32959.197     38.28047     -32920.91669   5.85197    96   %  5.0604
     160    -32959.414     38.39013     -32921.02421   5.74444    97   %  5.0831
     161    -32959.148     38.54507     -32920.60295   6.16571    98   %  5.1306
     162    -32959.401     38.59098     -32920.80957   5.95909    99   %  5.1430
     163    -32959.092     38.69137     -32920.40018   6.36848   100   %  5.1807
     164    -32959.118     38.79235     -32920.32530   6.44336   101   %  5.2061
     166    -32958.631     38.99735     -32919.63369   7.13497   102   %  5.2612
     167    -32959.258     39.12087     -32920.13664   6.63201   103   %  5.2909
     168    -32958.777     39.19129     -32919.58528   7.18338   104   %  5.3127
     169    -32959.413     39.29014     -32920.12242   6.64624   105   %  5.3411
     170    -32959.302     39.39260     -32919.90935   6.85931   106   %  5.3685
     171    -32959.456     39.49664     -32919.95932   6.80934   107   %  5.4018
     172    -32959.440     39.60778     -32919.83241   6.93625   108   %  5.4224
     174    -32958.792     39.83094     -32918.96116   7.80750   109   %  5.4739
     175    -32959.429     39.93318     -32919.49626   7.27240   110   %  5.5003
     176    -32959.184     40.03528     -32919.14903   7.61963   111   %  5.5307
     177    -32960.160     40.13500     -32920.02479   6.74386   112   %  5.5563
     178    -32959.366     40.23456     -32919.13167   7.63699   113   %  5.5835
     179    -32959.353     40.33738     -32919.01558   7.75308   114   %  5.6062
     180    -32959.435     40.44144     -32918.99306   7.77560   115   %  5.6318
     181    -32959.748     40.54744     -32919.20048   7.56818   116   %  5.6560
     182    -32959.850     40.64477     -32919.20561   7.56305   117   %  5.6866
     184    -32959.564     40.84657     -32918.71705   8.05161   118   %  5.7371
     185    -32959.708     40.95169     -32918.75675   8.01191   119   %  5.7593
     186    -32959.162     41.05435     -32918.10769   8.66097   120   %  5.7922
     187    -32959.535     41.18501     -32918.35034   8.41831   121   %  5.8306
     188    -32960.158     41.28688     -32918.87073   7.89793   122   %  5.8597
     189    -32960.441     41.33873     -32919.10262   7.66603   123   %  5.8723
     190    -32959.526     41.43647     -32918.09003   8.67863   124   %  5.8960
     191    -32959.643     41.53568     -32918.10762   8.66104   125   %  5.9203
     192    -32959.545     41.62953     -32917.91579   8.85287   126   %  5.9483
     194    -32959.598     41.82481     -32917.77331   8.99535   127   %  6.0005
     195    -32959.717     41.92360     -32917.79295   8.97571   128   %  6.0204
     196    -32959.885     42.02695     -32917.85759   8.91107   129   %  6.0456
     197    -32960.490     42.13578     -32918.35396   8.41470   130   %  6.0679
     198    -32959.778     42.23650     -32917.54168   9.22698   131   %  6.0949
     199    -32959.888     42.41456     -32917.47354   9.29512   132   %  6.1390
     200    -32959.921     42.43628     -32917.48484   9.28381   133   %  6.1448
     202    -32959.979     42.64040     -32917.33858   9.43008   134   %  6.1922
     203    -32959.197     42.75194     -32916.44477  10.32389   135   %  6.2119
     204    -32960.125     42.85219     -32917.27285   9.49581   136   %  6.2387
     205    -32959.756     42.95267     -32916.80365   9.96501   137   %  6.2658
     206    -32960.502     43.04966     -32917.45263   9.31603   138   %  6.2917
     207    -32959.756     43.14743     -32916.60894  10.15972   139   %  6.3152
     208    -32960.114     43.24842     -32916.86523   9.90342   140   %  6.3405
     209    -32960.282     43.43496     -32916.84697   9.92168   141   %  6.3848
     210    -32960.317     43.45067     -32916.86618   9.90247   142   %  6.3891
     211    -32959.852     43.54554     -32916.30626  10.46240   143   %  6.4126
     213    -32960.228     43.74183     -32916.48666  10.28200   144   %  6.4589
     214    -32959.685     43.83539     -32915.84959  10.91907   145   %  6.4889
     215    -32959.982     43.92604     -32916.05577  10.71289   146   %  6.5050
     216    -32960.758     44.01929     -32916.73849  10.03017   147   %  6.5358
     217    -32959.937     44.11053     -32915.82659  10.94207   148   %  6.5562
     218    -32960.314     44.19762     -32916.11617  10.65249   149   %  6.5808
     220    -32959.879     44.39049     -32915.48887  11.27979   150   %  6.6243
     221    -32960.120     44.50017     -32915.61933  11.14932   151   %  6.6536
     222    -32959.828     44.57837     -32915.25005  11.51860   152   %  6.6754
     223    -32960.492     44.66906     -32915.82269  10.94597   153   %  6.7008
     224    -32960.260     44.76107     -32915.49931  11.26935   154   %  6.7264
     225    -32960.255     44.85995     -32915.39485  11.37381   155   %  6.7471
     226    -32960.276     45.03243     -32915.24405  11.52461   156   %  6.7877
     227    -32960.279     45.05780     -32915.22074  11.54792   157   %  6.7950
     228    -32960.421     45.23986     -32915.18095  11.58771   158   %  6.8391
     230    -32960.319     45.34848     -32914.97074  11.79792   159   %  6.8566
     231    -32960.561     45.45278     -32915.10832  11.66034   160   %  6.8799
     232    -32960.266     45.58441     -32914.68190  12.08676   161   %  6.9162
     233    -32960.576     45.63874     -32914.93742  11.83124   162   %  6.9329
     234    -32960.310     45.73476     -32914.57493  12.19373   163   %  6.9531
     235    -32960.482     45.83363     -32914.64827  12.12039   164   %  6.9823
     236    -32960.320     45.93470     -32914.38535  12.38331   165   %  6.9954
     238    -32960.115     46.13806     -32913.97654  12.79212   166   %  7.0456
     239    -32960.724     46.22534     -32914.49884  12.26982   167   %  7.0689
     240    -32960.270     46.32131     -32913.94851  12.82015   168   %  7.0944
     241    -32960.827     46.41545     -32914.41184  12.35682   169   %  7.1146
     242    -32960.264     46.50863     -32913.75550  13.01316   170   %  7.1383
     243    -32960.341     46.59980     -32913.74132  13.02734   171   %  7.1624
     244    -32960.665     46.68958     -32913.97560  12.79305   172   %  7.1853
     245    -32960.513     46.77982     -32913.73350  13.03516   173   %  7.2068
     247    -32960.110     46.96793     -32913.14245  13.62620   174   %  7.2467
     248    -32960.047     47.06142     -32912.98575  13.78291   175   %  7.2770
     249    -32961.030     47.14911     -32913.88081  12.88785   176   %  7.2921
     250    -32960.502     47.23898     -32913.26301  13.50565   177   %  7.3215
     251    -32960.310     47.32687     -32912.98336  13.78530   178   %  7.3423
     252    -32960.209     47.41656     -32912.79276  13.97590   179   %  7.3636
     254    -32960.581     47.60821     -32912.97240  13.79626   180   %  7.4075
     255    -32961.119     47.69816     -32913.42087  13.34779   181   %  7.4307
     256    -32960.366     47.78836     -32912.57788  14.19078   182   %  7.4530
     257    -32960.691     47.87801     -32912.81285  13.95581   183   %  7.4785
     258    -32960.574     47.97410     -32912.59961  14.16905   184   %  7.4950
     259    -32960.225     48.06372     -32912.16146  14.60720   185   %  7.5208
     260    -32960.993     48.14637     -32912.84688  13.92178   186   %  7.5354
     262    -32960.341     48.31028     -32912.03100  14.73766   187   %  7.5875
     263    -32960.709     48.41566     -32912.29370  14.47496   188   %  7.5977
     264    -32960.298     48.52291     -32911.77508  14.99358   189   %  7.6274
     265    -32960.548     48.68305     -32911.86493  14.90373   190   %  7.6660
     266    -32960.411     48.78342     -32911.62791  15.14075   191   %  7.6847
     267    -32960.433     48.80051     -32911.63237  15.13629   192   %  7.6888
     269    -32960.508     48.99556     -32911.51218  15.25648   193   %  7.7360
     270    -32960.116     49.08114     -32911.03465  15.73401   194   %  7.7543
     271    -32961.094     49.17196     -32911.92157  14.84709   195   %  7.7764
     272    -32960.599     49.33425     -32911.26508  15.50358   196   %  7.8191
     273    -32960.574     49.35373     -32911.22011  15.54855   197   %  7.8235
     275    -32960.963     49.55484     -32911.40793  15.36072   198   %  7.8596
     276    -32960.143     49.64357     -32910.49972  16.26894   199   %  7.8803
     277    -32960.794     49.73021     -32911.06348  15.70518   200   %  7.9026
     278    -32960.551     49.81922     -32910.73204  16.03662   201   %  7.9248
     279    -32960.586     49.98905     -32910.59735  16.17131   202   %  7.9574
     280    -32960.592     50.00707     -32910.58460  16.18405   203   %  7.9612
     282    -32960.647     50.19459     -32910.45265  16.31601   204   %  8.0064
     283    -32961.310     50.27927     -32911.03058  15.73808   205   %  8.0361
     284    -32960.632     50.37181     -32910.25996  16.50870   206   %  8.0534
     285    -32960.261     50.46148     -32909.79981  16.96885   207   %  8.0815
     286    -32960.234     50.65606     -32909.57783  17.19083   208   %  8.1113
     287    -32960.252     50.68993     -32909.56173  17.20693   209   %  8.1168
     289    -32960.632     50.92058     -32909.71143  17.05723   210   %  8.1542
     290    -32960.202     51.02320     -32909.17852  17.59014   211   %  8.1741
     291    -32961.374     51.11598     -32910.25832  16.51034   212   %  8.1957
     292    -32960.768     51.20464     -32909.56312  17.20554   213   %  8.2208
     293    -32960.659     51.29300     -32909.36610  17.40256   214   %  8.2419
     294    -32961.272     51.38102     -32909.89120  16.87746   215   %  8.2641
     296    -32960.580     51.58306     -32908.99694  17.77172   216   %  8.3054
     297    -32960.594     51.65327     -32908.94076  17.82790   217   %  8.3203
     298    -32961.070     51.74131     -32909.32885  17.43981   218   %  8.3512
     299    -32961.189     51.82528     -32909.36388  17.40478   219   %  8.3671
     300    -32960.851     51.90668     -32908.94429  17.82437   220   %  8.3941
     302    -32960.436     52.07838     -32908.35736  18.41130   221   %  8.4324
     303    -32960.508     52.16467     -32908.34313  18.42553   222   %  8.4557
     304    -32961.116     52.24711     -32908.86846  17.90020   223   %  8.4722
     305    -32961.207     52.37686     -32908.83061  17.93805   224   %  8.5059
     306    -32961.549     52.42142     -32909.12733  17.64133   225   %  8.5177
     307    -32960.418     52.51419     -32907.90335  18.86531   226   %  8.5318
     309    -32960.935     52.68622     -32908.24850  18.52016   227   %  8.5765
     310    -32961.402     52.75717     -32908.64527  18.12339   228   %  8.5983
     311    -32960.658     52.84050     -32907.81706  18.95160   229   %  8.6224
     312    -32960.961     52.93462     -32908.02687  18.74179   230   %  8.6370
     313    -32960.986     53.03052     -32907.95582  18.81284   231   %  8.6609
     314    -32960.765     53.12062     -32907.64469  19.12397   232   %  8.6756
     316    -32960.813     53.30820     -32907.50466  19.26400   233   %  8.7198
     317    -32961.126     53.39730     -32907.72826  19.04040   234   %  8.7459
     318    -32961.295     53.50243     -32907.79232  18.97634   235   %  8.7588
     319    -32960.946     53.67295     -32907.27332  19.49534   236   %  8.7937
     320    -32961.120     53.70829     -32907.41135  19.35731   237   %  8.8002
     321    -32961.352     53.81443     -32907.53770  19.23095   238   %  8.8204
     323    -32960.739     54.01528     -32906.72417  20.04449   239   %  8.8599
     324    -32960.835     54.11416     -32906.72108  20.04758   240   %  8.8848
     325    -32961.256     54.20410     -32907.05225  19.71641   241   %  8.9008
     326    -32961.345     54.29000     -32907.05538  19.71328   242   %  8.9298
     327    -32960.693     54.37678     -32906.31633  20.45233   243   %  8.9426
     328    -32960.897     54.45738     -32906.43920  20.32946   244   %  8.9731
     330    -32960.972     54.63096     -32906.34119  20.42747   245   %  9.0059
     331    -32961.864     54.71137     -32907.15281  19.61585   246   %  9.0258
     332    -32960.844     54.79506     -32906.04933  20.71932   247   %  9.0482
     333    -32960.957     54.88685     -32906.06999  20.69867   248   %  9.0668
     334    -32961.116     55.05772     -32906.05814  20.71052   249   %  9.0969
     335    -32961.124     55.07609     -32906.04841  20.72025   250   %  9.1011
     337    -32961.413     55.25074     -32906.16259  20.60607   251   %  9.1474
     338    -32960.888     55.34348     -32905.54479  21.22387   252   %  9.1618
     339    -32960.894     55.48221     -32905.41189  21.35677   253   %  9.1965
     340    -32961.008     55.51619     -32905.49170  21.27696   254   %  9.2045
     342    -32960.542     55.68774     -32904.85462  21.91404   255   %  9.2455
     343    -32961.667     55.77446     -32905.89286  20.87580   256   %  9.2552
     344    -32961.129     55.86463     -32905.26399  21.50466   257   %  9.2763
     345    -32961.433     55.96357     -32905.46986  21.29880   258   %  9.2940
     346    -32961.138     56.05115     -32905.08712  21.68154   259   %  9.3168
     348    -32961.052     56.22913     -32904.82266  21.94600   260   %  9.3591
     349    -32961.402     56.32384     -32905.07791  21.69075   261   %  9.3746
     350    -32961.695     56.42657     -32905.26820  21.50046   262   %  9.3975
     351    -32960.433     56.51995     -32903.91300  22.85565   263   %  9.4162
     352    -32961.251     56.61797     -32904.63323  22.13543   264   %  9.4391
     353    -32961.714     56.80726     -32904.90659  21.86207   265   %  9.4756
     355    -32960.941     56.93110     -32904.01037  22.75829   266   %  9.4931
     356    -32961.267     57.02320     -32904.24375  22.52491   267   %  9.5162
     357    -32961.111     57.10854     -32904.00271  22.76595   268   %  9.5327
     358    -32961.490     57.19482     -32904.29540  22.47326   269   %  9.5548
     359    -32961.429     57.33276     -32904.09651  22.67215   270   %  9.5886
     361    -32961.298     57.45299     -32903.84464  22.92402   271   %  9.6090
     362    -32960.975     57.55139     -32903.42387  23.34478   272   %  9.6288
     363    -32961.012     57.63806     -32903.37370  23.39496   273   %  9.6462
     364    -32961.303     57.77025     -32903.53295  23.23571   274   %  9.6797
     365    -32961.235     57.80582     -32903.42959  23.33906   275   %  9.6876
     366    -32961.196     57.89107     -32903.30520  23.46345   276   %  9.7157
     368    -32960.784     58.05952     -32902.72428  24.04438   277   %  9.7447
     369    -32961.424     58.13852     -32903.28559  23.48307   278   %  9.7655


           POTENTIAL ENERGY HAS STOPPED DROPPING


 **********************
 *                    *
 * JOB ENDED NORMALLY *
 *                    *
 **********************



 TOTAL JOB TIME:         75915.65 SECONDS

 == MOPAC DONE ==
