 *******************************************************************************
 ** Site#: 10005        For non-commercial use only     Version 15.324W 64BITS**
 *******************************************************************************
 ** Cite this work as:                                                        **
 **                                                                           **
 ** (a) MOPAC2012, James J. P. Stewart, Stewart Computational Chemistry,      **
 **  Version 15.324W web: HTTP://OpenMOPAC.net         Days remaining: 365    **
 **                                                                           **
 **                                 AND                                       **
 **                                                                           **
 ** (b) Maia, J.D.C., et al., J. Chem. Theory Comput. 2012, 8, 3072-3081.     **
 **                DOI: 10.1021/ct3004645.                                    **
 *******************************************************************************
 **                                                                           **
 **                                MOPAC2012                                  **
 **                                                                           **
 *******************************************************************************

                              PM6 CALCULATION RESULTS


 *******************************************************************************
 *  CALCULATION DONE:                                Fri Nov 20 20:12:33 2015  *
 *  PM6        - The PM6 Hamiltonian to be used
 *  MOZYME     - USE LOCALIZED M.O.s IN SOLVING THE SCF EQUATIONS
 *  RESIDUES   - DETERMINE THE SEQUENCE OF RESIDUES
 *  1SCF       - DO 1 SCF AND THEN STOP 
 *  T=         - A TIME OF 172800.0 SECONDS REQUESTED
 *  DUMP=N     - RESTART FILE WRITTEN EVERY  7200.000 SECONDS
 *******************************************************************************
      PM6 HTML MOZYME 1SCF residues
      Bromination reactants

  ATOM               CHEMICAL                 BOND LENGTH      BOND ANGLE     TWIST ANGLE 
 NUMBER               SYMBOL                  (ANGSTROMS)      (DEGREES)       (DEGREES) 
   (I)                                           NA:I           NB:NA:I       NC:NB:NA:I       NA    NB    NC 
     1       C(HETATM    1  C   HET A   1)    0.00000000       0.0000000       0.0000000   
     2       C(HETATM    2  C   HET A   1)    1.40861578  *    0.0000000       0.0000000        1     0     0
     3       C(HETATM    3  C   HET A   1)    1.39698266  *  120.1069618  *    0.0000000        2     1     0
     4       C(HETATM    4  C   HET A   1)    1.39994842  *  119.9621812  *   -0.3601704  *     3     2     1
     5       C(HETATM    5  C   HET A   1)    1.39937336  *  120.3256486  *    0.2861203  *     4     3     2
     6       C(HETATM    6  C   HET A   1)    1.39698203  *  119.9350276  *   -0.2501065  *     5     4     3
     7       H(HETATM    7 1HT  HET A   1)    1.09463710  *  120.0399027  *  172.4655202  *     1     2     3
     8       H(HETATM    8 2HT  HET A   1)    1.09076357  *  119.6605914  * -179.9297720  *     2     1     3
     9       H(HETATM    9 3HT  HET A   1)    1.08947148  *  120.0930669  *  179.9852163  *     3     2     4
    10       H(HETATM   10 4HT  HET A   1)    1.09052112  *  119.7840543  *  179.8045257  *     4     3     5
    11       H(HETATM   11 5HT  HET A   1)    1.08942804  *  119.9959041  *  179.8875869  *     5     4     6
    12       H(HETATM   12 6HT  HET A   1)    1.09084438  *  120.3906918  * -179.6706779  *     6     5     4
    13      Br(HETATM   13 Br   HET A   1)    2.77536187  *   64.2803974  *   94.3226291  *     7     1     2
    14      Br(HETATM   14 Br   HET A   1)    2.35419102  *  150.0061301  * -179.0810785  *    13     7     1
    15      Al(HETATM   15 Al   HET A   1)    4.57430567  *  152.1161657  *  119.6065707  *    12     6     5
    16      Br(HETATM   16 Br   HET A   1)    2.21775048  *  116.6382999  *   89.0043692  *    15    12     6
    17      Br(HETATM   17 Br   HET A   1)    2.21966830  *  112.6463625  *  145.7139295  *    15    12    16
    18      Br(HETATM   18 Br   HET A   1)    2.96637006  *  128.4977602  *   -7.8949913  *    12     6    15
 

     ===================== shared-memory parallel CPU Section ======================
     **                                                                           **
     **  MOPAC calculations will run in shared-memory parallel CPUs               **
     **                                                                           **
     **  Number of Threads =  4                                                   **
     **                                                                           **
     **                                                                           **
     **  For information on this work, see:                                       **
     **                                                                           **
     **  Maia, J.D.C., et al., J. Chem. Theory Comput. 2012, 8, 3072-3081.        **
     **        DOI: 10.1021/ct3004645.                                            **
     **                                                                           **
     ===================== shared-memory parallel CPU Section ======================
      


 General Reference for PM6:
 "Optimization of Parameters for Semiempirical Methods V: Modification of NDDO Approximations
 and Application to 70 Elements", J. J. P. Stewart, J. Mol. Mod., 13, 1173-1213 (2007)
 URL: http://www.springerlink.com/content/ar33482301010477/fulltext.pdf

           Empirical Formula: C6 H6 Br5 Al  =    18 atoms



      MOLECULAR POINT GROUP   :   C1  

                Residue names that have changed
       Original residue name   Calculated residue name

             1 A  HET                  5 A   AL

 -------------------------------------------------------------------------------
      PM6 HTML MOZYME 1SCF residues
      Bromination reactants



     1SCF WAS SPECIFIED, SO BFGS WAS NOT USED                 
     SCF FIELD WAS ACHIEVED                                   


                              PM6 CALCULATION
                                                       MOPAC2012 (Version: 15.324W)
                                                       Fri Nov 20 20:12:33 2015
                                                       No. of days left = 365




          FINAL HEAT OF FORMATION =        -82.65253 KCAL/MOL =    -345.81818 KJ/MOL


          TOTAL ENERGY            =      -2012.40588 EV
          ELECTRONIC ENERGY       =      -9014.04575 EV
          CORE-CORE REPULSION     =       7001.63987 EV

          NO. OF FILLED LEVELS    =         34
          MOLECULAR WEIGHT        =        504.615

          MOLECULAR DIMENSIONS (Angstroms)

            Atom       Atom       Distance
           Br    17    H     9    10.57559
            H    10   Br    14     6.52540
            H    11   Br    16     4.47727


          SCF CALCULATIONS        =          1
 
          WALL-CLOCK TIME         =          0.625 SECONDS
          COMPUTATION TIME        =          0.608 SECONDS




  ATOM               CHEMICAL                 BOND LENGTH      BOND ANGLE     TWIST ANGLE 
 NUMBER               SYMBOL                  (ANGSTROMS)      (DEGREES)       (DEGREES) 
   (I)                                           NA:I           NB:NA:I       NC:NB:NA:I       NA    NB    NC 
     1       C(HETATM    1  C1  HET A   3)    0.00000000       0.0000000       0.0000000   
     2       C(HETATM    2  C2  HET A   3)    1.40861578  *    0.0000000       0.0000000        1     0     0
     3       C(HETATM    3  C3  HET A   3)    1.39698266  *  120.1069618  *    0.0000000        2     1     0
     4       C(HETATM    4  C4  HET A   3)    1.39994842  *  119.9621812  *   -0.3601704  *     3     2     1
     5       C(HETATM    5  C5  HET A   3)    1.39937336  *  120.3256486  *    0.2861203  *     4     3     2
     6       C(HETATM    6  C6  HET A   3)    1.39698203  *  119.9350276  *   -0.2501065  *     5     4     3
     7       H(HETATM    7  H1  HET A   3)    1.09463710  *  120.0399027  *  172.4655202  *     1     2     3
     8       H(HETATM    8  H2  HET A   3)    1.09076357  *  119.6605914  * -179.9297720  *     2     1     3
     9       H(HETATM    9  H3  HET A   3)    1.08947148  *  120.0930669  *  179.9852163  *     3     2     4
    10       H(HETATM   10  H4  HET A   3)    1.09052112  *  119.7840543  *  179.8045257  *     4     3     5
    11       H(HETATM   11  H5  HET A   3)    1.08942804  *  119.9959041  *  179.8875869  *     5     4     6
    12       H(HETATM   12  H6  HET A   3)    1.09084438  *  120.3906918  * -179.6706779  *     6     5     4
    13      Br(HETATM   13 BR1  HET A   4)    2.77536187  *   64.2803974  *   94.3226291  *     7     1     2
    14      Br(HETATM   14 BR2  HET A   4)    2.35419102  *  150.0061301  * -179.0810785  *    13     7     1
    15      Al(HETATM   15 AL    AL A   5)    4.57430567  *  152.1161657  *  119.6065707  *    12     6     5
    16      Br(HETATM   16 BR1   AL A   5)    2.21775048  *  116.6382999  *   89.0043692  *    15    12     6
    17      Br(HETATM   17 BR2   AL A   5)    2.21966830  *  112.6463625  *  145.7139295  *    15    12    16
    18      Br(HETATM   18 BR3   AL A   5)    2.96637006  *  128.4977602  *   -7.8949913  *    12     6    15

                             CARTESIAN COORDINATES

   1    C        0.000000000     0.000000000     0.000000000
   2    C        1.408615780     0.000000000     0.000000000
   3    C        2.109364431     1.208516396     0.000000000
   4    C        1.410874542     2.421739099    -0.007624135
   5    C        0.011535425     2.431395772    -0.009232410
   6    C       -0.693922028     1.225622979    -0.008493827
   7    H       -0.547978625    -0.939420665    -0.124252251
   8    H        1.948392238    -0.947842387    -0.001161780
   9    H        3.198818418     1.208262312     0.006168660
  10    H        1.960834571     3.363428060    -0.009100175
  11    H       -0.526587665     3.378642833    -0.009207259
  12    H       -1.784745513     1.224460568    -0.015144773
  13   Br       -0.108191157    -0.139184331     2.496595379
  14   Br       -0.332841595    -0.518306228     4.809172757
  15   Al       -5.815437948     0.155473146    -1.895319433
  16   Br       -6.679508806    -1.811190534    -1.343927819
  17   Br       -7.124452135     1.926102363    -2.175107558
  18   Br       -3.617174781     0.354648505    -2.179626532


           Empirical Formula: C6 H6 Br5 Al  =    18 atoms



              NET ATOMIC CHARGES AND DIPOLE CONTRIBUTIONS

  ATOM NO.                 TYPE                        CHARGE      No. of ELECS.   s-Pop       p-Pop       d-Pop       
    1          C(HETATM    1  C1  HET A   3)          -0.225837        4.2258     1.11243     3.11341
    2          C(HETATM    2  C2  HET A   3)          -0.071030        4.0710     1.11194     2.95909
    3          C(HETATM    3  C3  HET A   3)          -0.180273        4.1803     1.10820     3.07207
    4          C(HETATM    4  C4  HET A   3)          -0.077586        4.0776     1.11065     2.96693
    5          C(HETATM    5  C5  HET A   3)          -0.179446        4.1794     1.10808     3.07136
    6          C(HETATM    6  C6  HET A   3)          -0.072789        4.0728     1.11233     2.96046
    7          H(HETATM    7  H1  HET A   3)           0.175038        0.8250     0.82496
    8          H(HETATM    8  H2  HET A   3)           0.154140        0.8459     0.84586
    9          H(HETATM    9  H3  HET A   3)           0.157887        0.8421     0.84211
   10          H(HETATM   10  H4  HET A   3)           0.148800        0.8512     0.85120
   11          H(HETATM   11  H5  HET A   3)           0.158386        0.8416     0.84161
   12          H(HETATM   12  H6  HET A   3)           0.156377        0.8436     0.84362
   13         Br(HETATM   13 BR1  HET A   4)           0.001911        6.9981     1.99354     4.99365     0.01090
   14         Br(HETATM   14 BR2  HET A   4)          -0.145924        7.1459     1.99116     5.14924     0.00552
   15         Al(HETATM   15 AL    AL A   5)           0.682030        2.3180     0.90644     1.35792     0.05361
   16         Br(HETATM   16 BR1   AL A   5)          -0.219899        7.2199     1.98352     5.23183     0.00455
   17         Br(HETATM   17 BR2   AL A   5)          -0.223643        7.2236     1.98359     5.23552     0.00453
   18         Br(HETATM   18 BR3   AL A   5)          -0.238142        7.2381     1.98395     5.24941     0.00478
 DIPOLE           X         Y         Z       TOTAL
 POINT-CHG.     0.495     1.155    -3.419     3.643
 HYBRID         0.003    -0.017     0.132     0.133
 SUM            0.498     1.138    -3.287     3.514


          ATOMIC ORBITAL ELECTRON POPULATIONS

                   Atom                  s        px        py        pz      x^2-y^2     xz        z^2       yz        xy
    1  C(HETATM    1  C1  HET A   3)   1.11243   1.01360   1.06201   1.03779
    2  C(HETATM    2  C2  HET A   3)   1.11194   0.98518   1.04449   0.92941
    3  C(HETATM    3  C3  HET A   3)   1.10820   1.07356   0.97872   1.01978
    4  C(HETATM    4  C4  HET A   3)   1.11065   0.99282   1.03870   0.93541
    5  C(HETATM    5  C5  HET A   3)   1.10808   1.00265   1.04962   1.01909
    6  C(HETATM    6  C6  HET A   3)   1.11233   1.06620   0.96502   0.92924
    7  H(HETATM    7  H1  HET A   3)   0.82496
    8  H(HETATM    8  H2  HET A   3)   0.84586
    9  H(HETATM    9  H3  HET A   3)   0.84211
   10  H(HETATM   10  H4  HET A   3)   0.85120
   11  H(HETATM   11  H5  HET A   3)   0.84161
   12  H(HETATM   12  H6  HET A   3)   0.84362
   13 Br(HETATM   13 BR1  HET A   4)   1.99354   1.98664   1.97122   1.03579   0.00018   0.00222   0.00605   0.00230   0.00015
   14 Br(HETATM   14 BR2  HET A   4)   1.99116   1.99095   1.97673   1.18156   0.00004   0.00123   0.00288   0.00132   0.00004
   15 Al(HETATM   15 AL    AL A   5)   0.90644   0.56237   0.55405   0.24150   0.01600   0.00787   0.00601   0.00781   0.01591
   16 Br(HETATM   16 BR1   AL A   5)   1.98352   1.86865   1.47837   1.88480   0.00140   0.00021   0.00069   0.00075   0.00150
   17 Br(HETATM   17 BR2   AL A   5)   1.98359   1.74954   1.57327   1.91271   0.00099   0.00020   0.00084   0.00039   0.00212
   18 Br(HETATM   18 BR3   AL A   5)   1.98395   1.37700   1.95661   1.91580   0.00220   0.00071   0.00084   0.00008   0.00095

 **********************
 *                    *
 * JOB ENDED NORMALLY *
 *                    *
 **********************



 TOTAL JOB TIME:             0.69 SECONDS

 == MOPAC DONE ==
