 *******************************************************************************
 ** Site#: 10005        For non-commercial use only     Version 15.322W 64BITS**
 *******************************************************************************
 ** Cite this work as:                                                        **
 **                                                                           **
 ** (a) MOPAC2012, James J. P. Stewart, Stewart Computational Chemistry,      **
 **  Version 15.322W web: HTTP://OpenMOPAC.net         Days remaining: 363    **
 **                                                                           **
 **                                 AND                                       **
 **                                                                           **
 ** (b) Maia, J.D.C., et al., J. Chem. Theory Comput. 2012, 8, 3072-3081.     **
 **                DOI: 10.1021/ct3004645.                                    **
 *******************************************************************************
 **                                                                           **
 **                                MOPAC2012                                  **
 **                                                                           **
 *******************************************************************************

                              PM6 CALCULATION RESULTS


 *******************************************************************************
 *  CALCULATION DONE:                                Fri Nov 20 20:18:55 2015  *
 *  PM6        - The PM6 Hamiltonian to be used
 *  MOZYME     - USE LOCALIZED M.O.s IN SOLVING THE SCF EQUATIONS
 *  1SCF       - DO 1 SCF AND THEN STOP 
 *  T=         - A TIME OF 172800.0 SECONDS REQUESTED
 *  DUMP=N     - RESTART FILE WRITTEN EVERY  7200.000 SECONDS
 *******************************************************************************
      PM6 HTML 1scf mozyme
      Bromination products

  ATOM               CHEMICAL                 BOND LENGTH      BOND ANGLE     TWIST ANGLE 
 NUMBER               SYMBOL                  (ANGSTROMS)      (DEGREES)       (DEGREES) 
   (I)                                           NA:I           NB:NA:I       NC:NB:NA:I       NA    NB    NC 
     1       C(HETATM    1  C   HET A   1)    0.00000000       0.0000000       0.0000000   
     2       C(HETATM    2  C   HET A   1)    1.39880453  *    0.0000000       0.0000000        1     0     0
     3       C(HETATM    3  C   HET A   1)    1.39889449  *  120.1985737  *    0.0000000        2     1     0
     4       C(HETATM    4  C   HET A   1)    1.39891545  *  120.2144172  *    0.7511077  *     3     2     1
     5       C(HETATM    5  C   HET A   1)    1.39669129  *  118.8195457  *   -0.1474015  *     4     3     2
     6       C(HETATM    6  C   HET A   1)    1.39708142  *  121.7316407  *   -0.5748525  *     5     4     3
     7       H(HETATM    7 1HT  HET A   1)    1.09003565  *  120.0589158  *  179.3387855  *     1     2     3
     8       H(HETATM    8 2HT  HET A   1)    1.09017529  *  119.8555722  * -179.7160405  *     2     1     3
     9       H(HETATM    9 3HT  HET A   1)    1.09012089  *  120.1335047  *  179.4294431  *     3     2     4
    10       H(HETATM   10 4HT  HET A   1)    1.09090054  *  120.3118530  *  179.7537918  *     4     3     5
    11       H(HETATM   11  H   HET A   1)    3.60515379  *   92.2775759  *  135.9439683  *     1     2     7
    12       H(HETATM   12 5HT  HET A   1)    1.09099011  *  120.9114445  * -179.3847074  *     6     5     4
    13      Br(HETATM   13 Br   HET A   1)    1.91162045  *  119.2017482  *  178.5414963  *     5     4     6
    14      Br(HETATM   14 Br   HET A   1)    1.45380689  *  106.2085058  *  -55.4500197  *    11     1     2
    15      Al(HETATM   15 Al   HET A   1)    5.39806263  *   77.6447769  *   83.7079374  *    12     6     5
    16      Br(HETATM   16 Br   HET A   1)    2.22293814  *  120.1331290  *   79.9637600  *    15    12     6
    17      Br(HETATM   17 Br   HET A   1)    2.22069209  *  116.6127805  *  158.4144517  *    15    12    16
    18      Br(HETATM   18 Br   HET A   1)    2.22012318  *   18.8755110  *  106.9310234  *    15    12    17
 

     ===================== shared-memory parallel CPU Section ======================
     **                                                                           **
     **  MOPAC calculations will run in shared-memory parallel CPUs               **
     **                                                                           **
     **  Number of Threads =  4                                                   **
     **                                                                           **
     **                                                                           **
     **  For information on this work, see:                                       **
     **                                                                           **
     **  Maia, J.D.C., et al., J. Chem. Theory Comput. 2012, 8, 3072-3081.        **
     **        DOI: 10.1021/ct3004645.                                            **
     **                                                                           **
     ===================== shared-memory parallel CPU Section ======================
      


 General Reference for PM6:
 "Optimization of Parameters for Semiempirical Methods V: Modification of NDDO Approximations
 and Application to 70 Elements", J. J. P. Stewart, J. Mol. Mod., 13, 1173-1213 (2007)
 URL: http://www.springerlink.com/content/ar33482301010477/fulltext.pdf

           Empirical Formula: C6 H6 Br5 Al  =    18 atoms



      MOLECULAR POINT GROUP   :   C1  

 -------------------------------------------------------------------------------
      PM6 HTML 1scf mozyme
      Bromination products



     1SCF WAS SPECIFIED, SO BFGS WAS NOT USED                 
     SCF FIELD WAS ACHIEVED                                   


                              PM6 CALCULATION
                                                       MOPAC2012 (Version: 15.322W)
                                                       Fri Nov 20 20:18:56 2015
                                                       No. of days left = 363




          FINAL HEAT OF FORMATION =        -95.53886 KCAL/MOL =    -399.73459 KJ/MOL


          TOTAL ENERGY            =      -2012.96469 EV
          ELECTRONIC ENERGY       =      -9466.19826 EV
          CORE-CORE REPULSION     =       7453.23358 EV

          NO. OF FILLED LEVELS    =         34
          MOLECULAR WEIGHT        =        504.615

          MOLECULAR DIMENSIONS (Angstroms)

            Atom       Atom       Distance
           Br    16   Br    14    10.33399
           Br    17    H     8     6.46580
            H    12    H     9     4.40118


          SCF CALCULATIONS        =          1
 
          WALL-CLOCK TIME         =          0.828 SECONDS
          COMPUTATION TIME        =          0.764 SECONDS




  ATOM               CHEMICAL                 BOND LENGTH      BOND ANGLE     TWIST ANGLE 
 NUMBER               SYMBOL                  (ANGSTROMS)      (DEGREES)       (DEGREES) 
   (I)                                           NA:I           NB:NA:I       NC:NB:NA:I       NA    NB    NC 
     1       C(HETATM    1  C   HET A   1)    0.00000000       0.0000000       0.0000000   
     2       C(HETATM    2  C   HET A   1)    1.39880453  *    0.0000000       0.0000000        1     0     0
     3       C(HETATM    3  C   HET A   1)    1.39889449  *  120.1985737  *    0.0000000        2     1     0
     4       C(HETATM    4  C   HET A   1)    1.39891545  *  120.2144172  *    0.7511077  *     3     2     1
     5       C(HETATM    5  C   HET A   1)    1.39669129  *  118.8195457  *   -0.1474015  *     4     3     2
     6       C(HETATM    6  C   HET A   1)    1.39708142  *  121.7316407  *   -0.5748525  *     5     4     3
     7       H(HETATM    7 1HT  HET A   1)    1.09003565  *  120.0589158  *  179.3387855  *     1     2     3
     8       H(HETATM    8 2HT  HET A   1)    1.09017529  *  119.8555722  * -179.7160405  *     2     1     3
     9       H(HETATM    9 3HT  HET A   1)    1.09012089  *  120.1335047  *  179.4294431  *     3     2     4
    10       H(HETATM   10 4HT  HET A   1)    1.09090054  *  120.3118530  *  179.7537918  *     4     3     5
    11       H(HETATM   11  H   HET A   1)    3.60515379  *   92.2775759  *  135.9439683  *     1     2     7
    12       H(HETATM   12 5HT  HET A   1)    1.09099011  *  120.9114445  * -179.3847074  *     6     5     4
    13      Br(HETATM   13 Br   HET A   1)    1.91162045  *  119.2017482  *  178.5414963  *     5     4     6
    14      Br(HETATM   14 Br   HET A   1)    1.45380689  *  106.2085058  *  -55.4500197  *    11     1     2
    15      Al(HETATM   15 Al   HET A   1)    5.39806263  *   77.6447769  *   83.7079374  *    12     6     5
    16      Br(HETATM   16 Br   HET A   1)    2.22293814  *  120.1331290  *   79.9637600  *    15    12     6
    17      Br(HETATM   17 Br   HET A   1)    2.22069209  *  116.6127805  *  158.4144517  *    15    12    16
    18      Br(HETATM   18 Br   HET A   1)    2.22012318  *   18.8755110  *  106.9310234  *    15    12    17

                             CARTESIAN COORDINATES

   1    C        0.000000000     0.000000000     0.000000000
   2    C        1.398804530     0.000000000     0.000000000
   3    C        2.102446264     1.209046775     0.000000000
   4    C        1.411828938     2.425501056     0.015846992
   5    C        0.015319737     2.406764262     0.028398667
   6    C       -0.703621292     1.208957474     0.013593599
   7    H       -0.545988227    -0.943374814    -0.010887378
   8    H        1.941510565    -0.945478908    -0.004685859
   9    H        3.192562406     1.207811114    -0.002970951
  10    H        1.959000129     3.369230629     0.022340573
  11    H       -0.143271445     2.559754264     2.534613433
  12    H       -1.794610816     1.210088534     0.013627797
  13   Br       -0.938925558     4.061201905     0.109298280
  14   Br        0.631694574     2.061230582     3.659093882
  15   Al       -0.639074992     1.851590402    -5.220136859
  16   Br       -0.074871600     0.096132077    -6.461706259
  17   Br       -1.441225623     3.676045392    -6.199622292
  18   Br       -0.409926868     1.763906745    -3.013612522


           Empirical Formula: C6 H6 Br5 Al  =    18 atoms



              NET ATOMIC CHARGES AND DIPOLE CONTRIBUTIONS

  ATOM NO.                 TYPE                        CHARGE      No. of ELECS.   s-Pop       p-Pop       d-Pop       
    1          C(HETATM    1  C   HET A   1)          -0.122582        4.1226     1.10743     3.01515
    2          C(HETATM    2  C   HET A   1)          -0.131811        4.1318     1.10898     3.02283
    3          C(HETATM    3  C   HET A   1)          -0.122242        4.1222     1.10780     3.01444
    4          C(HETATM    4  C   HET A   1)          -0.148208        4.1482     1.10989     3.03831
    5          C(HETATM    5  C   HET A   1)          -0.002572        4.0026     1.10053     2.90204
    6          C(HETATM    6  C   HET A   1)          -0.165586        4.1656     1.10981     3.05578
    7          H(HETATM    7 1HT  HET A   1)           0.155870        0.8441     0.84413
    8          H(HETATM    8 2HT  HET A   1)           0.154421        0.8456     0.84558
    9          H(HETATM    9 3HT  HET A   1)           0.155657        0.8443     0.84434
   10          H(HETATM   10 4HT  HET A   1)           0.171290        0.8287     0.82871
   11          H(HETATM   11  H   HET A   1)           0.215606        0.7844     0.78439
   12          H(HETATM   12 5HT  HET A   1)           0.172461        0.8275     0.82754
   13         Br(HETATM   13 Br   HET A   1)          -0.104206        7.1042     1.98787     5.10813     0.00820
   14         Br(HETATM   14 Br   HET A   1)          -0.220462        7.2205     1.98196     5.23574     0.00276
   15         Al(HETATM   15 Al   HET A   1)           0.679499        2.3205     0.91116     1.35587     0.05348
   16         Br(HETATM   16 Br   HET A   1)          -0.230323        7.2303     1.98380     5.24202     0.00450
   17         Br(HETATM   17 Br   HET A   1)          -0.227579        7.2276     1.98363     5.23943     0.00452
   18         Br(HETATM   18 Br   HET A   1)          -0.229232        7.2292     1.98381     5.23903     0.00639
 DIPOLE           X         Y         Z       TOTAL
 POINT-CHG.     0.654    -1.746    -1.105     2.167
 HYBRID        -0.180     0.452     0.119     0.501
 SUM            0.474    -1.294    -0.986     1.695


          ATOMIC ORBITAL ELECTRON POPULATIONS

                   Atom                  s        px        py        pz      x^2-y^2     xz        z^2       yz        xy
    1  C(HETATM    1  C   HET A   1)   1.10743   0.99638   1.03816   0.98062
    2  C(HETATM    2  C   HET A   1)   1.10898   0.99700   1.04582   0.98001
    3  C(HETATM    3  C   HET A   1)   1.10780   1.06800   0.96684   0.97961
    4  C(HETATM    4  C   HET A   1)   1.10989   0.98249   1.05828   0.99754
    5  C(HETATM    5  C   HET A   1)   1.10053   0.95542   0.88094   1.06568
    6  C(HETATM    6  C   HET A   1)   1.10981   1.07983   0.96564   1.01031
    7  H(HETATM    7 1HT  HET A   1)   0.84413
    8  H(HETATM    8 2HT  HET A   1)   0.84558
    9  H(HETATM    9 3HT  HET A   1)   0.84434
   10  H(HETATM   10 4HT  HET A   1)   0.82871
   11  H(HETATM   11  H   HET A   1)   0.78439
   12  H(HETATM   12 5HT  HET A   1)   0.82754
   13 Br(HETATM   13 Br   HET A   1)   1.98787   1.78082   1.35454   1.97278   0.00236   0.00035   0.00148   0.00106   0.00294
   14 Br(HETATM   14 Br   HET A   1)   1.98196   1.78268   1.90986   1.54320   0.00007   0.00126   0.00061   0.00057   0.00025
   15 Al(HETATM   15 Al   HET A   1)   0.91116   0.26400   0.52303   0.56884   0.00796   0.00865   0.01370   0.01529   0.00787
   16 Br(HETATM   16 Br   HET A   1)   1.98380   1.88836   1.58219   1.77146   0.00099   0.00031   0.00060   0.00191   0.00069
   17 Br(HETATM   17 Br   HET A   1)   1.98363   1.84673   1.54890   1.84380   0.00101   0.00038   0.00055   0.00148   0.00109
   18 Br(HETATM   18 Br   HET A   1)   1.98381   1.92086   1.95518   1.36299   0.00008   0.00081   0.00422   0.00122   0.00007

 **********************
 *                    *
 * JOB ENDED NORMALLY *
 *                    *
 **********************



 TOTAL JOB TIME:             0.95 SECONDS

 == MOPAC DONE ==
