 *******************************************************************************
 ** Site#: 10005        For non-commercial use only     Version 15.324W 64BITS**
 *******************************************************************************
 ** Cite this work as:                                                        **
 **                                                                           **
 ** (a) MOPAC2012, James J. P. Stewart, Stewart Computational Chemistry,      **
 **  Version 15.324W web: HTTP://OpenMOPAC.net         Days remaining: 364    **
 **                                                                           **
 **                                 AND                                       **
 **                                                                           **
 ** (b) Maia, J.D.C., et al., J. Chem. Theory Comput. 2012, 8, 3072-3081.     **
 **                DOI: 10.1021/ct3004645.                                    **
 *******************************************************************************
 **                                                                           **
 **                                MOPAC2012                                  **
 **                                                                           **
 *******************************************************************************

                              PM6 CALCULATION RESULTS


 *******************************************************************************
 *  CALCULATION DONE:                                Sat Nov 21 11:27:24 2015  *
 *  PM6        - The PM6 Hamiltonian to be used
 *  0SCF       - AFTER READING AND PRINTING DATA, STOP
 *  T=         - A TIME OF 172800.0 SECONDS REQUESTED
 *  DUMP=N     - RESTART FILE WRITTEN EVERY  7200.000 SECONDS
 *******************************************************************************
0scf html pm6
   test

   ATOM                 CHEMICAL                   X               Y               Z
  NUMBER                 SYMBOL               (ANGSTROMS)     (ANGSTROMS)     (ANGSTROMS)
 
     1       C(HETATM    1  C1  HET A   3)   -0.12808663  *  -0.62081834  *   0.24071779  *
     2       C(HETATM    2  C2  HET A   3)    1.20908702  *  -0.46587487  *  -0.13033489  *
     3       C(HETATM    3  C3  HET A   3)    1.74715882  *   0.81936360  *  -0.27372738  *
     4       C(HETATM    4  C4  HET A   3)    0.97066886  *   1.95722744  *  -0.02739277  *
     5       C(HETATM    5  C5  HET A   3)   -0.36924649  *   1.80680139  *   0.38386788  *
     6       C(HETATM    6  C6  HET A   3)   -0.90880652  *   0.51245807  *   0.47618105  *
     7       H(HETATM    7  H1  HET A   3)   -0.53033899  *  -1.62177625  *   0.38925104  *
     8       H(HETATM    8  H2  HET A   3)    1.80795346  *  -1.34301864  *  -0.38057374  *
     9       H(HETATM    9  H3  HET A   3)    2.74832842  *   0.94016720  *  -0.69876818  *
    10       H(HETATM   10  H4  HET A   3)    1.38558586  *   2.95501696  *  -0.17655454  *
    11       H(HETATM   11  H5  HET A   3)   -1.05352182  *   2.52151011  *   0.98948041  *
    12       H(HETATM   12  H6  HET A   3)   -1.90693647  *   0.37966774  *   0.90293147  *
    13      Br(HETATM   13 BR1  HET A   4)   -0.49465100  *   2.56347570  *   2.59213342  *
    14      Br(HETATM   14 BR2  HET A   4)   -0.29581243  *   2.06493464  *   4.79390947  *
    15      Al(HETATM   15 AL    AL A   5)   -4.85488904  *   0.52607575  *  -2.39216410  *
    16      Br(HETATM   16 BR1   AL A   5)   -5.57439344  *  -1.56341234  *  -2.47454606  *
    17      Br(HETATM   17 BR2   AL A   5)   -6.25926120  *   2.23204783  *  -2.55440415  *
    18      Br(HETATM   18 BR3   AL A   5)   -2.66607658  *   0.75464905  *  -2.13026285  *
 

     ===================== shared-memory parallel CPU Section ======================
     **                                                                           **
     **  MOPAC calculations will run in shared-memory parallel CPUs               **
     **                                                                           **
     **  Number of Threads =  4                                                   **
     **                                                                           **
     **                                                                           **
     **  For information on this work, see:                                       **
     **                                                                           **
     **  Maia, J.D.C., et al., J. Chem. Theory Comput. 2012, 8, 3072-3081.        **
     **        DOI: 10.1021/ct3004645.                                            **
     **                                                                           **
     ===================== shared-memory parallel CPU Section ======================
      


 General Reference for PM6:
 "Optimization of Parameters for Semiempirical Methods V: Modification of NDDO Approximations
 and Application to 70 Elements", J. J. P. Stewart, J. Mol. Mod., 13, 1173-1213 (2007)
 URL: http://www.springerlink.com/content/ar33482301010477/fulltext.pdf

           Empirical Formula: C6 H6 Br5 Al  =    18 atoms



      MOLECULAR POINT GROUP   :   C1  


      RHF CALCULATION, NO. OF DOUBLY OCCUPIED LEVELS =   34

 GEOMETRY OF SYSTEM SUPPLIED
0scf html pm6
   test

  C(HETATM    1  C1  HET A   3)  -0.12808663 +1  -0.62081834 +1   0.24071779 +1
  C(HETATM    2  C2  HET A   3)   1.20908702 +1  -0.46587487 +1  -0.13033489 +1
  C(HETATM    3  C3  HET A   3)   1.74715882 +1   0.81936360 +1  -0.27372738 +1
  C(HETATM    4  C4  HET A   3)   0.97066886 +1   1.95722744 +1  -0.02739277 +1
  C(HETATM    5  C5  HET A   3)  -0.36924649 +1   1.80680139 +1   0.38386788 +1
  C(HETATM    6  C6  HET A   3)  -0.90880652 +1   0.51245807 +1   0.47618105 +1
  H(HETATM    7  H1  HET A   3)  -0.53033899 +1  -1.62177625 +1   0.38925104 +1
  H(HETATM    8  H2  HET A   3)   1.80795346 +1  -1.34301864 +1  -0.38057374 +1
  H(HETATM    9  H3  HET A   3)   2.74832842 +1   0.94016720 +1  -0.69876818 +1
  H(HETATM   10  H4  HET A   3)   1.38558586 +1   2.95501696 +1  -0.17655454 +1
  H(HETATM   11  H5  HET A   3)  -1.05352182 +1   2.52151011 +1   0.98948041 +1
  H(HETATM   12  H6  HET A   3)  -1.90693647 +1   0.37966774 +1   0.90293147 +1
 Br(HETATM   13 BR1  HET A   4)  -0.49465100 +1   2.56347570 +1   2.59213342 +1
 Br(HETATM   14 BR2  HET A   4)  -0.29581243 +1   2.06493464 +1   4.79390947 +1
 Al(HETATM   15 AL    AL A   5)  -4.85488904 +1   0.52607575 +1  -2.39216410 +1
 Br(HETATM   16 BR1   AL A   5)  -5.57439344 +1  -1.56341234 +1  -2.47454606 +1
 Br(HETATM   17 BR2   AL A   5)  -6.25926120 +1   2.23204783 +1  -2.55440415 +1
 Br(HETATM   18 BR3   AL A   5)  -2.66607658 +1   0.75464905 +1  -2.13026285 +1
 

 **********************
 *                    *
 * JOB ENDED NORMALLY *
 *                    *
 **********************



 TOTAL JOB TIME:             5.54 SECONDS

 == MOPAC DONE ==
