
          
 *******************************************************************************
 ** Site#: 10005        For non-commercial use only     Version 15.324W 64BITS**
 *******************************************************************************
 ** Cite this work as:                                                        **
 **                                                                           **
 ** (a) MOPAC2012, James J. P. Stewart, Stewart Computational Chemistry,      **
 **  Version 15.324W web: HTTP://OpenMOPAC.net         Days remaining: 365    **
 **                                                                           **
 **                                 AND                                       **
 **                                                                           **
 ** (b) Maia, J.D.C., et al., J. Chem. Theory Comput. 2012, 8, 3072-3081.     **
 **                DOI: 10.1021/ct3004645.                                    **
 *******************************************************************************
 **                                                                           **
 **                                MOPAC2012                                  **
 **                                                                           **
 *******************************************************************************

                              PM6 CALCULATION RESULTS


 *******************************************************************************
 *  CALCULATION DONE:                                Fri Nov 20 19:40:33 2015  *
 *  PM6        - The PM6 Hamiltonian to be used
 *  GEO-OK     - OVERRIDE INTERATOMIC DISTANCE AND OTHER SAFETY CHECKS
 *  GEO_DAT    - DATA SET GEOMETRY IS IN FILE "BROMINATION REACTANTS.ARC"
 *  GEO_REF    - REFERENCE GEOMETRY IS IN FILE "BROMINATION PRODUCTS.ARC"
 *  OPT        - OPTIMIZE COORDINATES OF ALL ATOMS
 *  XYZ        - CARTESIAN COORDINATE SYSTEM TO BE USED
 *  LOCATE-TS  - LOCATE A TRANSITION STATE IN A PROTEIN MECHANISM
 *  0SCF       - AFTER READING AND PRINTING DATA, STOP
 *  T=         - A TIME OF 172800.0 SECONDS REQUESTED
 *  DUMP=N     - RESTART FILE WRITTEN EVERY  7200.000 SECONDS
 *******************************************************************************
geo_dat="Bromination reactants.arc" geo_ref="Bromination Products.arc" html 0scf locate-ts(C:1,3,10) OPT XYZ geo-ok pm6


   ATOM                 CHEMICAL                   X               Y               Z
  NUMBER                 SYMBOL               (ANGSTROMS)     (ANGSTROMS)     (ANGSTROMS)
 
     1       C(HETATM    1  C   HET A   1)    0.00000000  *   0.00000000  *   0.00000000  *
     2       C(HETATM    2  C   HET A   1)    1.40861578  *   0.00000000  *   0.00000000  *
     3       C(HETATM    3  C   HET A   1)    2.10936443  *   1.20851640  *   0.00000000  *
     4       C(HETATM    4  C   HET A   1)    1.41087454  *   2.42173910  *  -0.00762413  *
     5       C(HETATM    5  C   HET A   1)    0.01153543  *   2.43139577  *  -0.00923241  *
     6       C(HETATM    6  C   HET A   1)   -0.69392203  *   1.22562298  *  -0.00849383  *
     7       H(HETATM    7  H   HET A   1)   -0.54797862  *  -0.93942066  *  -0.12425225  *
     8       H(HETATM    8  H   HET A   1)    1.94839224  *  -0.94784239  *  -0.00116178  *
     9       H(HETATM    9  H   HET A   1)    3.19881842  *   1.20826231  *   0.00616866  *
    10       H(HETATM   10  H   HET A   1)    1.96083457  *   3.36342806  *  -0.00910018  *
    11       H(HETATM   11  H   HET A   1)   -0.52658766  *   3.37864283  *  -0.00920726  *
    12       H(HETATM   12  H   HET A   1)   -1.78474551  *   1.22446057  *  -0.01514477  *
    13      Br(HETATM   13 Br   HET A   1)   -0.10819116  *  -0.13918433  *   2.49659538  *
    14      Br(HETATM   14 Br   HET A   1)   -0.33284160  *  -0.51830623  *   4.80917276  *
    15      Al(HETATM   15 Al   HET A   1)   -5.81543795  *   0.15547315  *  -1.89531943  *
    16      Br(HETATM   16 Br   HET A   1)   -6.67950881  *  -1.81119053  *  -1.34392782  *
    17      Br(HETATM   17 Br   HET A   1)   -7.12445213  *   1.92610236  *  -2.17510756  *
    18      Br(HETATM   18 Br   HET A   1)   -3.61717478  *   0.35464850  *  -2.17962653  *
 
