 *******************************************************************************
 ** Site#: 10005        For non-commercial use only     Version 15.324W 64BITS**
 *******************************************************************************
 ** Cite this work as:                                                        **
 **                                                                           **
 ** (a) MOPAC2012, James J. P. Stewart, Stewart Computational Chemistry,      **
 **  Version 15.324W web: HTTP://OpenMOPAC.net         Days remaining: 365    **
 **                                                                           **
 **                                 AND                                       **
 **                                                                           **
 ** (b) Maia, J.D.C., et al., J. Chem. Theory Comput. 2012, 8, 3072-3081.     **
 **                DOI: 10.1021/ct3004645.                                    **
 *******************************************************************************
 **                                                                           **
 **                                MOPAC2012                                  **
 **                                                                           **
 *******************************************************************************

                              PM6 CALCULATION RESULTS


 *******************************************************************************
 *  CALCULATION DONE:                                Fri Nov 20 20:08:03 2015  *
 *  PM6        - The PM6 Hamiltonian to be used
 *  T=         - A TIME OF 172800.0 SECONDS REQUESTED
 *  DUMP=N     - RESTART FILE WRITTEN EVERY  7200.000 SECONDS
 *******************************************************************************
      PM6 HTML
      Bromination reactants

  ATOM               CHEMICAL                 BOND LENGTH      BOND ANGLE     TWIST ANGLE 
 NUMBER               SYMBOL                  (ANGSTROMS)      (DEGREES)       (DEGREES) 
   (I)                                           NA:I           NB:NA:I       NC:NB:NA:I       NA    NB    NC 
     1       C(HETATM    1  C1  HET A   3)    0.00000000  *    0.0000000  *    0.0000000  *
     2       C(HETATM    2  C2  HET A   3)    1.40861578  *    0.0000000  *    0.0000000  *     1     0     0
     3       C(HETATM    3  C3  HET A   3)    1.39698266  *  120.1069618  *    0.0000000  *     2     1     0
     4       C(HETATM    4  C4  HET A   3)    1.39994842  *  119.9621812  *   -0.3601704  *     3     2     1
     5       C(HETATM    5  C5  HET A   3)    1.39937336  *  120.3256486  *    0.2861203  *     4     3     2
     6       C(HETATM    6  C6  HET A   3)    1.39698203  *  119.9350276  *   -0.2501065  *     5     4     3
     7       H(HETATM    7  H1  HET A   3)    1.09463710  *  120.0399027  *  172.4655202  *     1     2     3
     8       H(HETATM    8  H2  HET A   3)    1.09076357  *  119.6605914  * -179.9297720  *     2     1     3
     9       H(HETATM    9  H3  HET A   3)    1.08947148  *  120.0930669  *  179.9852163  *     3     2     4
    10       H(HETATM   10  H4  HET A   3)    1.09052112  *  119.7840543  *  179.8045257  *     4     3     5
    11       H(HETATM   11  H5  HET A   3)    1.08942804  *  119.9959041  *  179.8875869  *     5     4     6
    12       H(HETATM   12  H6  HET A   3)    1.09084438  *  120.3906918  * -179.6706779  *     6     5     4
    13      Br(HETATM   13 BR1  HET A   4)    2.77536187  *   64.2803974  *   94.3226291  *     7     1     2
    14      Br(HETATM   14 BR2  HET A   4)    2.35419102  *  150.0061301  * -179.0810785  *    13     7     1
    15      Al(HETATM   15 AL    AL A   5)    4.57430567  *  152.1161657  *  119.6065707  *    12     6     5
    16      Br(HETATM   16 BR1   AL A   5)    2.21775048  *  116.6382999  *   89.0043692  *    15    12     6
    17      Br(HETATM   17 BR2   AL A   5)    2.21966830  *  112.6463625  *  145.7139295  *    15    12    16
    18      Br(HETATM   18 BR3   AL A   5)    2.96637006  *  128.4977602  *   -7.8949913  *    12     6    15
 

     ===================== shared-memory parallel CPU Section ======================
     **                                                                           **
     **  MOPAC calculations will run in shared-memory parallel CPUs               **
     **                                                                           **
     **  Number of Threads =  4                                                   **
     **                                                                           **
     **                                                                           **
     **  For information on this work, see:                                       **
     **                                                                           **
     **  Maia, J.D.C., et al., J. Chem. Theory Comput. 2012, 8, 3072-3081.        **
     **        DOI: 10.1021/ct3004645.                                            **
     **                                                                           **
     ===================== shared-memory parallel CPU Section ======================
      


 General Reference for PM6:
 "Optimization of Parameters for Semiempirical Methods V: Modification of NDDO Approximations
 and Application to 70 Elements", J. J. P. Stewart, J. Mol. Mod., 13, 1173-1213 (2007)
 URL: http://www.springerlink.com/content/ar33482301010477/fulltext.pdf

           Empirical Formula: C6 H6 Br5 Al  =    18 atoms



      MOLECULAR POINT GROUP   :   C1  


      RHF CALCULATION, NO. OF DOUBLY OCCUPIED LEVELS =   34

      Geometry optimization using EF

     GRADIENT =  0.81338  IS LESS THAN CUTOFF =  1.00000



 -------------------------------------------------------------------------------
      PM6 HTML
      Bromination reactants



     GRADIENTS WERE INITIALLY ACCEPTABLY SMALL                
     SCF FIELD WAS ACHIEVED                                   


                              PM6 CALCULATION
                                                       MOPAC2012 (Version: 15.324W)
                                                       Fri Nov 20 20:08:03 2015
                                                       No. of days left = 365




          FINAL HEAT OF FORMATION =        -82.65487 KCAL/MOL =    -345.82799 KJ/MOL


          TOTAL ENERGY            =      -2012.40598 EV
          ELECTRONIC ENERGY       =      -9014.04585 EV  POINT GROUP:     C1  
          CORE-CORE REPULSION     =       7001.63987 EV
          COSMO AREA              =        310.07 SQUARE ANGSTROMS
          COSMO VOLUME            =        321.20 CUBIC ANGSTROMS

          GRADIENT NORM           =          0.81338
          IONIZATION POTENTIAL    =          9.880995 EV
          HOMO LUMO ENERGIES (EV) =         -9.881 -2.319
          NO. OF FILLED LEVELS    =         34
          MOLECULAR WEIGHT        =        504.615

          MOLECULAR DIMENSIONS (Angstroms)

            Atom       Atom       Distance
           Br    17    H     9    10.57559
            H    10   Br    14     6.52540
            H    11   Br    16     4.47727


          SCF CALCULATIONS        =          1
 
          WALL-CLOCK TIME         =          0.094 SECONDS
          COMPUTATION TIME        =          0.281 SECONDS




  ATOM               CHEMICAL                 BOND LENGTH      BOND ANGLE     TWIST ANGLE 
 NUMBER               SYMBOL                  (ANGSTROMS)      (DEGREES)       (DEGREES) 
   (I)                                           NA:I           NB:NA:I       NC:NB:NA:I       NA    NB    NC 
     1       C(HETATM    1  C1  HET A   3)    0.00000000  *    0.0000000  *    0.0000000  *
     2       C(HETATM    2  C2  HET A   3)    1.40861578  *    0.0000000  *    0.0000000  *     1     0     0
     3       C(HETATM    3  C3  HET A   3)    1.39698266  *  120.1069618  *    0.0000000  *     2     1     0
     4       C(HETATM    4  C4  HET A   3)    1.39994842  *  119.9621812  *   -0.3601704  *     3     2     1
     5       C(HETATM    5  C5  HET A   3)    1.39937336  *  120.3256486  *    0.2861203  *     4     3     2
     6       C(HETATM    6  C6  HET A   3)    1.39698203  *  119.9350276  *   -0.2501065  *     5     4     3
     7       H(HETATM    7  H1  HET A   3)    1.09463710  *  120.0399027  *  172.4655202  *     1     2     3
     8       H(HETATM    8  H2  HET A   3)    1.09076357  *  119.6605914  * -179.9297720  *     2     1     3
     9       H(HETATM    9  H3  HET A   3)    1.08947148  *  120.0930669  *  179.9852163  *     3     2     4
    10       H(HETATM   10  H4  HET A   3)    1.09052112  *  119.7840543  *  179.8045257  *     4     3     5
    11       H(HETATM   11  H5  HET A   3)    1.08942804  *  119.9959041  *  179.8875869  *     5     4     6
    12       H(HETATM   12  H6  HET A   3)    1.09084438  *  120.3906918  * -179.6706779  *     6     5     4
    13      Br(HETATM   13 BR1  HET A   4)    2.77536187  *   64.2803974  *   94.3226291  *     7     1     2
    14      Br(HETATM   14 BR2  HET A   4)    2.35419102  *  150.0061301  * -179.0810785  *    13     7     1
    15      Al(HETATM   15 AL    AL A   5)    4.57430567  *  152.1161657  *  119.6065707  *    12     6     5
    16      Br(HETATM   16 BR1   AL A   5)    2.21775048  *  116.6382999  *   89.0043692  *    15    12     6
    17      Br(HETATM   17 BR2   AL A   5)    2.21966830  *  112.6463625  *  145.7139295  *    15    12    16
    18      Br(HETATM   18 BR3   AL A   5)    2.96637006  *  128.4977602  *   -7.8949913  *    12     6    15

                             CARTESIAN COORDINATES

   1    C        0.000000000     0.000000000     0.000000000
   2    C        1.408615780     0.000000000     0.000000000
   3    C        2.109364431     1.208516396     0.000000000
   4    C        1.410874542     2.421739099    -0.007624135
   5    C        0.011535425     2.431395772    -0.009232410
   6    C       -0.693922028     1.225622979    -0.008493827
   7    H       -0.547978625    -0.939420665    -0.124252251
   8    H        1.948392238    -0.947842387    -0.001161780
   9    H        3.198818418     1.208262312     0.006168660
  10    H        1.960834571     3.363428060    -0.009100175
  11    H       -0.526587665     3.378642833    -0.009207259
  12    H       -1.784745513     1.224460568    -0.015144773
  13   Br       -0.108191157    -0.139184331     2.496595379
  14   Br       -0.332841595    -0.518306228     4.809172757
  15   Al       -5.815437948     0.155473146    -1.895319433
  16   Br       -6.679508806    -1.811190534    -1.343927819
  17   Br       -7.124452135     1.926102363    -2.175107558
  18   Br       -3.617174781     0.354648505    -2.179626532


           Empirical Formula: C6 H6 Br5 Al  =    18 atoms



      MOLECULAR POINT GROUP   :   C1  


                  EIGENVALUES  
 -30.51625 -27.81485 -27.70727 -27.33458 -26.72052 -26.60981 -26.53941 -25.98195
 -21.86530 -21.82227 -18.37538 -17.90754 -16.32282 -15.73546 -15.25285 -14.83626
 -14.81524 -14.06780 -14.05524 -13.03771 -12.67179 -12.64697 -12.53834 -12.46964
 -12.29937 -11.64569 -11.60638 -11.59313 -11.58122 -11.02144 -10.49429 -10.22718
 -10.03040  -9.88100  -2.31895  -0.40547  -0.32673  -0.28233  -0.18599   1.50522
   1.54664   2.02210   3.77658   3.85542   4.35818   4.52275   4.61786   4.89517
   5.07962   5.49975   5.51280   5.67971   5.73832   5.83541  93.68157  93.68943
  94.70803  94.75840  95.62185 109.17014 109.17326 111.35088 111.35325 111.90803
 112.13720 112.18447 114.16003 114.17391 114.28010 114.28194 114.34116 114.59933
 114.64326 114.67879 114.79046 115.35971 115.36045 115.97101 116.19556 116.21377
 117.08420 117.09106 117.33547 117.34761


              NET ATOMIC CHARGES AND DIPOLE CONTRIBUTIONS

  ATOM NO.                 TYPE                        CHARGE      No. of ELECS.   s-Pop       p-Pop       d-Pop       
    1          C(HETATM    1  C1  HET A   3)          -0.229836        4.2298     1.11242     3.11742
    2          C(HETATM    2  C2  HET A   3)          -0.067114        4.0671     1.11193     2.95518
    3          C(HETATM    3  C3  HET A   3)          -0.184303        4.1843     1.10815     3.07615
    4          C(HETATM    4  C4  HET A   3)          -0.073383        4.0734     1.11064     2.96275
    5          C(HETATM    5  C5  HET A   3)          -0.183609        4.1836     1.10806     3.07555
    6          C(HETATM    6  C6  HET A   3)          -0.068834        4.0688     1.11236     2.95647
    7          H(HETATM    7  H1  HET A   3)           0.175589        0.8244     0.82441
    8          H(HETATM    8  H2  HET A   3)           0.153648        0.8464     0.84635
    9          H(HETATM    9  H3  HET A   3)           0.158378        0.8416     0.84162
   10          H(HETATM   10  H4  HET A   3)           0.148275        0.8517     0.85173
   11          H(HETATM   11  H5  HET A   3)           0.158929        0.8411     0.84107
   12          H(HETATM   12  H6  HET A   3)           0.156066        0.8439     0.84393
   13         Br(HETATM   13 BR1  HET A   4)           0.001944        6.9981     1.99354     4.99362     0.01090
   14         Br(HETATM   14 BR2  HET A   4)          -0.146105        7.1461     1.99116     5.14942     0.00552
   15         Al(HETATM   15 AL    AL A   5)           0.682076        2.3179     0.90663     1.35769     0.05360
   16         Br(HETATM   16 BR1   AL A   5)          -0.220090        7.2201     1.98351     5.23203     0.00455
   17         Br(HETATM   17 BR2   AL A   5)          -0.223182        7.2232     1.98362     5.23503     0.00453
   18         Br(HETATM   18 BR3   AL A   5)          -0.238448        7.2384     1.98394     5.24973     0.00478
 DIPOLE           X         Y         Z       TOTAL
 POINT-CHG.     0.488     1.162    -3.424     3.649
 HYBRID         0.004    -0.019     0.133     0.134
 SUM            0.492     1.144    -3.292     3.519


          ATOMIC ORBITAL ELECTRON POPULATIONS

                   Atom                  s        px        py        pz      x^2-y^2     xz        z^2       yz        xy
   C(HETATM    1  C1  HET A   3)   1.11242   1.01441   1.06281   1.04019
   C(HETATM    2  C2  HET A   3)   1.11193   0.98440   1.04379   0.92699
   C(HETATM    3  C3  HET A   3)   1.10815   1.07431   0.97952   1.02232
   C(HETATM    4  C4  HET A   3)   1.11064   0.99201   1.03793   0.93281
   C(HETATM    5  C5  HET A   3)   1.10806   1.00350   1.05041   1.02164
   C(HETATM    6  C6  HET A   3)   1.11236   1.06562   0.96423   0.92662
   H(HETATM    7  H1  HET A   3)   0.82441
   H(HETATM    8  H2  HET A   3)   0.84635
   H(HETATM    9  H3  HET A   3)   0.84162
   H(HETATM   10  H4  HET A   3)   0.85173
   H(HETATM   11  H5  HET A   3)   0.84107
   H(HETATM   12  H6  HET A   3)   0.84393
  Br(HETATM   13 BR1  HET A   4)   1.99354   1.98666   1.97142   1.03553   0.00018   0.00222   0.00606   0.00230   0.00015
  Br(HETATM   14 BR2  HET A   4)   1.99116   1.99091   1.97659   1.18192   0.00004   0.00123   0.00288   0.00132   0.00004
  Al(HETATM   15 AL    AL A   5)   0.90663   0.56239   0.55415   0.24115   0.01600   0.00787   0.00601   0.00781   0.01591
  Br(HETATM   16 BR1   AL A   5)   1.98351   1.86828   1.47890   1.88485   0.00140   0.00021   0.00069   0.00075   0.00150
  Br(HETATM   17 BR2   AL A   5)   1.98362   1.74924   1.57222   1.91358   0.00099   0.00020   0.00084   0.00039   0.00212
  Br(HETATM   18 BR3   AL A   5)   1.98394   1.37752   1.95659   1.91561   0.00220   0.00071   0.00084   0.00008   0.00095

 **********************
 *                    *
 * JOB ENDED NORMALLY *
 *                    *
 **********************



 TOTAL JOB TIME:             0.11 SECONDS

 == MOPAC DONE ==
