 *******************************************************************************
 ** Site#: 37037        For non-commercial use only           Version 21.153W **
 *******************************************************************************
 ** Cite this program as: MOPAC2016, Version: 21.153W, James J. P. Stewart,   **
 ** Stewart Computational Chemistry, web: HTTP://OpenMOPAC.net. Days left: 364**
 *******************************************************************************
 **                                                                           **
 **                                MOPAC2016                                  **
 **                                                                           **
 *******************************************************************************

                              PM7 CALCULATION RESULTS

 *******************************************************************************
 *  CALCULATION DONE:                                Thu Jun  3 09:03:33 2021  *
 *  GEO_DAT    - DATA SET GEOMETRY IS IN FILE "Saddle_TS.arc"
 *  TS         - USE EF ROUTINE FOR TS SEARCH
 *  T=         - A TIME OF 172800.0 SECONDS REQUESTED
 *  DUMP=N     - RESTART FILE WRITTEN EVERY 7200.0 SECONDS REQUESTED
 *******************************************************************************
TS   geo_dat="Saddle_TS.arc"
 Refine transition state for the reaction Formoazomethine Ylide plus ethylene <=> Formoazomethine Ylide plus ethylene product

   ATOM                 CHEMICAL                   X               Y               Z
  NUMBER                 SYMBOL               (ANGSTROMS)     (ANGSTROMS)     (ANGSTROMS)
 
     1       C(HETATM    1  C1  HET A   1)    0.05943923  *  -0.30579898  *   0.01149470  *
     2       C(HETATM    2  C2  HET A   1)    1.44795735  *  -0.33957532  *  -0.02702446  *
     3       C(HETATM    3  C1  HET B   2)   -0.36623975  *   1.80378043  *  -0.03941742  *
     4       N(HETATM    4  N   HET B   2)    0.81375481  *   2.17826917  *  -0.60852003  *
     5       C(HETATM    5  C2  HET B   2)    1.96644017  *   1.76132922  *  -0.01445036  *
     6       H(HETATM    6 1H1  HET A   1)   -0.47481833  *  -0.47112532  *   0.93189122  *
     7       H(HETATM    7 2H1  HET A   1)   -0.53258320  *  -0.48630022  *  -0.86870133  *
     8       H(HETATM    8 1H2  HET A   1)    1.97706144  *  -0.52994901  *  -0.94361090  *
     9       H(HETATM    9 2H2  HET A   1)    2.03192104  *  -0.54501253  *   0.85582792  *
    10       H(HETATM   10 1H1  HET B   2)   -1.28003779  *   1.95013164  *  -0.59387372  *
    11       H(HETATM   11 2H1  HET B   2)   -0.47633731  *   1.80301767  *   1.03621209  *
    12       H(HETATM   12  H   HET B   2)    0.83044291  *   2.35018649  *  -1.60690327  *
    13       H(HETATM   13 1H2  HET B   2)    2.04301241  *   1.73137288  *   1.06048858  *
    14       H(HETATM   14 2H2  HET B   2)    2.90323045  *   1.90474983  *  -0.52992323  *
 

 General Reference for PM7:
 "Optimization of Parameters for Semiempirical Methods VI: More Modifications to the 
 NDDO Approximations and Re-optimization of Parameters", J. J. P. Stewart, J. Mol. Mod., 1:32, 19 (2013)
 https://link.springer.com/article/10.1007/s00894-012-1667-x

           Empirical Formula: C4 H9 N  =    14 atoms



      MOLECULAR POINT GROUP   :   Cs  


      RHF CALCULATION, NO. OF DOUBLY OCCUPIED LEVELS = 15


          Transition state refinement using EF

          HESSIAN CALCULATED NUMERICALLY

 CYCLE:     1 TIME:   0.131 TIME LEFT:  2.00D  GRAD.:    21.870 HEAT:  53.07798
 CYCLE:     2 TIME:   0.000 TIME LEFT:  2.00D  GRAD.:     3.836 HEAT:  53.31300
 CYCLE:     3 TIME:   0.016 TIME LEFT:  2.00D  GRAD.:     1.378 HEAT:  53.31410
 CYCLE:     4 TIME:   0.000 TIME LEFT:  2.00D  GRAD.:     0.228 HEAT:  53.31230

     GRADIENT =  0.22777 IS LESS THAN CUTOFF =  1.00000



 -------------------------------------------------------------------------------
 TS
 Refine transition state for the reaction Formoazomethine Ylide plus ethylene <=> Formoazomethine Ylide plus ethylene product



     GEOMETRY OPTIMISED USING EIGENVECTOR FOLLOWING (TS).     
     SCF FIELD WAS ACHIEVED                                   


                              PM7 CALCULATION
                                                       MOPAC2016 (Version: 21.153W)
                                                       Thu Jun  3 09:03:33 2021
                                                       No. of days remaining = 364




          FINAL HEAT OF FORMATION =         53.31230 KCAL/MOL =     223.05868 KJ/MOL


          TOTAL ENERGY            =       -796.61144 EV
          ELECTRONIC ENERGY       =      -3220.05211 EV  POINT GROUP:     Cs  
          CORE-CORE REPULSION     =       2423.44067 EV
          COSMO AREA              =        120.09 SQUARE ANGSTROMS
          COSMO VOLUME            =        109.91 CUBIC ANGSTROMS

          GRADIENT NORM           =          0.22777 = 0.06088 PER ATOM
          IONIZATION POTENTIAL    =          8.006327 EV
          HOMO LUMO ENERGIES (EV) =         -8.006  0.773
          NO. OF FILLED LEVELS    =         15
          MOLECULAR WEIGHT        =         71.1218

          MOLECULAR DIMENSIONS (Angstroms)

            Atom       Atom       Distance
            H    14    H     6     4.36656
            H    10    H     9     4.29708
            H     8    H    13     2.84250


          SCF CALCULATIONS        =         48
 
          WALL-CLOCK TIME         =          0.215 SECONDS
          COMPUTATION TIME        =          0.656 SECONDS




   ATOM                 CHEMICAL                   X               Y               Z
  NUMBER                 SYMBOL               (ANGSTROMS)     (ANGSTROMS)     (ANGSTROMS)
 
     1       C(HETATM    1  C1  HET A   1)    0.06957257  *  -0.32583974  *  -0.00857414  *
     2       C(HETATM    2  C2  HET A   1)    1.44147607  *  -0.35483290  *  -0.00989111  *
     3       C(HETATM    3  C1  HET B   2)   -0.36486309  *   1.83251468  *  -0.02191561  *
     4       N(HETATM    4  N   HET B   2)    0.80769564  *   2.15663044  *  -0.61335632  *
     5       C(HETATM    5  C2  HET B   2)    1.96652341  *   1.78361022  *  -0.02359164  *
     6       H(HETATM    6 1H1  HET A   1)   -0.50340668  *  -0.46910566  *   0.89206430  *
     7       H(HETATM    7 2H1  HET A   1)   -0.50600277  *  -0.45349270  *  -0.90955324  *
     8       H(HETATM    8 1H2  HET A   1)    2.00944635  *  -0.50645073  *  -0.91210642  *
     9       H(HETATM    9 2H2  HET A   1)    2.00954117  *  -0.52217537  *   0.88971254  *
    10       H(HETATM   10 1H1  HET B   2)   -1.29094795  *   1.94434357  *  -0.55562614  *
    11       H(HETATM   11 2H1  HET B   2)   -0.44892581  *   1.79400796  *   1.05234308  *
    12       H(HETATM   12  H   HET B   2)    0.81102834  *   2.34839240  *  -1.60805412  *
    13       H(HETATM   13 1H2  HET B   2)    2.05046805  *   1.74138633  *   1.05058755  *
    14       H(HETATM   14 2H2  HET B   2)    2.89563172  *   1.85657565  *  -0.55865886  *

                             CARTESIAN COORDINATES

   1    C        0.069572565    -0.325839739    -0.008574137
   2    C        1.441476075    -0.354832897    -0.009891110
   3    C       -0.364863086     1.832514677    -0.021915614
   4    N        0.807695642     2.156630439    -0.613356318
   5    C        1.966523409     1.783610224    -0.023591644
   6    H       -0.503406684    -0.469105655     0.892064302
   7    H       -0.506002767    -0.453492695    -0.909553236
   8    H        2.009446349    -0.506450726    -0.912106418
   9    H        2.009541165    -0.522175369     0.889712540
  10    H       -1.290947952     1.944343569    -0.555626138
  11    H       -0.448925805     1.794007962     1.052343076
  12    H        0.811028344     2.348392395    -1.608054125
  13    H        2.050468054     1.741386328     1.050587552
  14    H        2.895631718     1.856575653    -0.558658859


           Empirical Formula: C4 H9 N  =    14 atoms



      MOLECULAR POINT GROUP   :   Cs  


                  EIGENVALUES  
 -37.25297 -26.09296 -24.23916 -21.66796 -19.54434 -18.21187 -16.05146 -15.52145
 -14.01246 -13.53680 -13.30547 -12.97425 -11.37251  -8.88399  -8.00633   0.77266
   1.95532   3.12433   5.26787   5.47412   6.18106   6.27258   6.30579   6.37257
   6.50897   6.79037   7.15054   7.22078   7.26276


              NET ATOMIC CHARGES AND DIPOLE CONTRIBUTIONS

  ATOM NO.                 TYPE                        CHARGE      No. of ELECS.   s-Pop       p-Pop       
    1          C(HETATM    1  C1  HET A   1)          -0.310237        4.3102     1.08798     3.22225
    2          C(HETATM    2  C2  HET A   1)          -0.310285        4.3103     1.08801     3.22228
    3          C(HETATM    3  C1  HET B   2)          -0.337243        4.3372     1.08751     3.24973
    4          N(HETATM    4  N   HET B   2)          -0.119476        5.1195     1.47454     3.64493
    5          C(HETATM    5  C2  HET B   2)          -0.337265        4.3373     1.08752     3.24974
    6          H(HETATM    6 1H1  HET A   1)           0.130386        0.8696     0.86961
    7          H(HETATM    7 2H1  HET A   1)           0.127625        0.8724     0.87238
    8          H(HETATM    8 1H2  HET A   1)           0.127636        0.8724     0.87236
    9          H(HETATM    9 2H2  HET A   1)           0.130393        0.8696     0.86961
   10          H(HETATM   10 1H1  HET B   2)           0.147505        0.8525     0.85249
   11          H(HETATM   11 2H1  HET B   2)           0.163481        0.8365     0.83652
   12          H(HETATM   12  H   HET B   2)           0.276496        0.7235     0.72350
   13          H(HETATM   13 1H2  HET B   2)           0.163490        0.8365     0.83651
   14          H(HETATM   14 2H2  HET B   2)           0.147494        0.8525     0.85251

          NET CHARGE ON RESIDUES

      Residue         Charge  Anion or
                              Cation?
      HET A   1       -0.104
      HET B   2       +0.104
 


 DIPOLE           X         Y         Z       TOTAL
 POINT-CHG.     0.026     1.298    -0.821     1.536
 HYBRID         0.009     0.437    -0.394     0.588
 SUM            0.035     1.734    -1.216     2.118


          ATOMIC ORBITAL ELECTRON POPULATIONS

                   Atom                  s        px        py        pz   
   C(HETATM    1  C1  HET A   1)   1.08798   1.03364   1.05677   1.13184
   C(HETATM    2  C2  HET A   1)   1.08801   1.03286   1.05761   1.13182
   C(HETATM    3  C1  HET B   2)   1.08751   0.93611   1.19377   1.11985
   N(HETATM    4  N   HET B   2)   1.47454   1.11035   1.36095   1.17363
   C(HETATM    5  C2  HET B   2)   1.08752   0.94574   1.18388   1.12013
   H(HETATM    6 1H1  HET A   1)   0.86961
   H(HETATM    7 2H1  HET A   1)   0.87238
   H(HETATM    8 1H2  HET A   1)   0.87236
   H(HETATM    9 2H2  HET A   1)   0.86961
   H(HETATM   10 1H1  HET B   2)   0.85249
   H(HETATM   11 2H1  HET B   2)   0.83652
   H(HETATM   12  H   HET B   2)   0.72350
   H(HETATM   13 1H2  HET B   2)   0.83651
   H(HETATM   14 2H2  HET B   2)   0.85251
 *******************************************************************************
 ** Site#: 37037        For non-commercial use only           Version 21.153W **
 *******************************************************************************
 ** Cite this program as: MOPAC2016, Version: 21.153W, James J. P. Stewart,   **
 ** Stewart Computational Chemistry, web: HTTP://OpenMOPAC.net. Days left: 364**
 *******************************************************************************
 **                                                                           **
 **                                MOPAC2016                                  **
 **                                                                           **
 *******************************************************************************

                              PM7 CALCULATION RESULTS

 *******************************************************************************
 *  CALCULATION DONE:                                Thu Jun  3 09:03:33 2021  *
 *  IRC=N      - INTRINSIC REACTION COORDINATE  1 DEFINED
 *  DRC        - DYNAMIC REACTION COORDINATE CALCULATION
 *  OLDGEO     - PREVIOUS GEOMETRY TO BE USED
 *  T=         - A TIME OF 172800.0 SECONDS REQUESTED
 *  DUMP=N     - RESTART FILE WRITTEN EVERY 7200.0 SECONDS REQUESTED
 *  CYCLES=    - DO A MAXIMUM OF 100 STEPS
 *  HTML       - WRITE HTML SCRIPT TO GENERATE ANIMATION USING JSMOL
 *             - TO DISPLAY IN PDB FORMAT, ADD "PDBOUT"
 *  T-PRIOR    - TIME TAKES PRIORITY IN DRC
 *******************************************************************************
oldgeo   IRC=1* HTML T-priority=1 DRC cycles=100
 Dynamic Reaction Coordinate path for the reaction Formoazomethine Ylide plus ethylene <=> Formoazomethine Ylide plus ethylene product

   ATOM                 CHEMICAL                   X               Y               Z
  NUMBER                 SYMBOL               (ANGSTROMS)     (ANGSTROMS)     (ANGSTROMS)
 
     1       C(HETATM    1  C1  HET A   1)    0.06957257  *  -0.32583974  *  -0.00857414  *
     2       C(HETATM    2  C2  HET A   1)    1.44147607  *  -0.35483290  *  -0.00989111  *
     3       C(HETATM    3  C1  HET B   2)   -0.36486309  *   1.83251468  *  -0.02191561  *
     4       N(HETATM    4  N   HET B   2)    0.80769564  *   2.15663044  *  -0.61335632  *
     5       C(HETATM    5  C2  HET B   2)    1.96652341  *   1.78361022  *  -0.02359164  *
     6       H(HETATM    6 1H1  HET A   1)   -0.50340668  *  -0.46910566  *   0.89206430  *
     7       H(HETATM    7 2H1  HET A   1)   -0.50600277  *  -0.45349270  *  -0.90955324  *
     8       H(HETATM    8 1H2  HET A   1)    2.00944635  *  -0.50645073  *  -0.91210642  *
     9       H(HETATM    9 2H2  HET A   1)    2.00954117  *  -0.52217537  *   0.88971254  *
    10       H(HETATM   10 1H1  HET B   2)   -1.29094795  *   1.94434357  *  -0.55562614  *
    11       H(HETATM   11 2H1  HET B   2)   -0.44892581  *   1.79400796  *   1.05234308  *
    12       H(HETATM   12  H   HET B   2)    0.81102834  *   2.34839240  *  -1.60805412  *
    13       H(HETATM   13 1H2  HET B   2)    2.05046805  *   1.74138633  *   1.05058755  *
    14       H(HETATM   14 2H2  HET B   2)    2.89563172  *   1.85657565  *  -0.55865886  *
 

 General Reference for PM7:
 "Optimization of Parameters for Semiempirical Methods VI: More Modifications to the 
 NDDO Approximations and Re-optimization of Parameters", J. J. P. Stewart, J. Mol. Mod., 1:32, 19 (2013)
 https://link.springer.com/article/10.1007/s00894-012-1667-x

           Empirical Formula: C4 H9 N  =    14 atoms



      MOLECULAR POINT GROUP   :   Cs  


      RHF CALCULATION, NO. OF DOUBLY OCCUPIED LEVELS = 15



          HEAT OF FORMATION =      53.312309 KCALS/MOLE


          GRADIENT NORM =   0.32268

          MOLECULAR WEIGHT =   71.12


          ESTIMATED TIME TO COMPLETE CALCULATION =        0.00 SECONDS

    FOR POINT-GROUP Cs   THERE ARE   2 UNIQUE SYMMETRY FUNCTIONS.

 STEP:   1 TIME =     0.00 SECS, INTEGRAL =      0.00 TIME LEFT: 172800.00
 STEP:   2 TIME =     0.01 SECS, INTEGRAL =      0.01 TIME LEFT: 172799.99
 STEP:   3 TIME =     0.00 SECS, INTEGRAL =      0.01 TIME LEFT: 172799.99
 STEP:   4                       INTEGRAL =      0.01 TIME LEFT: 172799.99
 STEP:   5                       INTEGRAL =      0.01 TIME LEFT: 172799.99
 STEP:   6                       INTEGRAL =      0.01 TIME LEFT: 172799.99
 STEP:   7 TIME =     0.00 SECS, INTEGRAL =      0.01 TIME LEFT: 172799.99
 STEP:   8 TIME =     0.02 SECS, INTEGRAL =      0.03 TIME LEFT: 172799.97
 STEP:   9 TIME =     0.00 SECS, INTEGRAL =      0.03 TIME LEFT: 172799.97
 STEP:  10 TIME =     0.02 SECS, INTEGRAL =      0.05 TIME LEFT: 172799.95
 STEP:  11 TIME =     0.00 SECS, INTEGRAL =      0.05 TIME LEFT: 172799.95
 STEP:  12 TIME =     0.00 SECS, INTEGRAL =      0.05 TIME LEFT: 172799.95
 STEP:  13                       INTEGRAL =      0.05 TIME LEFT: 172799.95
 STEP:  14                       INTEGRAL =      0.05 TIME LEFT: 172799.95
 STEP:  15                       INTEGRAL =      0.05 TIME LEFT: 172799.95
 STEP:  16 TIME =     0.00 SECS, INTEGRAL =      0.05 TIME LEFT: 172799.95
 STEP:  17 TIME =     0.00 SECS, INTEGRAL =      0.05 TIME LEFT: 172799.95
 STEP:  18 TIME =     0.00 SECS, INTEGRAL =      0.05 TIME LEFT: 172799.95
 STEP:  19 TIME =     0.00 SECS, INTEGRAL =      0.05 TIME LEFT: 172799.95
 STEP:  20 TIME =     0.02 SECS, INTEGRAL =      0.06 TIME LEFT: 172799.94
 STEP:  21 TIME =     0.00 SECS, INTEGRAL =      0.06 TIME LEFT: 172799.94
 STEP:  22                       INTEGRAL =      0.06 TIME LEFT: 172799.94
 STEP:  23                       INTEGRAL =      0.06 TIME LEFT: 172799.94
 STEP:  24                       INTEGRAL =      0.06 TIME LEFT: 172799.94
 STEP:  25                       INTEGRAL =      0.06 TIME LEFT: 172799.94
 STEP:  26                       INTEGRAL =      0.06 TIME LEFT: 172799.94
 STEP:  27                       INTEGRAL =      0.06 TIME LEFT: 172799.94
 STEP:  28 TIME =     0.00 SECS, INTEGRAL =      0.06 TIME LEFT: 172799.94
 STEP:  29 TIME =     0.00 SECS, INTEGRAL =      0.06 TIME LEFT: 172799.94
 STEP:  30 TIME =     0.02 SECS, INTEGRAL =      0.08 TIME LEFT: 172799.92
 STEP:  31 TIME =     0.00 SECS, INTEGRAL =      0.08 TIME LEFT: 172799.92
 STEP:  32 TIME =     0.00 SECS, INTEGRAL =      0.08 TIME LEFT: 172799.92
 STEP:  33 TIME =     0.02 SECS, INTEGRAL =      0.09 TIME LEFT: 172799.91
 STEP:  34 TIME =     0.00 SECS, INTEGRAL =      0.09 TIME LEFT: 172799.91
 STEP:  35 TIME =     0.00 SECS, INTEGRAL =      0.09 TIME LEFT: 172799.91
 STEP:  36 TIME =     0.02 SECS, INTEGRAL =      0.11 TIME LEFT: 172799.89
 STEP:  37                       INTEGRAL =      0.11 TIME LEFT: 172799.89
 STEP:  38                       INTEGRAL =      0.11 TIME LEFT: 172799.89
 STEP:  39                       INTEGRAL =      0.11 TIME LEFT: 172799.89
 STEP:  40                       INTEGRAL =      0.11 TIME LEFT: 172799.89
 STEP:  41                       INTEGRAL =      0.11 TIME LEFT: 172799.89
 STEP:  42                       INTEGRAL =      0.11 TIME LEFT: 172799.89
           INITIAL VELOCITY IN DRC (Angstroms/Femtosecond)
         0.02847        -0.11389         0.00071
        -0.02848        -0.11387         0.00070
        -0.00798         0.12514        -0.00185
        -0.00001        -0.03534         0.00276
         0.00800         0.12516        -0.00184
        -0.01294         0.02504         0.00035
        -0.01205         0.04551         0.00170
         0.01208         0.04552         0.00171
         0.01296         0.02506         0.00036
        -0.00688         0.08138         0.00326
        -0.00613        -0.06010        -0.01578
        -0.00000         0.03875         0.00973
         0.00610        -0.06009        -0.01578
         0.00689         0.08140         0.00327
 THE VIBRATIONAL FREQUENCY (  -599.84CM(-1)) IS TOO SMALL
 FOR ONE QUANTUM TO BE USED
 INSTEAD 0.3KCAL/MOLE WILL BE USED TO START THE IRC

 TIME PRIORITY, INTERVAL = 1.00 FEMTOSECONDS



 FEMTOSECONDS  POINT  POTENTIAL + KINETIC  =   TOTAL     ERROR    REF%   MOVEMENT
     0.000       1    53.31230    0.30000    53.61230   0.00000     1   %  0.0000
     1.000       1    53.30900    0.29147    53.60047  -0.01184     2   %  0.0181
     2.000       1    53.29825    0.29887    53.59712  -0.01518     3   %  0.0364
     3.000       1    53.28005    0.32221    53.60226  -0.01004     4   %  0.0550
     4.000       3    53.25441    0.36116    53.61557   0.00326     5   %  0.0740
     5.000       3    53.21926    0.39748    53.61674   0.00443     6   %  0.0944
     6.000       4    53.17357    0.44279    53.61636   0.00406     7   %  0.1162
     7.000       4    53.11699    0.49780    53.61479   0.00249     8   %  0.1391
     8.000       5    53.04777    0.56745    53.61522   0.00292     9   %  0.1636
     9.000       5    52.96470    0.65220    53.61689   0.00459    10   %  0.1896
    10.000       6    52.86568    0.75206    53.61774   0.00543    11   %  0.2174
    11.000       6    52.74958    0.86855    53.61812   0.00582    12   %  0.2470
    12.000       7    52.61449    1.00451    53.61901   0.00671    13   %  0.2787
    13.000       7    52.45968    1.16052    53.62020   0.00790    14   %  0.3123
    14.000       8    52.28343    1.33919    53.62262   0.01032    15   %  0.3481
    15.000       8    52.08591    1.53849    53.62440   0.01210    16   %  0.3859
    16.000       9    51.86678    1.75121    53.61799   0.00569    17   %  0.4255
    17.000       9    51.62705    1.98145    53.60850  -0.00379    18   %  0.4669
    18.000      10    51.36778    2.24285    53.61063  -0.00166    19   %  0.5097
    19.000      10    51.09060    2.52850    53.61910   0.00681    20   %  0.5539
    20.000      11    50.79724    2.82340    53.62064   0.00835    21   %  0.5991
    21.000      11    50.49020    3.12775    53.61795   0.00566    22   %  0.6456
    22.000      12    50.17327    3.44280    53.61608   0.00379    23   %  0.6936
    23.000      12    49.84876    3.76734    53.61611   0.00383    24   %  0.7439
    24.000      13    49.52018    4.10506    53.62523   0.01296    25   %  0.7980
    25.000      13    49.18959    4.44686    53.63646   0.02418    26   %  0.8559
    26.000      14    48.86103    4.76976    53.63079   0.01852    27   %  0.9170
    27.000      14    48.53572    5.08307    53.61878   0.00652    28   %  0.9817
    28.000      15    48.21502    5.40167    53.61669   0.00442    29   %  1.0499
    29.000      16    47.89965    5.71808    53.61773   0.00547    30   %  1.1250
    30.000      16    47.59182    6.02757    53.61939   0.00714    31   %  1.2073
    31.000      17    47.29332    6.32600    53.61932   0.00707    32   %  1.2977
    32.000      18    47.00570    6.61243    53.61813   0.00589    33   %  1.3948
    33.000      18    46.72889    6.88759    53.61648   0.00424    34   %  1.4984
    34.000      19    46.46130    7.15475    53.61605   0.00382    35   %  1.6080
    35.000      20    46.20552    7.41134    53.61685   0.00462    36   %  1.7236
    36.000      20    45.96380    7.65404    53.61784   0.00561    37   %  1.8450
    37.000      21    45.74040    7.87631    53.61671   0.00449    38   %  1.9721
    38.000      22    45.53192    8.08314    53.61506   0.00285    39   %  2.1040
    39.000      22    45.33737    8.27606    53.61343   0.00122    40   %  2.2405
    40.000      23    45.15162    8.46453    53.61615   0.00394    41   %  2.3829
    41.000      24    44.97848    8.63982    53.61830   0.00611    42   %  2.5300
    42.000      24    44.81915    8.79897    53.61813   0.00594    43   %  2.6805
    43.000      25    44.67490    8.93864    53.61354   0.00136    44   %  2.8317
    44.000      26    44.53841    9.07310    53.61151  -0.00066    45   %  2.9826
    45.000      27    44.39974    9.21225    53.61199  -0.00018    46   %  3.1324
    46.000      28    44.25592    9.35712    53.61304   0.00087    47   %  3.2804
    47.000      29    44.11297    9.50048    53.61345   0.00129    48   %  3.4264
    48.000      30    43.97736    9.63482    53.61217   0.00002    49   %  3.5700
    49.000      31    43.84752    9.76362    53.61114  -0.00100    50   %  3.7112
    50.000      32    43.71485    9.89628    53.61113  -0.00101    51   %  3.8498
    51.000      33    43.57309   10.03940    53.61250   0.00037    52   %  3.9860
    52.000      34    43.42696   10.18733    53.61429   0.00217    53   %  4.1202
    53.000      35    43.28991   10.32461    53.61453   0.00241    54   %  4.2531
    54.000      37    43.17067   10.44138    53.61205  -0.00006    55   %  4.3854
    55.000      38    43.06612   10.54553    53.61164  -0.00046    56   %  4.5176
    56.000      40    42.96648   10.64535    53.61183  -0.00026    57   %  4.6504
    57.000      41    42.86817   10.74430    53.61246   0.00037    58   %  4.7841
    58.000      42    42.77995   10.83281    53.61276   0.00068    59   %  4.9189
    59.000      43    42.71344   10.89872    53.61217   0.00009    60   %  5.0550
    60.000      45    42.67106   10.94020    53.61126  -0.00081    61   %  5.1926
    61.000      46    42.64200   10.96918    53.61118  -0.00088    62   %  5.3319
    62.000      47    42.61230   10.99950    53.61181  -0.00024    63   %  5.4732
    63.000      49    42.57842   11.03454    53.61296   0.00092    64   %  5.6168
    64.000      50    42.55036   11.06298    53.61334   0.00130    65   %  5.7630
    65.000      51    42.53913   11.07300    53.61213   0.00010    66   %  5.9121
    66.000      52    42.54377   11.06762    53.61139  -0.00063    67   %  6.0641
    67.000      54    42.55117   11.06004    53.61121  -0.00080    68   %  6.2191
    68.000      55    42.54678   11.06544    53.61222   0.00022    69   %  6.3766
    69.000      56    42.53167   11.08151    53.61318   0.00119    70   %  6.5364
    70.000      57    42.51884   11.09451    53.61335   0.00136    71   %  6.6982
    71.000      59    42.51888   11.09295    53.61183  -0.00016    72   %  6.8615
    72.000      61    42.52701   11.08439    53.61140  -0.00058    73   %  7.0257
    73.000      62    42.52732   11.08432    53.61163  -0.00033    74   %  7.1906
    74.000      64    42.50918   11.10330    53.61248   0.00052    75   %  7.3558
    75.000      65    42.47791   11.13503    53.61293   0.00098    76   %  7.5210
    76.000      66    42.45056   11.16184    53.61240   0.00045    77   %  7.6862
    77.000      68    42.43579   11.17585    53.61163  -0.00030    78   %  7.8514
    78.000      69    42.42513   11.18610    53.61123  -0.00070    79   %  8.0165
    79.000      71    42.40138   11.21025    53.61163  -0.00029    80   %  8.1814
    80.000      72    42.35683   11.25582    53.61264   0.00073    81   %  8.3460
    81.000      73    42.30305   11.31031    53.61336   0.00145    82   %  8.5101
    82.000      75    42.25792   11.35431    53.61223   0.00033    83   %  8.6734
    83.000      76    42.22837   11.38292    53.61129  -0.00060    84   %  8.8359
    84.000      78    42.20252   11.40847    53.61099  -0.00089    85   %  8.9973
    85.000      79    42.16485   11.44703    53.61188   0.00001    86   %  9.1578
    86.000      80    42.11401   11.49942    53.61343   0.00156    87   %  9.3177
    87.000      81    42.06709   11.54690    53.61398   0.00213    88   %  9.4774
    88.000      83    42.04235   11.56962    53.61196   0.00012    89   %  9.6375
    89.000      85    42.04243   11.56896    53.61139  -0.00045    90   %  9.7983
    90.000      86    42.05081   11.56060    53.61142  -0.00041    91   %  9.9603
    91.000      88    42.05135   11.56093    53.61228   0.00045    92   % 10.1234
    92.000      89    42.04615   11.56654    53.61269   0.00088    93   % 10.2876
    93.000      91    42.05271   11.55972    53.61243   0.00062    94   % 10.4529
    94.000      93    42.08640   11.52520    53.61160  -0.00020    95   % 10.6190
    95.000      95    42.14114   11.47012    53.61126  -0.00053    96   % 10.7857
    96.000      96    42.19592   11.41567    53.61158  -0.00020    97   % 10.9529
    97.000      98    42.23372   11.37887    53.61259   0.00081    98   % 11.1204
    98.000      99    42.25911   11.35439    53.61349   0.00172    99   % 11.2882
    99.000     101    42.29116   11.32137    53.61254   0.00078   100   % 11.4561


           INITIAL VELOCITY IN DRC (Angstroms/Femtosecond)
        -0.02847         0.11389        -0.00071
         0.02848         0.11387        -0.00070
         0.00798        -0.12514         0.00185
         0.00001         0.03534        -0.00276
        -0.00800        -0.12516         0.00184
         0.01294        -0.02504        -0.00035
         0.01205        -0.04551        -0.00170
        -0.01208        -0.04552        -0.00171
        -0.01296        -0.02506        -0.00036
         0.00688        -0.08138        -0.00326
         0.00613         0.06010         0.01578
         0.00000        -0.03875        -0.00973
        -0.00610         0.06009         0.01578
        -0.00689        -0.08140        -0.00327
 THE VIBRATIONAL FREQUENCY (  -599.84CM(-1)) IS TOO SMALL
 FOR ONE QUANTUM TO BE USED
 INSTEAD 0.3KCAL/MOLE WILL BE USED TO START THE IRC

 TIME PRIORITY, INTERVAL = 1.00 FEMTOSECONDS



 FEMTOSECONDS  POINT  POTENTIAL + KINETIC  =   TOTAL     ERROR    REF%   MOVEMENT
     0.000       1    53.31231    0.30000    53.61231   0.00000     1   %  0.0000
     1.000       1    53.30835    0.29222    53.60057  -0.01174     2   %  0.0181
     2.000       1    53.29547    0.30203    53.59750  -0.01481     3   %  0.0366
     3.000       1    53.27368    0.32941    53.60310  -0.00921     4   %  0.0554
     4.000       3    53.24260    0.37120    53.61380   0.00149     5   %  0.0747
     5.000       3    53.19649    0.41821    53.61470   0.00239     6   %  0.0959
     6.000       4    53.13443    0.47819    53.61262   0.00031     7   %  0.1186
     7.000       5    53.05113    0.56264    53.61377   0.00146     8   %  0.1432
     8.000       6    52.94010    0.67345    53.61356   0.00125     9   %  0.1702
     9.000       7    52.79300    0.82055    53.61355   0.00125    10   %  0.2002
    10.000       8    52.59826    1.01521    53.61347   0.00117    11   %  0.2337
    11.000      10    52.34073    1.27281    53.61354   0.00124    12   %  0.2715
    12.000      11    51.99816    1.61553    53.61369   0.00139    13   %  0.3142
    13.000      13    51.54284    2.07093    53.61377   0.00147    14   %  0.3628
    14.000      16    50.93629    2.67744    53.61373   0.00143    15   %  0.4184
    15.000      18    50.12782    3.48564    53.61346   0.00116    16   %  0.4822
    16.000      21    49.05312    4.56076    53.61388   0.00158    17   %  0.5554
    17.000      24    47.63205    5.98182    53.61387   0.00157    18   %  0.6397
    18.000      28    45.77120    7.84300    53.61420   0.00191    19   %  0.7366
    19.000      31    43.36958   10.24501    53.61459   0.00231    20   %  0.8477
    20.000      34    40.33245   13.28268    53.61513   0.00286    21   %  0.9745
    21.000      37    36.59061   17.02581    53.61642   0.00416    22   %  1.1182
    22.000      40    32.12369   21.49403    53.61772   0.00548    23   %  1.2796
    23.000      42    26.98349   26.63576    53.61924   0.00702    24   %  1.4586
    24.000      44    21.31338   32.30490    53.61829   0.00608    25   %  1.6542
    25.000      47    15.35292   38.26174    53.61466   0.00248    26   %  1.8645
    26.000      53     9.45583   44.15814    53.61397   0.00182    27   %  2.0862
    27.000      60     4.12184   49.49128    53.61312   0.00100    28   %  2.3153
    28.000      70     0.05730   53.55561    53.61291   0.00082    29   %  2.5468
    29.000      80    -1.75357   55.36652    53.61295   0.00091    30   %  2.7750
    30.000      90    -0.07286   53.68579    53.61293   0.00092    31   %  2.9935
    31.000     100     6.24952   47.36322    53.61273   0.00076    32   %  3.1949
    32.000     110    17.40112   36.21121    53.61233   0.00038    33   %  3.3713
    33.000     120    31.40517   22.20668    53.61185  -0.00007    34   %  3.5137
    34.000     130    43.69084    9.92080    53.61164  -0.00027    35   %  3.6133
    35.000     139    48.85825    4.75365    53.61190  -0.00001    36   %  3.6632
    36.000     148    44.22028    9.39197    53.61225   0.00034    37   %  3.6609
    37.000     158    31.96757   21.64478    53.61235   0.00045    38   %  3.6104
    38.000     168    17.55458   36.05758    53.61216   0.00028    39   %  3.5215
    39.000     178     6.09522   47.51668    53.61190   0.00005    40   %  3.4068
    40.000     188     0.09167   53.52007    53.61174  -0.00007    41   %  3.2781
    41.000     198    -0.55470   54.16640    53.61170  -0.00008    42   %  3.1431
    42.000     208     2.61346   50.99827    53.61173  -0.00001    43   %  3.0057
    43.000     218     7.75914   45.85262    53.61176   0.00006    44   %  2.8679
    44.000     227    13.45718   40.15462    53.61180   0.00013    45   %  2.7325
    45.000     233    18.93726   34.67456    53.61182   0.00017    46   %  2.6055
    46.000     238    23.97082   29.64085    53.61166   0.00004    47   %  2.4960
    47.000     244    28.56732   25.04426    53.61158  -0.00003    48   %  2.4131
    48.000     251    32.70603   20.90558    53.61161   0.00002    49   %  2.3623
    49.000     258    36.28549   17.32619    53.61168   0.00010    50   %  2.3446
    50.000     265    39.27007   14.34163    53.61171   0.00014    51   %  2.3590
    51.000     272    41.80648   11.80516    53.61164   0.00008    52   %  2.4035
    52.000     280    44.12044    9.49111    53.61154  -0.00001    53   %  2.4702
    53.000     287    46.26786    7.34357    53.61143  -0.00012    54   %  2.5454
    54.000     293    47.99773    5.61352    53.61125  -0.00029    55   %  2.6154
    55.000     298    48.87057    4.74064    53.61121  -0.00033    56   %  2.6693
    56.000     302    48.52668    5.08514    53.61182   0.00028    57   %  2.7011
    57.000     306    46.88220    6.72980    53.61200   0.00047    58   %  2.7107
    58.000     312    44.10463    9.50721    53.61185   0.00032    59   %  2.7036
    59.000     319    40.41927   13.19252    53.61179   0.00028    60   %  2.6909
    60.000     325    35.94359   17.66827    53.61186   0.00036    61   %  2.6856
    61.000     331    30.71878   22.89331    53.61209   0.00060    62   %  2.6978
    62.000     337    24.90794   28.70424    53.61218   0.00071    63   %  2.7315
    63.000     344    18.94037   34.67157    53.61195   0.00050    64   %  2.7881
    64.000     352    13.42228   40.18949    53.61177   0.00035    65   %  2.8686
    65.000     362     8.89551   44.71618    53.61169   0.00030    66   %  2.9720
    66.000     372     5.69774   47.91397    53.61171   0.00034    67   %  3.0939
    67.000     382     4.06625   49.54550    53.61175   0.00042    68   %  3.2283
    68.000     392     4.37546   49.23632    53.61179   0.00049    69   %  3.3696
    69.000     402     7.24585   46.36592    53.61177   0.00051    70   %  3.5138
    70.000     412    13.30721   40.30444    53.61165   0.00042    71   %  3.6564
    71.000     422    22.59062   31.02080    53.61143   0.00022    72   %  3.7892
    72.000     432    33.81324   19.79793    53.61117  -0.00002    73   %  3.8981
    73.000     442    44.13046    9.48057    53.61103  -0.00015    74   %  3.9666
    74.000     452    49.96131    3.64982    53.61113  -0.00005    75   %  3.9812
    75.000     460    48.80770    4.80383    53.61154   0.00036    76   %  3.9379
    76.000     470    40.84190   12.76953    53.61142   0.00026    77   %  3.8447
    77.000     480    28.83098   24.78037    53.61134   0.00019    78   %  3.7180
    78.000     490    16.45158   37.15958    53.61116   0.00003    79   %  3.5747
    79.000     500     6.52018   47.09082    53.61100  -0.00010    80   %  3.4258
    80.000     510     0.32050   53.29042    53.61092  -0.00014    81   %  3.2776
    81.000     520    -2.07043   55.68134    53.61091  -0.00011    82   %  3.1352
    82.000     530    -1.17609   54.78702    53.61093  -0.00006    83   %  3.0044
    83.000     540     2.29292   51.31802    53.61094  -0.00001    84   %  2.8918
    84.000     550     7.60468   46.00626    53.61094   0.00002    85   %  2.8035
    85.000     560    14.05189   39.55905    53.61094   0.00005    86   %  2.7417
    86.000     568    20.98611   32.62484    53.61096   0.00009    87   %  2.7033
    87.000     575    27.86710   25.74391    53.61101   0.00016    88   %  2.6812
    88.000     580    34.29196   19.31906    53.61102   0.00019    89   %  2.6683
    89.000     584    39.97478   13.63611    53.61089   0.00007    90   %  2.6592
    90.000     588    44.69618    8.91453    53.61071  -0.00010    91   %  2.6504
    91.000     592    48.27589    5.33485    53.61075  -0.00006    92   %  2.6384
    92.000     597    50.58595    3.02490    53.61085   0.00005    93   %  2.6201
    93.000     602    51.56656    2.04435    53.61091   0.00011    94   %  2.5939
    94.000     607    51.21304    2.39788    53.61092   0.00012    95   %  2.5621
    95.000     611    49.54815    4.06284    53.61098   0.00019    96   %  2.5295
    96.000     615    46.61906    6.99221    53.61128   0.00048    97   %  2.5014
    97.000     619    42.52804   11.08356    53.61160   0.00081    98   %  2.4811
    98.000     624    37.46338   16.14810    53.61148   0.00070    99   %  2.4697
    99.000     631    31.69533   21.91595    53.61128   0.00051   100   %  2.4696



 **********************
 *                    *
 * JOB ENDED NORMALLY *
 *                    *
 **********************



 TOTAL JOB TIME:             4.67 SECONDS

 == MOPAC DONE ==
