 *******************************************************************************
 ** Site#: 37037        For non-commercial use only           Version 21.153W **
 *******************************************************************************
 ** Cite this program as: MOPAC2016, Version: 21.153W, James J. P. Stewart,   **
 ** Stewart Computational Chemistry, web: HTTP://OpenMOPAC.net. Days left: 364**
 *******************************************************************************
 **                                                                           **
 **                                MOPAC2016                                  **
 **                                                                           **
 *******************************************************************************

                              PM7 CALCULATION RESULTS

 *******************************************************************************
 *  CALCULATION DONE:                                Thu Jun  3 08:58:08 2021  *
 *  RESIDUES   - DETERMINE THE SEQUENCE OF RESIDUES
 *  T=         - A TIME OF 172800.0 SECONDS REQUESTED
 *  DUMP=N     - RESTART FILE WRITTEN EVERY 7200.0 SECONDS REQUESTED
 *  NOTXT      - DO NOT PRINT TEXT ASSOCIATED WITH AN ATOM
 *  HTML       - WRITE HTML SCRIPT TO READ PDB FILE USING JSMOL
 *******************************************************************************
      html notxt
      Formoazomethine Ylide plus ethylene Product

  ATOM    CHEMICAL      BOND LENGTH      BOND ANGLE     TWIST ANGLE 
 NUMBER    SYMBOL       (ANGSTROMS)      (DEGREES)       (DEGREES) 
   (I)                     NA:I           NB:NA:I       NC:NB:NA:I       NA    NB    NC 
     1       C          0.00000000       0.0000000       0.0000000        0     0     0
     2       C          1.54038000  *    0.0000000       0.0000000        1     0     0
     3       C          1.54872200  *  105.4228450  *    0.0000000        1     2     0
     4       N          1.48524100  *  107.7833110  *   17.1520130  *     3     1     2
     5       C          1.48524300  *  105.4738840  *  -28.0101880  *     4     3     1
     6       H          1.10012000  *  111.6096160  * -120.7646860  *     1     2     3
     7       H          1.10053100  *  111.1994510  * -118.6281660  *     1     2     6
     8       H          1.10053100  *  111.2004490  * -120.6016220  *     2     1     3
     9       H          1.10012600  *  111.6129250  * -118.6273720  *     2     1     8
    10       H          1.10318800  *  112.5299730  *  122.8941730  *     3     1     4
    11       H          1.11081500  *  110.6884920  *  119.9222690  *     3     1    10
    12       H          1.01779200  *  110.7039680  *  119.7891470  *     4     3     5
    13       H          1.11081900  *  107.3996300  *  -91.2793950  *     5     4     3
    14       H          1.10320000  *  111.1384610  * -116.9613610  *     5     4    13
 


          CARTESIAN COORDINATES 

    NO.       ATOM           X           Y           Z

     1         C          0.0000      0.0000      0.0000
     2         C          1.5404      0.0000      0.0000
     3         C         -0.4119      1.4930      0.0000
     4         N          0.7702      2.2896     -0.4171
     5         C          1.9522      1.4930      0.0001
     6         H         -0.4052     -0.5232      0.8789
     7         H         -0.3980     -0.5224     -0.8831
     8         H          1.9384     -0.5223     -0.8831
     9         H          1.9456     -0.5233      0.8788
    10         H         -1.2773      1.6927     -0.6544
    11         H         -0.6907      1.8231      1.0233
    12         H          0.7703      2.4328     -1.4247
    13         H          2.2309      1.8230      1.0235
    14         H          2.8178      1.6928     -0.6540

 General Reference for PM7:
 "Optimization of Parameters for Semiempirical Methods VI: More Modifications to the 
 NDDO Approximations and Re-optimization of Parameters", J. J. P. Stewart, J. Mol. Mod., 1:32, 19 (2013)
 https://link.springer.com/article/10.1007/s00894-012-1667-x

           Empirical Formula: C4 H9 N  =    14 atoms



      MOLECULAR POINT GROUP   :   C1  


      RHF CALCULATION, NO. OF DOUBLY OCCUPIED LEVELS = 15


          Geometry optimization using EF

     GRADIENT =  0.06032 IS LESS THAN CUTOFF =  1.00000



 -------------------------------------------------------------------------------
 html notxt
      Formoazomethine Ylide plus ethylene Product



     GRADIENTS WERE INITIALLY ACCEPTABLY SMALL                
     SCF FIELD WAS ACHIEVED                                   


                              PM7 CALCULATION
                                                       MOPAC2016 (Version: 21.153W)
                                                       Thu Jun  3 08:58:08 2021
                                                       No. of days remaining = 364




          FINAL HEAT OF FORMATION =         -5.56772 KCAL/MOL =     -23.29533 KJ/MOL


          TOTAL ENERGY            =       -799.17009 EV
          ELECTRONIC ENERGY       =      -3298.54415 EV  POINT GROUP:     C1  
          CORE-CORE REPULSION     =       2499.37406 EV
          COSMO AREA              =        116.29 SQUARE ANGSTROMS
          COSMO VOLUME            =        103.90 CUBIC ANGSTROMS

          GRADIENT NORM           =          0.06032 = 0.01612 PER ATOM
          IONIZATION POTENTIAL    =          9.219754 EV
          HOMO LUMO ENERGIES (EV) =         -9.220  3.088
          NO. OF FILLED LEVELS    =         15
          MOLECULAR WEIGHT        =         71.1218

          MOLECULAR DIMENSIONS (Angstroms)

            Atom       Atom       Distance
            H    10    H     9     4.20095
            H    14    H     6     4.13447
            H    13    H     8     2.90238


          SCF CALCULATIONS        =          1
 
          WALL-CLOCK TIME         =          0.029 SECONDS
          COMPUTATION TIME        =          0.078 SECONDS




  ATOM    CHEMICAL      BOND LENGTH      BOND ANGLE     TWIST ANGLE 
 NUMBER    SYMBOL       (ANGSTROMS)      (DEGREES)       (DEGREES) 
   (I)                     NA:I           NB:NA:I       NC:NB:NA:I       NA    NB    NC 
     1       C          0.00000000       0.0000000       0.0000000        0     0     0
     2       C          1.54038000  *    0.0000000       0.0000000        1     0     0
     3       C          1.54872200  *  105.4228450  *    0.0000000        1     2     0
     4       N          1.48524100  *  107.7833110  *   17.1520130  *     3     1     2
     5       C          1.48524300  *  105.4738840  *  -28.0101880  *     4     3     1
     6       H          1.10012000  *  111.6096160  * -120.7646860  *     1     2     3
     7       H          1.10053100  *  111.1994510  * -118.6281660  *     1     2     6
     8       H          1.10053100  *  111.2004490  * -120.6016220  *     2     1     3
     9       H          1.10012600  *  111.6129250  * -118.6273720  *     2     1     8
    10       H          1.10318800  *  112.5299730  *  122.8941730  *     3     1     4
    11       H          1.11081500  *  110.6884920  *  119.9222690  *     3     1    10
    12       H          1.01779200  *  110.7039680  *  119.7891470  *     4     3     5
    13       H          1.11081900  *  107.3996300  *  -91.2793950  *     5     4     3
    14       H          1.10320000  *  111.1384610  * -116.9613610  *     5     4    13

                             CARTESIAN COORDINATES

   1    C        0.000000000     0.000000000     0.000000000
   2    C        1.540380000     0.000000000     0.000000000
   3    C       -0.411867904     1.492951661     0.000000000
   4    N        0.770207549     2.289621184    -0.417080476
   5    C        1.952233465     1.492952948     0.000149946
   6    H       -0.405152846    -0.523174692     0.878864852
   7    H       -0.397969218    -0.522414696    -0.883103543
   8    H        1.938367090    -0.522325992    -0.883147958
   9    H        1.945594125    -0.523262514     0.878791824
  10    H       -1.277274424     1.692703068    -0.654365872
  11    H       -0.690730012     1.823116807     1.023297057
  12    H        0.770260582     2.432834290    -1.424746372
  13    H        2.230863230     1.823049647     1.023536712
  14    H        2.817755855     1.692824552    -0.654046182


           Empirical Formula: C4 H9 N  =    14 atoms



      MOLECULAR POINT GROUP   :   C1  


                  EIGENVALUES  
 -35.29243 -27.41256 -25.04294 -20.97443 -19.72140 -17.57373 -16.28437 -14.71612
 -14.49544 -13.24394 -12.64338 -12.14614 -12.08106 -11.37571  -9.21975   3.08849
   3.59378   4.22032   4.65845   5.01057   5.05372   5.49886   5.61410   6.06243
   6.13378   6.33232   6.39157   6.46938   6.93627


              NET ATOMIC CHARGES AND DIPOLE CONTRIBUTIONS

  ATOM NO.                 TYPE                        CHARGE      No. of ELECS.   s-Pop       p-Pop       
    1          C(HETATM    1  C1  NTB A   1)          -0.300259        4.3003     1.06932     3.23094
    2          C(HETATM    2  C2  NTB A   1)          -0.300265        4.3003     1.06932     3.23094
    3          C(HETATM    3  C3  NTB A   1)          -0.110113        4.1101     1.07373     3.03639
    4          N(HETATM    4  N   NTB A   1)          -0.517663        5.5177     1.67835     3.83932
    5          C(HETATM    5  C4  NTB A   1)          -0.110111        4.1101     1.07373     3.03638
    6          H(HETATM    6 1H1  NTB A   1)           0.140060        0.8599     0.85994
    7          H(HETATM    7 2H1  NTB A   1)           0.135664        0.8643     0.86434
    8          H(HETATM    8 1H2  NTB A   1)           0.135663        0.8643     0.86434
    9          H(HETATM    9 2H2  NTB A   1)           0.140060        0.8599     0.85994
   10          H(HETATM   10 1H3  NTB A   1)           0.126754        0.8732     0.87325
   11          H(HETATM   11 2H3  NTB A   1)           0.144509        0.8555     0.85549
   12          H(HETATM   12  H   NTB A   1)           0.244433        0.7556     0.75557
   13          H(HETATM   13 1H4  NTB A   1)           0.144509        0.8555     0.85549
   14          H(HETATM   14 2H4  NTB A   1)           0.126759        0.8732     0.87324
 DIPOLE           X         Y         Z       TOTAL
 POINT-CHG.     0.000    -1.209     0.020     1.209
 HYBRID         0.000    -0.684    -0.704     0.981
 SUM            0.000    -1.892    -0.684     2.012


          ATOMIC ORBITAL ELECTRON POPULATIONS

                   Atom                  s        px        py        pz   
   C(HETATM    1  C1  NTB A   1)   1.06932   1.01634   1.05111   1.16348
   C(HETATM    2  C2  NTB A   1)   1.06932   1.01634   1.05111   1.16349
   C(HETATM    3  C3  NTB A   1)   1.07373   0.96581   0.93276   1.13782
   N(HETATM    4  N   NTB A   1)   1.67835   1.08369   1.46273   1.29290
   C(HETATM    5  C4  NTB A   1)   1.07373   0.96582   0.93275   1.13780
   H(HETATM    6 1H1  NTB A   1)   0.85994
   H(HETATM    7 2H1  NTB A   1)   0.86434
   H(HETATM    8 1H2  NTB A   1)   0.86434
   H(HETATM    9 2H2  NTB A   1)   0.85994
   H(HETATM   10 1H3  NTB A   1)   0.87325
   H(HETATM   11 2H3  NTB A   1)   0.85549
   H(HETATM   12  H   NTB A   1)   0.75557
   H(HETATM   13 1H4  NTB A   1)   0.85549
   H(HETATM   14 2H4  NTB A   1)   0.87324

 **********************
 *                    *
 * JOB ENDED NORMALLY *
 *                    *
 **********************



 TOTAL JOB TIME:             0.03 SECONDS

 == MOPAC DONE ==
