 *******************************************************************************
 ** Site#: 37037        For non-commercial use only           Version 21.153W **
 *******************************************************************************
 ** Cite this program as: MOPAC2016, Version: 21.153W, James J. P. Stewart,   **
 ** Stewart Computational Chemistry, web: HTTP://OpenMOPAC.net. Days left: 364**
 *******************************************************************************
 **                                                                           **
 **                                MOPAC2016                                  **
 **                                                                           **
 *******************************************************************************

                              PM7 CALCULATION RESULTS

 *******************************************************************************
 *  CALCULATION DONE:                                Thu Jun  3 08:56:57 2021  *
 *  RESIDUES   - DETERMINE THE SEQUENCE OF RESIDUES
 *  T=         - A TIME OF 172800.0 SECONDS REQUESTED
 *  DUMP=N     - RESTART FILE WRITTEN EVERY 7200.0 SECONDS REQUESTED
 *  HTML       - WRITE HTML SCRIPT TO READ PDB FILE USING JSMOL
 *******************************************************************************
      HTML
 Formoazomethine Ylide plus ethylene (Reactants)

  ATOM    CHEMICAL      BOND LENGTH      BOND ANGLE     TWIST ANGLE 
 NUMBER    SYMBOL       (ANGSTROMS)      (DEGREES)       (DEGREES) 
   (I)                     NA:I           NB:NA:I       NC:NB:NA:I       NA    NB    NC 
     1       C          0.00000000       0.0000000       0.0000000        0     0     0
     2       C          1.54038000  *    0.0000000       0.0000000        1     0     0
     3       C          3.27439900  *   96.4646200  *    0.0000000        1     2     0
     4       N          1.48524100  *  116.3192740  *   18.2578260  *     3     1     2
     5       C          1.48524300  *  105.4738830  *  -30.9468770  *     4     3     1
     6       H          1.10012000  *  111.6096150  * -120.7646750  *     1     2     3
     7       H          1.10053100  *  111.1994450  * -118.6281510  *     1     2     6
     8       H          1.10053100  *  111.2004440  * -120.6016080  *     2     1     3
     9       H          1.10012600  *  111.6129220  * -118.6273370  *     2     1     8
    10       H          1.10318800  *  105.5594150  *  123.7376470  *     3     1     4
    11       H          1.11081500  *  108.8809260  *  114.8095840  *     3     1    10
    12       H          1.01779200  *  110.7039550  *  119.7891320  *     4     3     5
    13       H          1.11081900  *  107.3996160  *  -91.2793520  *     5     4     3
    14       H          1.10320000  *  111.1384550  * -116.9613710  *     5     4    13
 


          CARTESIAN COORDINATES 

    NO.       ATOM           X           Y           Z

     1         C          0.0000      0.0000      0.0000
     2         C          1.5404      0.0000      0.0000
     3         C         -0.3687      3.2536      0.0000
     4         N          0.8134      4.0502     -0.4171
     5         C          1.9954      3.2536      0.0001
     6         H         -0.4052     -0.5232      0.8789
     7         H         -0.3980     -0.5224     -0.8831
     8         H          1.9384     -0.5223     -0.8831
     9         H          1.9456     -0.5233      0.8788
    10         H         -1.2341      3.4533     -0.6544
    11         H         -0.6475      3.5837      1.0233
    12         H          0.8135      4.1935     -1.4247
    13         H          2.2741      3.5837      1.0235
    14         H          2.8610      3.4535     -0.6540

 General Reference for PM7:
 "Optimization of Parameters for Semiempirical Methods VI: More Modifications to the 
 NDDO Approximations and Re-optimization of Parameters", J. J. P. Stewart, J. Mol. Mod., 1:32, 19 (2013)
 https://link.springer.com/article/10.1007/s00894-012-1667-x

           Empirical Formula: C4 H9 N  =    14 atoms



      MOLECULAR POINT GROUP   :   Cs  


      RHF CALCULATION, NO. OF DOUBLY OCCUPIED LEVELS = 15


          Geometry optimization using EF

          DIAGONAL MATRIX USED AS START HESSIAN

 CYCLE:     1 TIME:   0.000 TIME LEFT:  2.00D  GRAD.:   230.548 HEAT:  199.0501
 CYCLE:     2 TIME:   0.000 TIME LEFT:  2.00D  GRAD.:   143.489 HEAT:  162.1852
 CYCLE:     3 TIME:   0.016 TIME LEFT:  2.00D  GRAD.:   121.354 HEAT:  133.2433
 CYCLE:     4 TIME:   0.000 TIME LEFT:  2.00D  GRAD.:   117.132 HEAT:  100.2431
 CYCLE:     5 TIME:   0.000 TIME LEFT:  2.00D  GRAD.:    50.936 HEAT:  77.30427
 CYCLE:     6 TIME:   0.016 TIME LEFT:  2.00D  GRAD.:    52.103 HEAT:  64.96556
 CYCLE:     7 TIME:   0.000 TIME LEFT:  2.00D  GRAD.:    39.079 HEAT:  56.13547
 CYCLE:     8 TIME:   0.000 TIME LEFT:  2.00D  GRAD.:    31.588 HEAT:  49.34348
 CYCLE:     9 TIME:   0.016 TIME LEFT:  2.00D  GRAD.:    20.508 HEAT:  45.26319
 CYCLE:    10 TIME:   0.000 TIME LEFT:  2.00D  GRAD.:    14.459 HEAT:  44.19732
 CYCLE:    11 TIME:   0.000 TIME LEFT:  2.00D  GRAD.:    11.379 HEAT:  43.20292
 CYCLE:    12 TIME:   0.000 TIME LEFT:  2.00D  GRAD.:    10.876 HEAT:  42.80396
 CYCLE:    13 TIME:   0.016 TIME LEFT:  2.00D  GRAD.:     7.044 HEAT:  42.47403
 CYCLE:    14 TIME:   0.000 TIME LEFT:  2.00D  GRAD.:     4.647 HEAT:  42.32254
 CYCLE:    15 TIME:   0.000 TIME LEFT:  2.00D  GRAD.:     3.529 HEAT:  42.25615
 CYCLE:    16 TIME:   0.016 TIME LEFT:  2.00D  GRAD.:     2.560 HEAT:  42.22305
 CYCLE:    17 TIME:   0.000 TIME LEFT:  2.00D  GRAD.:     1.702 HEAT:  42.20780
 CYCLE:    18 TIME:   0.000 TIME LEFT:  2.00D  GRAD.:     1.490 HEAT:  42.20043
 CYCLE:    19 TIME:   0.000 TIME LEFT:  2.00D  GRAD.:     1.669 HEAT:  42.19331
 CYCLE:    20 TIME:   0.016 TIME LEFT:  2.00D  GRAD.:     1.766 HEAT:  42.18446
 CYCLE:    21 TIME:   0.000 TIME LEFT:  2.00D  GRAD.:     2.169 HEAT:  42.16147
 CYCLE:    22 TIME:   0.000 TIME LEFT:  2.00D  GRAD.:     1.973 HEAT:  42.15061
 CYCLE:    23 TIME:   0.000 TIME LEFT:  2.00D  GRAD.:     2.307 HEAT:  42.12095
 CYCLE:    24 TIME:   0.016 TIME LEFT:  2.00D  GRAD.:     2.476 HEAT:  42.10517
 CYCLE:    25 TIME:   0.000 TIME LEFT:  2.00D  GRAD.:     1.071 HEAT:  42.07901
 CYCLE:    26 TIME:   0.000 TIME LEFT:  2.00D  GRAD.:     0.766 HEAT:  42.07216

     GRADIENT =  0.76617 IS LESS THAN CUTOFF =  1.00000



 -------------------------------------------------------------------------------
 HTML
 Formoazomethine Ylide plus ethylene (Reactants)



     GEOMETRY OPTIMISED USING EIGENVECTOR FOLLOWING (EF).     
     SCF FIELD WAS ACHIEVED                                   


                              PM7 CALCULATION
                                                       MOPAC2016 (Version: 21.153W)
                                                       Thu Jun  3 08:56:58 2021
                                                       No. of days remaining = 364




          FINAL HEAT OF FORMATION =         42.07216 KCAL/MOL =     176.02992 KJ/MOL


          TOTAL ENERGY            =       -797.06453 EV
          ELECTRONIC ENERGY       =      -2938.39050 EV  POINT GROUP:     C1  
          CORE-CORE REPULSION     =       2141.32597 EV
          COSMO AREA              =        139.90 SQUARE ANGSTROMS
          COSMO VOLUME            =        127.41 CUBIC ANGSTROMS

          GRADIENT NORM           =          0.76617 = 0.20477 PER ATOM
          IONIZATION POTENTIAL    =          7.884208 EV
          HOMO LUMO ENERGIES (EV) =         -7.884  0.773
          NO. OF FILLED LEVELS    =         15
          MOLECULAR WEIGHT        =         71.1218

          MOLECULAR DIMENSIONS (Angstroms)

            Atom       Atom       Distance
            H    14    H     7     5.36256
            H    10    H     9     5.05212
            H     8    H    11     2.96099


          SCF CALCULATIONS        =         27
 
          WALL-CLOCK TIME         =          0.297 SECONDS
          COMPUTATION TIME        =          0.516 SECONDS




  ATOM               CHEMICAL                 BOND LENGTH      BOND ANGLE     TWIST ANGLE 
 NUMBER               SYMBOL                  (ANGSTROMS)      (DEGREES)       (DEGREES) 
   (I)                                           NA:I           NB:NA:I       NC:NB:NA:I       NA    NB    NC 
     1       C(HETATM    1  C1  HET A   1)    0.00000000       0.0000000       0.0000000   
     2       C(HETATM    2  C2  HET A   1)    1.32992792  *    0.0000000       0.0000000        1     0     0
     3       C(HETATM    3  C1  HET B   2)    3.39954464  *  107.0435540  *    0.0000000        1     2     0
     4       N(HETATM    4  N   HET B   2)    1.32462718  *   98.6758731  *   17.2529435  *     3     1     2
     5       C(HETATM    5  C2  HET B   2)    1.32473991  *  125.6907043  *  -76.2858734  *     4     3     1
     6       H(HETATM    6 1H1  HET A   1)    1.07969277  *  123.6395747  *  -83.5702901  *     1     2     3
     7       H(HETATM    7 2H1  HET A   1)    1.07936760  *  123.6329615  *  179.6661666  *     1     2     6
     8       H(HETATM    8 1H2  HET A   1)    1.07881495  *  123.7239162  *  -96.1002860  *     2     1     3
     9       H(HETATM    9 2H2  HET A   1)    1.07975424  *  123.4944957  *  179.5608097  *     2     1     8
    10       H(HETATM   10 1H1  HET B   2)    1.06990716  *   97.0037731  *  124.3645423  *     3     1     4
    11       H(HETATM   11 2H1  HET B   2)    1.07254725  *   73.2214979  *  114.1304641  *     3     1    10
    12       H(HETATM   12  H   HET B   2)    1.02229092  *  117.2216162  * -179.7294222  *     4     3     5
    13       H(HETATM   13 1H2  HET B   2)    1.07260615  *  122.6016457  *    0.0746797  *     5     4     3
    14       H(HETATM   14 2H2  HET B   2)    1.06999019  *  122.3789397  *  179.7986241  *     5     4    13

                             CARTESIAN COORDINATES

   1    C        0.000000000     0.000000000     0.000000000
   2    C        1.329927919     0.000000000     0.000000000
   3    C       -0.996401656     3.250244225     0.000000000
   4    N        0.140662262     3.807816145    -0.388376579
   5    C        1.209528654     3.993685892     0.371829248
   6    H       -0.598113863     0.100661063     0.893232122
   7    H       -0.597830009    -0.095433555    -0.893602895
   8    H        1.928876970    -0.095352507    -0.892193716
   9    H        1.925797718     0.102550110     0.894590343
  10    H       -1.830504622     3.130991336    -0.659357501
  11    H       -1.147358364     2.880129429     0.995281228
  12    H        0.198027512     4.126331442    -1.358085793
  13    H        1.244910406     3.696474466     1.401828008
  14    H        2.103879510     4.449538594     0.001405350


           Empirical Formula: C4 H9 N  =    14 atoms



      MOLECULAR POINT GROUP   :   C1  


                  EIGENVALUES  
 -37.46208 -26.67917 -24.14444 -21.65649 -20.14223 -18.29872 -16.44123 -15.97196
 -14.35156 -13.94992 -13.24233 -13.00882 -11.87942 -10.55909  -7.88421   0.77347
   1.20394   2.91768   5.04688   5.55733   5.65578   5.89418   6.47094   6.55854
   6.59489   6.62700   6.66072   6.90043   6.95985


              NET ATOMIC CHARGES AND DIPOLE CONTRIBUTIONS

  ATOM NO.                 TYPE                        CHARGE      No. of ELECS.   s-Pop       p-Pop       
    1          C(HETATM    1  C1  HET A   1)          -0.272076        4.2721     1.09521     3.17687
    2          C(HETATM    2  C2  HET A   1)          -0.285522        4.2855     1.09430     3.19122
    3          C(HETATM    3  C1  HET B   2)          -0.535459        4.5355     1.06188     3.47358
    4          N(HETATM    4  N   HET B   2)           0.131385        4.8686     1.43785     3.43076
    5          C(HETATM    5  C2  HET B   2)          -0.535190        4.5352     1.06214     3.47304
    6          H(HETATM    6 1H1  HET A   1)           0.141094        0.8589     0.85891
    7          H(HETATM    7 2H1  HET A   1)           0.137850        0.8621     0.86215
    8          H(HETATM    8 1H2  HET A   1)           0.137381        0.8626     0.86262
    9          H(HETATM    9 2H2  HET A   1)           0.141098        0.8589     0.85890
   10          H(HETATM   10 1H1  HET B   2)           0.163073        0.8369     0.83693
   11          H(HETATM   11 2H1  HET B   2)           0.176065        0.8239     0.82393
   12          H(HETATM   12  H   HET B   2)           0.260447        0.7396     0.73955
   13          H(HETATM   13 1H2  HET B   2)           0.176387        0.8236     0.82361
   14          H(HETATM   14 2H2  HET B   2)           0.163466        0.8365     0.83653
 DIPOLE           X         Y         Z       TOTAL
 POINT-CHG.     0.045     0.464    -1.355     1.433
 HYBRID         0.032     0.135    -0.420     0.442
 SUM            0.077     0.599    -1.775     1.875


          ATOMIC ORBITAL ELECTRON POPULATIONS

                   Atom                  s        px        py        pz   
   C(HETATM    1  C1  HET A   1)   1.09521   1.03977   0.99524   1.14185
   C(HETATM    2  C2  HET A   1)   1.09430   1.04107   1.00815   1.14200
   C(HETATM    3  C1  HET B   2)   1.06188   0.97761   1.31230   1.18367
   N(HETATM    4  N   HET B   2)   1.43785   1.11146   1.17199   1.14732
   C(HETATM    5  C2  HET B   2)   1.06214   1.00250   1.35626   1.11429
   H(HETATM    6 1H1  HET A   1)   0.85891
   H(HETATM    7 2H1  HET A   1)   0.86215
   H(HETATM    8 1H2  HET A   1)   0.86262
   H(HETATM    9 2H2  HET A   1)   0.85890
   H(HETATM   10 1H1  HET B   2)   0.83693
   H(HETATM   11 2H1  HET B   2)   0.82393
   H(HETATM   12  H   HET B   2)   0.73955
   H(HETATM   13 1H2  HET B   2)   0.82361
   H(HETATM   14 2H2  HET B   2)   0.83653

 **********************
 *                    *
 * JOB ENDED NORMALLY *
 *                    *
 **********************



 TOTAL JOB TIME:             0.30 SECONDS

 == MOPAC DONE ==
