 *******************************************************************************
 ** Site#: 37037        For non-commercial use only           Version 21.153W **
 *******************************************************************************
 ** Cite this program as: MOPAC2016, Version: 21.153W, James J. P. Stewart,   **
 ** Stewart Computational Chemistry, web: HTTP://OpenMOPAC.net. Days left: 364**
 *******************************************************************************
 **                                                                           **
 **                                MOPAC2016                                  **
 **                                                                           **
 *******************************************************************************

                              PM7 CALCULATION RESULTS

 *******************************************************************************
 *  CALCULATION DONE:                                Thu Jun  3 09:01:33 2021  *
 *  GEO_DAT    - DATA SET GEOMETRY IS IN FILE "Saddle_TS.arc"
 *  TS         - USE EF ROUTINE FOR TS SEARCH
 *  T=         - A TIME OF 172800.0 SECONDS REQUESTED
 *  DUMP=N     - RESTART FILE WRITTEN EVERY 7200.0 SECONDS REQUESTED
 *******************************************************************************
TS    geo_dat="Saddle_TS.arc"
 Refine transition state for the reaction Formoazomethine Ylide plus ethylene <=> Formoazomethine Ylide plus ethylene product

   ATOM                 CHEMICAL                   X               Y               Z
  NUMBER                 SYMBOL               (ANGSTROMS)     (ANGSTROMS)     (ANGSTROMS)
 
     1       C(HETATM    1  C1  HET A   1)    0.05943923  *  -0.30579898  *   0.01149470  *
     2       C(HETATM    2  C2  HET A   1)    1.44795735  *  -0.33957532  *  -0.02702446  *
     3       C(HETATM    3  C1  HET B   2)   -0.36623975  *   1.80378043  *  -0.03941742  *
     4       N(HETATM    4  N   HET B   2)    0.81375481  *   2.17826917  *  -0.60852003  *
     5       C(HETATM    5  C2  HET B   2)    1.96644017  *   1.76132922  *  -0.01445036  *
     6       H(HETATM    6 1H1  HET A   1)   -0.47481833  *  -0.47112532  *   0.93189122  *
     7       H(HETATM    7 2H1  HET A   1)   -0.53258320  *  -0.48630022  *  -0.86870133  *
     8       H(HETATM    8 1H2  HET A   1)    1.97706144  *  -0.52994901  *  -0.94361090  *
     9       H(HETATM    9 2H2  HET A   1)    2.03192104  *  -0.54501253  *   0.85582792  *
    10       H(HETATM   10 1H1  HET B   2)   -1.28003779  *   1.95013164  *  -0.59387372  *
    11       H(HETATM   11 2H1  HET B   2)   -0.47633731  *   1.80301767  *   1.03621209  *
    12       H(HETATM   12  H   HET B   2)    0.83044291  *   2.35018649  *  -1.60690327  *
    13       H(HETATM   13 1H2  HET B   2)    2.04301241  *   1.73137288  *   1.06048858  *
    14       H(HETATM   14 2H2  HET B   2)    2.90323045  *   1.90474983  *  -0.52992323  *
 

 General Reference for PM7:
 "Optimization of Parameters for Semiempirical Methods VI: More Modifications to the 
 NDDO Approximations and Re-optimization of Parameters", J. J. P. Stewart, J. Mol. Mod., 1:32, 19 (2013)
 https://link.springer.com/article/10.1007/s00894-012-1667-x

           Empirical Formula: C4 H9 N  =    14 atoms



      MOLECULAR POINT GROUP   :   Cs  


      RHF CALCULATION, NO. OF DOUBLY OCCUPIED LEVELS = 15


          Transition state refinement using EF

          HESSIAN CALCULATED NUMERICALLY

 CYCLE:     1 TIME:   0.125 TIME LEFT:  2.00D  GRAD.:    21.870 HEAT:  53.07798
 CYCLE:     2 TIME:   0.016 TIME LEFT:  2.00D  GRAD.:     3.836 HEAT:  53.31300
 CYCLE:     3 TIME:   0.000 TIME LEFT:  2.00D  GRAD.:     1.378 HEAT:  53.31410
 CYCLE:     4 TIME:   0.000 TIME LEFT:  2.00D  GRAD.:     0.228 HEAT:  53.31230

     GRADIENT =  0.22777 IS LESS THAN CUTOFF =  1.00000



 -------------------------------------------------------------------------------
 TS
 Refine transition state for the reaction Formoazomethine Ylide plus ethylene <=> Formoazomethine Ylide plus ethylene product



     GEOMETRY OPTIMISED USING EIGENVECTOR FOLLOWING (TS).     
     SCF FIELD WAS ACHIEVED                                   


                              PM7 CALCULATION
                                                       MOPAC2016 (Version: 21.153W)
                                                       Thu Jun  3 09:01:33 2021
                                                       No. of days remaining = 364




          FINAL HEAT OF FORMATION =         53.31230 KCAL/MOL =     223.05868 KJ/MOL


          TOTAL ENERGY            =       -796.61144 EV
          ELECTRONIC ENERGY       =      -3220.05211 EV  POINT GROUP:     Cs  
          CORE-CORE REPULSION     =       2423.44067 EV
          COSMO AREA              =        120.09 SQUARE ANGSTROMS
          COSMO VOLUME            =        109.91 CUBIC ANGSTROMS

          GRADIENT NORM           =          0.22777 = 0.06088 PER ATOM
          IONIZATION POTENTIAL    =          8.006327 EV
          HOMO LUMO ENERGIES (EV) =         -8.006  0.773
          NO. OF FILLED LEVELS    =         15
          MOLECULAR WEIGHT        =         71.1218

          MOLECULAR DIMENSIONS (Angstroms)

            Atom       Atom       Distance
            H    14    H     6     4.36656
            H    10    H     9     4.29708
            H     8    H    13     2.84250


          SCF CALCULATIONS        =         48
 
          WALL-CLOCK TIME         =          0.172 SECONDS
          COMPUTATION TIME        =          0.641 SECONDS




   ATOM                 CHEMICAL                   X               Y               Z
  NUMBER                 SYMBOL               (ANGSTROMS)     (ANGSTROMS)     (ANGSTROMS)
 
     1       C(HETATM    1  C1  HET A   1)    0.06957257  *  -0.32583974  *  -0.00857414  *
     2       C(HETATM    2  C2  HET A   1)    1.44147607  *  -0.35483290  *  -0.00989111  *
     3       C(HETATM    3  C1  HET B   2)   -0.36486309  *   1.83251468  *  -0.02191561  *
     4       N(HETATM    4  N   HET B   2)    0.80769564  *   2.15663044  *  -0.61335632  *
     5       C(HETATM    5  C2  HET B   2)    1.96652341  *   1.78361022  *  -0.02359164  *
     6       H(HETATM    6 1H1  HET A   1)   -0.50340668  *  -0.46910566  *   0.89206430  *
     7       H(HETATM    7 2H1  HET A   1)   -0.50600277  *  -0.45349270  *  -0.90955324  *
     8       H(HETATM    8 1H2  HET A   1)    2.00944635  *  -0.50645073  *  -0.91210642  *
     9       H(HETATM    9 2H2  HET A   1)    2.00954117  *  -0.52217537  *   0.88971254  *
    10       H(HETATM   10 1H1  HET B   2)   -1.29094795  *   1.94434357  *  -0.55562614  *
    11       H(HETATM   11 2H1  HET B   2)   -0.44892581  *   1.79400796  *   1.05234308  *
    12       H(HETATM   12  H   HET B   2)    0.81102834  *   2.34839240  *  -1.60805412  *
    13       H(HETATM   13 1H2  HET B   2)    2.05046805  *   1.74138633  *   1.05058755  *
    14       H(HETATM   14 2H2  HET B   2)    2.89563172  *   1.85657565  *  -0.55865886  *

                             CARTESIAN COORDINATES

   1    C        0.069572565    -0.325839739    -0.008574137
   2    C        1.441476075    -0.354832897    -0.009891110
   3    C       -0.364863086     1.832514677    -0.021915614
   4    N        0.807695642     2.156630439    -0.613356318
   5    C        1.966523409     1.783610224    -0.023591644
   6    H       -0.503406684    -0.469105655     0.892064302
   7    H       -0.506002767    -0.453492695    -0.909553236
   8    H        2.009446349    -0.506450726    -0.912106418
   9    H        2.009541165    -0.522175369     0.889712540
  10    H       -1.290947952     1.944343569    -0.555626138
  11    H       -0.448925805     1.794007962     1.052343076
  12    H        0.811028344     2.348392395    -1.608054125
  13    H        2.050468054     1.741386328     1.050587552
  14    H        2.895631718     1.856575653    -0.558658859


           Empirical Formula: C4 H9 N  =    14 atoms



      MOLECULAR POINT GROUP   :   Cs  


                  EIGENVALUES  
 -37.25297 -26.09296 -24.23916 -21.66796 -19.54434 -18.21187 -16.05146 -15.52145
 -14.01246 -13.53680 -13.30547 -12.97425 -11.37251  -8.88399  -8.00633   0.77266
   1.95532   3.12433   5.26787   5.47412   6.18106   6.27258   6.30579   6.37257
   6.50897   6.79037   7.15054   7.22078   7.26276


              NET ATOMIC CHARGES AND DIPOLE CONTRIBUTIONS

  ATOM NO.                 TYPE                        CHARGE      No. of ELECS.   s-Pop       p-Pop       
    1          C(HETATM    1  C1  HET A   1)          -0.310237        4.3102     1.08798     3.22225
    2          C(HETATM    2  C2  HET A   1)          -0.310285        4.3103     1.08801     3.22228
    3          C(HETATM    3  C1  HET B   2)          -0.337243        4.3372     1.08751     3.24973
    4          N(HETATM    4  N   HET B   2)          -0.119476        5.1195     1.47454     3.64493
    5          C(HETATM    5  C2  HET B   2)          -0.337265        4.3373     1.08752     3.24974
    6          H(HETATM    6 1H1  HET A   1)           0.130386        0.8696     0.86961
    7          H(HETATM    7 2H1  HET A   1)           0.127625        0.8724     0.87238
    8          H(HETATM    8 1H2  HET A   1)           0.127636        0.8724     0.87236
    9          H(HETATM    9 2H2  HET A   1)           0.130393        0.8696     0.86961
   10          H(HETATM   10 1H1  HET B   2)           0.147505        0.8525     0.85249
   11          H(HETATM   11 2H1  HET B   2)           0.163481        0.8365     0.83652
   12          H(HETATM   12  H   HET B   2)           0.276496        0.7235     0.72350
   13          H(HETATM   13 1H2  HET B   2)           0.163490        0.8365     0.83651
   14          H(HETATM   14 2H2  HET B   2)           0.147494        0.8525     0.85251

          NET CHARGE ON RESIDUES

      Residue         Charge  Anion or
                              Cation?
      HET A   1       -0.104
      HET B   2       +0.104
 


 DIPOLE           X         Y         Z       TOTAL
 POINT-CHG.     0.026     1.298    -0.821     1.536
 HYBRID         0.009     0.437    -0.394     0.588
 SUM            0.035     1.734    -1.216     2.118


          ATOMIC ORBITAL ELECTRON POPULATIONS

                   Atom                  s        px        py        pz   
   C(HETATM    1  C1  HET A   1)   1.08798   1.03364   1.05677   1.13184
   C(HETATM    2  C2  HET A   1)   1.08801   1.03286   1.05761   1.13182
   C(HETATM    3  C1  HET B   2)   1.08751   0.93611   1.19377   1.11985
   N(HETATM    4  N   HET B   2)   1.47454   1.11035   1.36095   1.17363
   C(HETATM    5  C2  HET B   2)   1.08752   0.94574   1.18388   1.12013
   H(HETATM    6 1H1  HET A   1)   0.86961
   H(HETATM    7 2H1  HET A   1)   0.87238
   H(HETATM    8 1H2  HET A   1)   0.87236
   H(HETATM    9 2H2  HET A   1)   0.86961
   H(HETATM   10 1H1  HET B   2)   0.85249
   H(HETATM   11 2H1  HET B   2)   0.83652
   H(HETATM   12  H   HET B   2)   0.72350
   H(HETATM   13 1H2  HET B   2)   0.83651
   H(HETATM   14 2H2  HET B   2)   0.85251
 *******************************************************************************
 ** Site#: 37037        For non-commercial use only           Version 21.153W **
 *******************************************************************************
 ** Cite this program as: MOPAC2016, Version: 21.153W, James J. P. Stewart,   **
 ** Stewart Computational Chemistry, web: HTTP://OpenMOPAC.net. Days left: 364**
 *******************************************************************************
 **                                                                           **
 **                                MOPAC2016                                  **
 **                                                                           **
 *******************************************************************************

                              PM7 CALCULATION RESULTS

 *******************************************************************************
 *  CALCULATION DONE:                                Thu Jun  3 09:01:33 2021  *
 *  IRC=N      - INTRINSIC REACTION COORDINATE  1 DEFINED
 *  OLDGEO     - PREVIOUS GEOMETRY TO BE USED
 *  T=         - A TIME OF 172800.0 SECONDS REQUESTED
 *  DUMP=N     - RESTART FILE WRITTEN EVERY 7200.0 SECONDS REQUESTED
 *  HTML       - WRITE HTML SCRIPT TO GENERATE ANIMATION USING JSMOL
 *             - TO DISPLAY IN PDB FORMAT, ADD "PDBOUT"
 *  X-PRIOR    - GEOMETRY CHANGES TAKE PRIORITY IN DRC
 *******************************************************************************
oldgeo   IRC=1* HTML X-priority=0.2
 Reaction path for the reaction Formoazomethine Ylide plus ethylene <=> Formoazomethine Ylide plus ethylene product

   ATOM                 CHEMICAL                   X               Y               Z
  NUMBER                 SYMBOL               (ANGSTROMS)     (ANGSTROMS)     (ANGSTROMS)
 
     1       C(HETATM    1  C1  HET A   1)    0.06957257  *  -0.32583974  *  -0.00857414  *
     2       C(HETATM    2  C2  HET A   1)    1.44147607  *  -0.35483290  *  -0.00989111  *
     3       C(HETATM    3  C1  HET B   2)   -0.36486309  *   1.83251468  *  -0.02191561  *
     4       N(HETATM    4  N   HET B   2)    0.80769564  *   2.15663044  *  -0.61335632  *
     5       C(HETATM    5  C2  HET B   2)    1.96652341  *   1.78361022  *  -0.02359164  *
     6       H(HETATM    6 1H1  HET A   1)   -0.50340668  *  -0.46910566  *   0.89206430  *
     7       H(HETATM    7 2H1  HET A   1)   -0.50600277  *  -0.45349270  *  -0.90955324  *
     8       H(HETATM    8 1H2  HET A   1)    2.00944635  *  -0.50645073  *  -0.91210642  *
     9       H(HETATM    9 2H2  HET A   1)    2.00954117  *  -0.52217537  *   0.88971254  *
    10       H(HETATM   10 1H1  HET B   2)   -1.29094795  *   1.94434357  *  -0.55562614  *
    11       H(HETATM   11 2H1  HET B   2)   -0.44892581  *   1.79400796  *   1.05234308  *
    12       H(HETATM   12  H   HET B   2)    0.81102834  *   2.34839240  *  -1.60805412  *
    13       H(HETATM   13 1H2  HET B   2)    2.05046805  *   1.74138633  *   1.05058755  *
    14       H(HETATM   14 2H2  HET B   2)    2.89563172  *   1.85657565  *  -0.55865886  *
 

 General Reference for PM7:
 "Optimization of Parameters for Semiempirical Methods VI: More Modifications to the 
 NDDO Approximations and Re-optimization of Parameters", J. J. P. Stewart, J. Mol. Mod., 1:32, 19 (2013)
 https://link.springer.com/article/10.1007/s00894-012-1667-x

           Empirical Formula: C4 H9 N  =    14 atoms



      MOLECULAR POINT GROUP   :   Cs  


      RHF CALCULATION, NO. OF DOUBLY OCCUPIED LEVELS = 15



          HEAT OF FORMATION =      53.312309 KCALS/MOLE


          GRADIENT NORM =   0.32268

          MOLECULAR WEIGHT =   71.12


          ESTIMATED TIME TO COMPLETE CALCULATION =        0.00 SECONDS

    FOR POINT-GROUP Cs   THERE ARE   2 UNIQUE SYMMETRY FUNCTIONS.

 STEP:   1 TIME =     0.00 SECS, INTEGRAL =      0.00 TIME LEFT: 172800.00
 STEP:   2 TIME =     0.02 SECS, INTEGRAL =      0.02 TIME LEFT: 172799.98
 STEP:   3 TIME =     0.00 SECS, INTEGRAL =      0.02 TIME LEFT: 172799.98
 STEP:   4                       INTEGRAL =      0.02 TIME LEFT: 172799.98
 STEP:   5                       INTEGRAL =      0.02 TIME LEFT: 172799.98
 STEP:   6                       INTEGRAL =      0.02 TIME LEFT: 172799.98
 STEP:   7 TIME =     0.00 SECS, INTEGRAL =      0.02 TIME LEFT: 172799.98
 STEP:   8 TIME =     0.00 SECS, INTEGRAL =      0.02 TIME LEFT: 172799.98
 STEP:   9 TIME =     0.00 SECS, INTEGRAL =      0.02 TIME LEFT: 172799.98
 STEP:  10 TIME =     0.02 SECS, INTEGRAL =      0.03 TIME LEFT: 172799.97
 STEP:  11 TIME =     0.00 SECS, INTEGRAL =      0.03 TIME LEFT: 172799.97
 STEP:  12 TIME =     0.00 SECS, INTEGRAL =      0.03 TIME LEFT: 172799.97
 STEP:  13                       INTEGRAL =      0.03 TIME LEFT: 172799.97
 STEP:  14                       INTEGRAL =      0.03 TIME LEFT: 172799.97
 STEP:  15                       INTEGRAL =      0.03 TIME LEFT: 172799.97
 STEP:  16 TIME =     0.00 SECS, INTEGRAL =      0.03 TIME LEFT: 172799.97
 STEP:  17 TIME =     0.00 SECS, INTEGRAL =      0.03 TIME LEFT: 172799.97
 STEP:  18 TIME =     0.02 SECS, INTEGRAL =      0.05 TIME LEFT: 172799.95
 STEP:  19 TIME =     0.00 SECS, INTEGRAL =      0.05 TIME LEFT: 172799.95
 STEP:  20 TIME =     0.00 SECS, INTEGRAL =      0.05 TIME LEFT: 172799.95
 STEP:  21 TIME =     0.02 SECS, INTEGRAL =      0.06 TIME LEFT: 172799.94
 STEP:  22                       INTEGRAL =      0.06 TIME LEFT: 172799.94
 STEP:  23                       INTEGRAL =      0.06 TIME LEFT: 172799.94
 STEP:  24                       INTEGRAL =      0.06 TIME LEFT: 172799.94
 STEP:  25                       INTEGRAL =      0.06 TIME LEFT: 172799.94
 STEP:  26                       INTEGRAL =      0.06 TIME LEFT: 172799.94
 STEP:  27                       INTEGRAL =      0.06 TIME LEFT: 172799.94
 STEP:  28 TIME =     0.00 SECS, INTEGRAL =      0.06 TIME LEFT: 172799.94
 STEP:  29 TIME =     0.00 SECS, INTEGRAL =      0.06 TIME LEFT: 172799.94
 STEP:  30 TIME =     0.02 SECS, INTEGRAL =      0.08 TIME LEFT: 172799.92
 STEP:  31 TIME =     0.00 SECS, INTEGRAL =      0.08 TIME LEFT: 172799.92
 STEP:  32 TIME =     0.00 SECS, INTEGRAL =      0.08 TIME LEFT: 172799.92
 STEP:  33 TIME =     0.02 SECS, INTEGRAL =      0.09 TIME LEFT: 172799.91
 STEP:  34 TIME =     0.00 SECS, INTEGRAL =      0.09 TIME LEFT: 172799.91
 STEP:  35 TIME =     0.00 SECS, INTEGRAL =      0.09 TIME LEFT: 172799.91
 STEP:  36 TIME =     0.02 SECS, INTEGRAL =      0.11 TIME LEFT: 172799.89
 STEP:  37                       INTEGRAL =      0.11 TIME LEFT: 172799.89
 STEP:  38                       INTEGRAL =      0.11 TIME LEFT: 172799.89
 STEP:  39                       INTEGRAL =      0.11 TIME LEFT: 172799.89
 STEP:  40                       INTEGRAL =      0.11 TIME LEFT: 172799.89
 STEP:  41                       INTEGRAL =      0.11 TIME LEFT: 172799.89
 STEP:  42                       INTEGRAL =      0.11 TIME LEFT: 172799.89
           INITIAL VELOCITY IN DRC (Angstroms/Femtosecond)
         0.02847        -0.11389         0.00071
        -0.02848        -0.11387         0.00070
        -0.00798         0.12514        -0.00185
        -0.00001        -0.03534         0.00276
         0.00800         0.12516        -0.00184
        -0.01294         0.02504         0.00035
        -0.01205         0.04551         0.00170
         0.01208         0.04552         0.00171
         0.01296         0.02506         0.00036
        -0.00688         0.08138         0.00326
        -0.00613        -0.06010        -0.01578
        -0.00000         0.03875         0.00973
         0.00610        -0.06009        -0.01578
         0.00689         0.08140         0.00327

 GEOMETRY PRIORITY, STEP = 0.2000 ANGSTROMS



     POINT   POTENTIAL  +  ENERGY LOST   =   TOTAL      ERROR    REF%   MOVEMENT
       1      53.31230      0.00000         53.31230   0.00000     1   %  0.0000
      40      52.91462      0.34213         53.25675  -0.03615     2   %  0.2000
      60      51.89744      1.35551         53.25295  -0.03994     3   %  0.3965
      70      50.67623      2.57877         53.25500  -0.03789     4   %  0.5748
      88      49.57637      3.68231         53.25869  -0.03420     5   %  0.7403
     105      48.65179      4.61039         53.26218  -0.03071     6   %  0.9043
     122      47.86914      5.39625         53.26539  -0.02751     7   %  1.0743
     137      47.19724      6.07109         53.26832  -0.02457     8   %  1.2481
     150      46.61427      6.65675         53.27102  -0.02187     9   %  1.4298
     163      46.10451      7.16900         53.27351  -0.01938    10   %  1.6218
     175      45.65618      7.61964         53.27582  -0.01707    11   %  1.8166
     186      45.26016      8.01781         53.27797  -0.01493    12   %  2.0129
     197      44.90916      8.37080         53.27997  -0.01292    13   %  2.2102
     209      44.59736      8.68524         53.28260  -0.01029    14   %  2.4081
     225      44.31939      8.96781         53.28720  -0.00570    15   %  2.6068
     240      44.07176      9.21946         53.29122  -0.00167    16   %  2.8055
     255      43.85074      9.44515         53.29589   0.00300    17   %  3.0044
     270      43.66487      9.63755         53.30243   0.00954    18   %  3.1917
     294      43.47648      9.84231         53.31879   0.02590    19   %  3.4026
     320      43.31844     10.02192         53.34036   0.04747    20   %  3.6016
     347      43.17672     10.18929         53.36601   0.07312    21   %  3.8012
     375      43.05447     10.34199         53.39647   0.10358    22   %  3.9969
     416      42.93866     10.52303         53.46169   0.16880    23   %  4.1958
     451      42.83680     10.68117         53.51798   0.22509    24   %  4.3948
     494      42.74603     10.84357         53.58960   0.29671    25   %  4.5934
     541      42.66856     10.99673         53.66529   0.37240    26   %  4.7818
     599      42.59153     11.16769         53.75922   0.46633    27   %  4.9908
     652      42.53542     11.31681         53.85223   0.55934    28   %  5.1847
     714      42.47110     11.49552         53.96662   0.67373    29   %  5.3757
     791      42.41791     11.66552         54.08344   0.79055    30   %  5.5761
     884      42.36871     11.85101         54.21972   0.92683    31   %  5.7841
     980      42.32648     12.02721         54.35368   1.06079    32   %  5.9833
    1086      42.28874     12.24642         54.53516   1.24227    33   %  6.1826
    1200      42.25518     12.48560         54.74079   1.44790    34   %  6.3800
    1335      42.22445     12.75119         54.97565   1.68275    35   %  6.5797
    1474      42.19167     13.01354         55.20522   1.91233    36   %  6.7756
    1627      42.17371     13.29839         55.47209   2.17920    37   %  6.9534
    1778      42.15281     13.57730         55.73011   2.43722    38   %  7.1171
    1932      42.13204     13.85163         55.98367   2.69078    39   %  7.2695
    2071      42.11528     14.14134         56.25663   2.96374    40   %  7.3959
    2202      42.09805     14.37468         56.47273   3.17984    41   %  7.5061
    2320      42.08083     14.58397         56.66480   3.37191    42   %  7.6013
    2428      42.06305     14.74260         56.80565   3.51276    43   %  7.6855
    2520      42.04572     14.89962         56.94534   3.65245    44   %  7.7567
    2597      42.02874     15.02799         57.05672   3.76383    45   %  7.8175
    2686      42.00812     15.17523         57.18335   3.89046    46   %  7.8818
    2743      41.98821     15.25134         57.23954   3.94665    47   %  7.9351
    2808      41.96729     15.33474         57.30202   4.00913    48   %  7.9875
    2876      41.94537     15.40690         57.35227   4.05938    49   %  8.0391
    2931      41.92338     15.46013         57.38351   4.09062    50   %  8.0886
    2988      41.89896     15.50686         57.40582   4.11293    51   %  8.1430
    3031      41.87496     15.54392         57.41888   4.12599    52   %  8.1972
    3083      41.84891     15.59181         57.44072   4.14783    53   %  8.2614
    3131      41.82258     15.63637         57.45895   4.16606    54   %  8.3323
    3174      41.79603     15.67668         57.47271   4.17982    55   %  8.4105
    3221      41.76763     15.72130         57.48892   4.19603    56   %  8.5021
    3269      41.73921     15.76455         57.50376   4.21087    57   %  8.6007
    3313      41.71020     15.81252         57.52273   4.22983    58   %  8.7071
    3360      41.68155     15.85567         57.53722   4.24433    59   %  8.8172
    3406      41.65219     15.90988         57.56207   4.26918    60   %  8.9351
    3452      41.62307     15.95379         57.57686   4.28397    61   %  9.0549
    3499      41.59619     15.99865         57.59484   4.30195    62   %  9.1753
    3549      41.56810     16.04796         57.61606   4.32317    63   %  9.2974
    3602      41.54162     16.09411         57.63573   4.34284    64   %  9.4227
    3652      41.51787     16.13744         57.65531   4.36242    65   %  9.5458
    3712      41.49580     16.19280         57.68861   4.39572    66   %  9.6720
    3788      41.47545     16.27031         57.74577   4.45288    67   %  9.8062
    3859      41.45942     16.34045         57.79987   4.50698    68   %  9.9386
    3974      41.44667     16.50782         57.95449   4.66160    69   % 10.0786
    4147      41.44029     16.83131         58.27160   4.97871    70   % 10.2202


 IRC CALCULATION COMPLETE 
           INITIAL VELOCITY IN DRC (Angstroms/Femtosecond)
        -0.02847         0.11389        -0.00071
         0.02848         0.11387        -0.00070
         0.00798        -0.12514         0.00185
         0.00001         0.03534        -0.00276
        -0.00800        -0.12516         0.00184
         0.01294        -0.02504        -0.00035
         0.01205        -0.04551        -0.00170
        -0.01208        -0.04552        -0.00171
        -0.01296        -0.02506        -0.00036
         0.00688        -0.08138        -0.00326
         0.00613         0.06010         0.01578
         0.00000        -0.03875        -0.00973
        -0.00610         0.06009         0.01578
        -0.00689        -0.08140        -0.00327

 GEOMETRY PRIORITY, STEP = 0.2000 ANGSTROMS



     POINT   POTENTIAL  +  ENERGY LOST   =   TOTAL      ERROR    REF%   MOVEMENT
       1      53.31231      0.00000         53.31231   0.00000     1   %  0.0000
      29      52.83605      0.44492         53.28098  -0.01907     2   %  0.2000
      70      51.28414      1.98821         53.27235  -0.02769     3   %  0.3999
     112      48.56991      4.69390         53.26382  -0.03623     4   %  0.5997
     151      44.75100      8.50500         53.25600  -0.04405     5   %  0.7994
     184      39.98589     13.26347         53.24936  -0.05068     6   %  0.9986
     210      34.47208     18.77216         53.24424  -0.05580     7   %  1.1970
     227      28.44829     24.79294         53.24123  -0.05882     8   %  1.3927
     239      22.03213     31.21219         53.24432  -0.05572     9   %  1.5872
     269      15.57962     37.67085         53.25047  -0.04958    10   %  1.7744
     310       9.42197     43.83667         53.25864  -0.04140    11   %  1.9522
     359       3.95324     49.31526         53.26850  -0.03155    12   %  2.1186
     416      -0.41837     53.69814         53.27977  -0.02028    13   %  2.2739
     476      -3.31687     56.60862         53.29175  -0.00829    14   %  2.4184
     530      -4.65635     57.95858         53.30223   0.00219    15   %  2.5487
     562      -5.08260     58.39059         53.30799   0.00794    16   %  2.6533
     577      -5.28980     58.60066         53.31086   0.01081    17   %  2.7354
     589      -5.43250     58.74558         53.31308   0.01303    18   %  2.8114
     605      -5.53371     58.85084         53.31713   0.01709    19   %  2.8924
     632      -5.59781     58.93041         53.33260   0.03256    20   %  2.9838
     691      -5.62890     59.03672         53.40783   0.10778    21   %  3.0878


 IRC CALCULATION COMPLETE 

 **********************
 *                    *
 * JOB ENDED NORMALLY *
 *                    *
 **********************



 TOTAL JOB TIME:            13.56 SECONDS

 == MOPAC DONE ==
