 *******************************************************************************
 ** Site#: 37037        For non-commercial use only           Version 21.153W **
 *******************************************************************************
 ** Cite this program as: MOPAC2016, Version: 21.153W, James J. P. Stewart,   **
 ** Stewart Computational Chemistry, web: HTTP://OpenMOPAC.net. Days left: 364**
 *******************************************************************************
 **                                                                           **
 **                                MOPAC2016                                  **
 **                                                                           **
 *******************************************************************************

                              PM7 CALCULATION RESULTS

 *******************************************************************************
 *  CALCULATION DONE:                                Thu Jun  3 09:00:11 2021  *
 *  GEO-OK     - OVERRIDE INTERATOMIC DISTANCE AND OTHER SAFETY CHECKS
 *  GEO_DAT    - DATA SET GEOMETRY IS IN FILE "Locate-ts Formoazomethine Ylide plus ethylene bias=30.0 second.mop"
 *  GEO_REF    - REFERENCE GEOMETRY IS IN FILE "Locate-ts Formoazomethine Ylide plus ethylene bias=30.0 first.mop"
 *               (NO BIAS TOWARDS THE REFERENCE GEOMETRY WILL BE APPLIED)
 *  SADDLE     - TRANSITION STATE TO BE OPTIMIZED
 *  T=         - A TIME OF 172800.0 SECONDS REQUESTED
 *  DUMP=N     - RESTART FILE WRITTEN EVERY 7200.0 SECONDS REQUESTED
 *  HTML       - WRITE HTML SCRIPT TO READ PDB FILE USING JSMOL
 *******************************************************************************
geo-ok geo_ref="Locate-ts Formoazomethine Ylide plus ethylene bias=30.0 first.mop" geo_dat="Locate-ts Formoazomethine Ylide plus ethylene bias=30.0 second.mop" saddle  HTML
 Transition state for the condensation reaction Formoazomethine Ylide plus ethylene

   ATOM                 CHEMICAL                   X               Y               Z
  NUMBER                 SYMBOL               (ANGSTROMS)     (ANGSTROMS)     (ANGSTROMS)
 
     1       C(HETATM    1  C1  HET A   1)    0.01449857  *  -0.01597265  *   0.02281760  *
     2       C(HETATM    2  C2  HET A   1)    1.55685938  *  -0.03383994  *  -0.00813682  *
     3       C(HETATM    3  C1  HET B   2)   -0.38136152  *   1.50014705  *  -0.06629887  *
     4       N(HETATM    4  N   HET B   2)    0.79846486  *   2.18300665  *  -0.50248225  *
     5       C(HETATM    5  C2  HET B   2)    1.98172020  *   1.52069082  *  -0.04433092  *
     6       H(HETATM    6 1H1  HET A   1)   -0.41146557  *  -0.50306429  *   0.93421041  *
     7       H(HETATM    7 2H1  HET A   1)   -0.47513106  *  -0.52589531  *  -0.85351705  *
     8       H(HETATM    8 1H2  HET A   1)    1.95955337  *  -0.59896399  *  -0.90243553  *
     9       H(HETATM    9 2H2  HET A   1)    2.00595379  *  -0.57053515  *   0.86091500  *
    10       H(HETATM   10 1H1  HET B   2)   -1.30287265  *   1.76719069  *  -0.68163452  *
    11       H(HETATM   11 2H1  HET B   2)   -0.71091726  *   1.76039507  *   1.01571712  *
    12       H(HETATM   12  H   HET B   2)    0.80754767  *   2.57830065  *  -1.47485447  *
    13       H(HETATM   13 1H2  HET B   2)    2.29450792  *   1.81695057  *   1.03366490  *
    14       H(HETATM   14 2H2  HET B   2)    2.91131464  *   1.88604927  *  -0.61370309  *
 

                        After docking

                     Atoms that move a lot

                     Atom Label             GEO_REF Coordinates       Movement    Integral

            (HETATM    2  C2  HET A   1)   1.398  -0.603  -0.045        0.59         0.59
            (HETATM    5  C2  HET B   2)   2.026   2.089   0.042        0.58         1.17
            (HETATM    1  C1  HET A   1)   0.070  -0.404   0.040        0.39         1.56
            (HETATM   14 2H2  HET B   2)   2.977   2.228  -0.524        0.37         1.93
            (HETATM    3  C1  HET B   2)  -0.364   1.816  -0.056        0.32         2.25
            (HETATM    8 1H2  HET A   1)   1.913  -0.818  -0.975        0.23         2.48
            (HETATM   11 2H1  HET B   2)  -0.550   1.652   1.030        0.20         2.68
            (HETATM    6 1H1  HET A   1)  -0.435  -0.324   0.996        0.18         2.86
            (HETATM   12  H   HET B   2)   0.843   2.435  -1.608        0.18         3.04
            (HETATM   13 1H2  HET B   2)   2.157   1.845   1.114        0.17         3.20
            (HETATM    7 2H1  HET A   1)  -0.592  -0.523  -0.816        0.12         3.32
            (HETATM    4  N   HET B   2)   0.839   2.122  -0.604        0.11         3.44

     Residues that move a lot and their (Movement in Angstroms, per atom)


   Difference between GEO_DAT and GEO_REF: 3.586 = total,  0.2562 = Average,  0.3046 = RMS, in Angstroms

 General Reference for PM7:
 "Optimization of Parameters for Semiempirical Methods VI: More Modifications to the 
 NDDO Approximations and Re-optimization of Parameters", J. J. P. Stewart, J. Mol. Mod., 1:32, 19 (2013)
 https://link.springer.com/article/10.1007/s00894-012-1667-x

           Empirical Formula: C4 H9 N  =    14 atoms



      MOLECULAR POINT GROUP   :   C1  


      RHF CALCULATION, NO. OF DOUBLY OCCUPIED LEVELS = 15



  CARTESIAN GEOMETRY OF FIRST SYSTEM


   1    C          0.06971      -0.40433       0.04048
   2    C          1.39835      -0.60273      -0.04486
   3    C         -0.36369       1.81609      -0.05594
   4    N          0.83924       2.12233      -0.60443
   5    C          2.02555       2.08876       0.04185
   6    H         -0.43454      -0.32370       0.99622
   7    H         -0.59156      -0.52332      -0.81585
   8    H          1.91341      -0.81807      -0.97506
   9    H          2.06888      -0.59571       0.81275
  10    H         -1.29532       1.81599      -0.67445
  11    H         -0.55034       1.65237       1.02998
  12    H          0.84347       2.43455      -1.60843
  13    H          2.15722       1.84501       1.11397
  14    H          2.97660       2.22808      -0.52369


  CARTESIAN GEOMETRY OF SECOND SYSTEM


   1    C          0.01477      -0.01666       0.03256
   2    C          1.55711      -0.03544       0.00103
   3    C         -0.38052       1.49875      -0.07022
   4    N          0.79938       2.17711      -0.51318
   5    C          1.98258       1.51853      -0.04956
   6    H         -0.41095      -0.49523       0.94857
   7    H         -0.47549      -0.53436      -0.83885
   8    H          1.95914      -0.60887      -0.88826
   9    H          2.00640      -0.56435       0.87474
  10    H         -1.30222       1.76054      -0.68753
  11    H         -0.70945       1.76901       1.00953
  12    H          0.80815       2.56350      -1.48913
  13    H          2.29601       1.82449       1.02553
  14    H          2.91205       1.87829      -0.62269


   "DISTANCE":     1.139752


  REACTION COORDINATE VECTOR


   1    C          0.05493      -0.38767       0.00792
   2    C         -0.15876      -0.56729      -0.04589
   3    C          0.01682       0.31734       0.01428
   4    N          0.03986      -0.05478      -0.09125
   5    C          0.04297       0.57023       0.09141
   6    H         -0.02359       0.17153       0.04766
   7    H         -0.11607       0.01104       0.02300
   8    H         -0.04573      -0.20920      -0.08681
   9    H          0.06247      -0.03136      -0.06199
  10    H          0.00689       0.05545       0.01308
  11    H          0.15911      -0.11663       0.02045
  12    H          0.03532      -0.12896      -0.11930
  13    H         -0.13879       0.02052       0.08844
  14    H          0.06455       0.34979       0.09900
 *+*+*+*+*+*+*+*+*+*+*+*+*+*+*+*+*+*+*+*+*+*+*+*+*+*+*+*+*+*+*+*+*+*+*+*+*+*+*+*+
            BAR SHORTENED BY       0.000 PERCENT
 GRADIENT CRITERION IN FLEPO =     1.000
           THERE HAVE BEEN 3 ATTEMPTS TO REDUCE THE GRADIENT.
           DURING THESE ATTEMPTS THE ENERGY DROPPED BY LESS THAN 0.3 KCAL/MOLE
           FURTHER CALCULATION IS NOT JUSTIFIED AT THIS TIME.
           TO CONTINUE, START AGAIN WITH THE WORD "PRECISE"


          FOR POINT    1 SECOND STRUCTURE
 DISTANCE A - B      1.139752
 HEAT               46.349771
 GRADIENT NORM      13.447586
 DIRECTION COSINE   -0.000000
 geo-ok HTML
 Transition state for the condensation reaction Formoazomethine Ylide plus ethylene

  C(HETATM    1  C1  HET A   1)   0.00000000 +0    0.0000000 +0    0.0000000 +0
  C(HETATM    2  C2  HET A   1)   1.33607069 +1    0.0000000 +0    0.0000000 +0     1     0     0
  C(HETATM    3  C1  HET B   2)   2.57252122 +1  100.8017340 +1    0.0000000 +0     1     2     0
  N(HETATM    4  N   HET B   2)   1.32729692 +1   90.5678237 +1   21.4129941 +1     3     1     2
  C(HETATM    5  C2  HET B   2)   1.32772550 +1  126.0645594 +1  -66.4249362 +1     4     3     1
  H(HETATM    6 1H1  HET A   1)   1.07783484 +1  123.2059405 +1  -93.6602469 +1     1     2     3
  H(HETATM    7 2H1  HET A   1)   1.07758477 +1  123.5121274 +1   88.2697991 +1     1     2     3
  H(HETATM    8 1H2  HET A   1)   1.07796564 +1  123.6915424 +1  -88.6014729 +1     2     1     3
  H(HETATM    9 2H2  HET A   1)   1.07717265 +1  123.4452953 +1   93.6817422 +1     2     1     3
  H(HETATM   10 1H1  HET B   2)   1.07183677 +1  103.1995310 +1  144.2503186 +1     3     1     2
  H(HETATM   11 2H1  HET B   2)   1.07284723 +1   77.8027389 +1 -102.9379113 +1     3     1     2
  H(HETATM   12  H   HET B   2)   1.02032409 +1  116.8485349 +1  108.9562267 +1     4     3     1
  H(HETATM   13 1H2  HET B   2)   1.07299952 +1  123.5809913 +1   -9.8686098 +1     5     4     3
  H(HETATM   14 2H2  HET B   2)   1.07295154 +1  121.7447031 +1  172.2889598 +1     5     4     3
 
 TIME=     0.06
  REACTANTS AND PRODUCTS SWAPPED AROUND
 *+*+*+*+*+*+*+*+*+*+*+*+*+*+*+*+*+*+*+*+*+*+*+*+*+*+*+*+*+*+*+*+*+*+*+*+*+*+*+*+
            BAR SHORTENED BY       1.000 PERCENT
 GRADIENT CRITERION IN FLEPO =    10.000


          FOR POINT    2 FIRST  STRUCTURE
 DISTANCE A - B      1.128355
 HEAT               -3.267911
 GRADIENT NORM      41.250010
 DIRECTION COSINE    0.790882
 geo-ok HTML
 Transition state for the condensation reaction Formoazomethine Ylide plus ethylene

  C(HETATM    1  C1  HET A   1)   0.00000000 +0    0.0000000 +0    0.0000000 +0
  C(HETATM    2  C2  HET A   1)   1.54383252 +1    0.0000000 +0    0.0000000 +0     1     0     0
  C(HETATM    3  C1  HET B   2)   1.59080845 +1  104.4044466 +1    0.0000000 +0     1     2     0
  N(HETATM    4  N   HET B   2)   1.47181122 +1  107.4873891 +1   17.3787735 +1     3     1     2
  C(HETATM    5  C2  HET B   2)   1.47186374 +1  105.5879140 +1  -31.6863546 +1     4     3     1
  H(HETATM    6 1H1  HET A   1)   1.10203867 +1  112.1141118 +1 -119.7403310 +1     1     2     3
  H(HETATM    7 2H1  HET A   1)   1.09990187 +1  113.2627004 +1  119.9134881 +1     1     2     3
  H(HETATM    8 1H2  HET A   1)   1.10160125 +1  112.8220996 +1 -119.4036422 +1     2     1     3
  H(HETATM    9 2H2  HET A   1)   1.11603265 +1  112.4449766 +1  121.3539916 +1     2     1     3
  H(HETATM   10 1H1  HET B   2)   1.10430266 +1  116.3052811 +1  141.2625647 +1     3     1     2
  H(HETATM   11 2H1  HET B   2)   1.10442794 +1  106.8068828 +1  -99.3351811 +1     3     1     2
  H(HETATM   12  H   HET B   2)   1.01941887 +1  112.7985417 +1   90.9145633 +1     4     3     1
  H(HETATM   13 1H2  HET B   2)   1.09989853 +1  108.4619774 +1  -82.2227467 +1     5     4     3
  H(HETATM   14 2H2  HET B   2)   1.10039465 +1  110.5488827 +1  161.1102515 +1     5     4     3
 
 *+*+*+*+*+*+*+*+*+*+*+*+*+*+*+*+*+*+*+*+*+*+*+*+*+*+*+*+*+*+*+*+*+*+*+*+*+*+*+*+
            BAR SHORTENED BY       1.000 PERCENT
 GRADIENT CRITERION IN FLEPO =    10.000


          FOR POINT    3 FIRST  STRUCTURE
 DISTANCE A - B      1.117071
 HEAT               -3.062141
 GRADIENT NORM      42.428927
 DIRECTION COSINE    0.795184
 geo-ok HTML
 Transition state for the condensation reaction Formoazomethine Ylide plus ethylene

  C(HETATM    1  C1  HET A   1)   0.00000000 +0    0.0000000 +0    0.0000000 +0
  C(HETATM    2  C2  HET A   1)   1.54034075 +1    0.0000000 +0    0.0000000 +0     1     0     0
  C(HETATM    3  C1  HET B   2)   1.59455708 +1  104.4863410 +1    0.0000000 +0     1     2     0
  N(HETATM    4  N   HET B   2)   1.47209052 +1  108.0292548 +1   17.9856134 +1     3     1     2
  C(HETATM    5  C2  HET B   2)   1.47753570 +1  104.6771692 +1  -31.9822656 +1     4     3     1
  H(HETATM    6 1H1  HET A   1)   1.10051424 +1  112.4230251 +1 -119.8083234 +1     1     2     3
  H(HETATM    7 2H1  HET A   1)   1.09954511 +1  113.7052223 +1  120.0585220 +1     1     2     3
  H(HETATM    8 1H2  HET A   1)   1.09545591 +1  112.3156409 +1 -117.9875218 +1     2     1     3
  H(HETATM    9 2H2  HET A   1)   1.09874716 +1  112.7226979 +1  120.8377221 +1     2     1     3
  H(HETATM   10 1H1  HET B   2)   1.10521440 +1  116.4663376 +1  141.9605980 +1     3     1     2
  H(HETATM   11 2H1  HET B   2)   1.11661016 +1  107.2993874 +1  -98.7029046 +1     3     1     2
  H(HETATM   12  H   HET B   2)   1.01526296 +1  112.1597741 +1   90.0430796 +1     4     3     1
  H(HETATM   13 1H2  HET B   2)   1.11142229 +1  107.8466661 +1  -82.4883911 +1     5     4     3
  H(HETATM   14 2H2  HET B   2)   1.10474498 +1  109.8946110 +1  161.8249150 +1     5     4     3
 
 *+*+*+*+*+*+*+*+*+*+*+*+*+*+*+*+*+*+*+*+*+*+*+*+*+*+*+*+*+*+*+*+*+*+*+*+*+*+*+*+
            BAR SHORTENED BY       1.000 PERCENT
 GRADIENT CRITERION IN FLEPO =    10.000


          FOR POINT    4 FIRST  STRUCTURE
 DISTANCE A - B      1.105900
 HEAT               -2.689996
 GRADIENT NORM      46.476899
 DIRECTION COSINE    0.956397
 geo-ok HTML
 Transition state for the condensation reaction Formoazomethine Ylide plus ethylene

  C(HETATM    1  C1  HET A   1)   0.00000000 +0    0.0000000 +0    0.0000000 +0
  C(HETATM    2  C2  HET A   1)   1.53916157 +1    0.0000000 +0    0.0000000 +0     1     0     0
  C(HETATM    3  C1  HET B   2)   1.60135442 +1  104.4092699 +1    0.0000000 +0     1     2     0
  N(HETATM    4  N   HET B   2)   1.47191784 +1  107.6992485 +1   18.0818308 +1     3     1     2
  C(HETATM    5  C2  HET B   2)   1.47209706 +1  104.9774738 +1  -32.5673293 +1     4     3     1
  H(HETATM    6 1H1  HET A   1)   1.10426960 +1  112.4169536 +1 -119.5559998 +1     1     2     3
  H(HETATM    7 2H1  HET A   1)   1.09673538 +1  113.6001957 +1  119.9813802 +1     1     2     3
  H(HETATM    8 1H2  HET A   1)   1.09767876 +1  112.5688445 +1 -118.1908028 +1     2     1     3
  H(HETATM    9 2H2  HET A   1)   1.10061413 +1  112.9615722 +1  120.7853533 +1     2     1     3
  H(HETATM   10 1H1  HET B   2)   1.10239274 +1  116.3288248 +1  141.8103564 +1     3     1     2
  H(HETATM   11 2H1  HET B   2)   1.10906489 +1  107.0953251 +1  -98.5723041 +1     3     1     2
  H(HETATM   12  H   HET B   2)   1.01934524 +1  112.3728527 +1   90.2183150 +1     4     3     1
  H(HETATM   13 1H2  HET B   2)   1.10576681 +1  108.1959800 +1  -81.9878098 +1     5     4     3
  H(HETATM   14 2H2  HET B   2)   1.09988212 +1  110.0954156 +1  162.3848840 +1     5     4     3
 
 TIME=     0.06
  REACTANTS AND PRODUCTS SWAPPED AROUND
 *+*+*+*+*+*+*+*+*+*+*+*+*+*+*+*+*+*+*+*+*+*+*+*+*+*+*+*+*+*+*+*+*+*+*+*+*+*+*+*+
            BAR SHORTENED BY       0.000 PERCENT
 GRADIENT CRITERION IN FLEPO =    10.000


          FOR POINT    5 SECOND STRUCTURE
 DISTANCE A - B      1.105900
 HEAT               46.468042
 GRADIENT NORM      13.447549
 DIRECTION COSINE    0.908002
 geo-ok HTML
 Transition state for the condensation reaction Formoazomethine Ylide plus ethylene

  C(HETATM    1  C1  HET A   1)   0.00000000 +0    0.0000000 +0    0.0000000 +0
  C(HETATM    2  C2  HET A   1)   1.33607069 +1    0.0000000 +0    0.0000000 +0     1     0     0
  C(HETATM    3  C1  HET B   2)   2.57252122 +1  100.8017340 +1    0.0000000 +0     1     2     0
  N(HETATM    4  N   HET B   2)   1.32729692 +1   90.5678237 +1   21.4129941 +1     3     1     2
  C(HETATM    5  C2  HET B   2)   1.32772550 +1  126.0645594 +1  -66.4249362 +1     4     3     1
  H(HETATM    6 1H1  HET A   1)   1.07783484 +1  123.2059405 +1  -93.6602469 +1     1     2     3
  H(HETATM    7 2H1  HET A   1)   1.07758477 +1  123.5121274 +1   88.2697991 +1     1     2     3
  H(HETATM    8 1H2  HET A   1)   1.07796564 +1  123.6915424 +1  -88.6014729 +1     2     1     3
  H(HETATM    9 2H2  HET A   1)   1.07717265 +1  123.4452953 +1   93.6817422 +1     2     1     3
  H(HETATM   10 1H1  HET B   2)   1.07183677 +1  103.1995310 +1  144.2503186 +1     3     1     2
  H(HETATM   11 2H1  HET B   2)   1.07284723 +1   77.8027389 +1 -102.9379113 +1     3     1     2
  H(HETATM   12  H   HET B   2)   1.02032409 +1  116.8485349 +1  108.9562267 +1     4     3     1
  H(HETATM   13 1H2  HET B   2)   1.07299952 +1  123.5809913 +1   -9.8686098 +1     5     4     3
  H(HETATM   14 2H2  HET B   2)   1.07295154 +1  121.7447031 +1  172.2889598 +1     5     4     3
 
 TIME=     0.02
  REACTANTS AND PRODUCTS SWAPPED AROUND
 *+*+*+*+*+*+*+*+*+*+*+*+*+*+*+*+*+*+*+*+*+*+*+*+*+*+*+*+*+*+*+*+*+*+*+*+*+*+*+*+
            BAR SHORTENED BY       1.000 PERCENT
 GRADIENT CRITERION IN FLEPO =    10.000


          FOR POINT    6 FIRST  STRUCTURE
 DISTANCE A - B      1.094841
 HEAT               -2.213160
 GRADIENT NORM      53.648376
 DIRECTION COSINE    0.909033
 geo-ok HTML
 Transition state for the condensation reaction Formoazomethine Ylide plus ethylene

  C(HETATM    1  C1  HET A   1)   0.00000000 +0    0.0000000 +0    0.0000000 +0
  C(HETATM    2  C2  HET A   1)   1.53712787 +1    0.0000000 +0    0.0000000 +0     1     0     0
  C(HETATM    3  C1  HET B   2)   1.61101529 +1  104.3518966 +1    0.0000000 +0     1     2     0
  N(HETATM    4  N   HET B   2)   1.46958578 +1  107.5743529 +1   18.1165291 +1     3     1     2
  C(HETATM    5  C2  HET B   2)   1.46962555 +1  105.2414444 +1  -32.7825294 +1     4     3     1
  H(HETATM    6 1H1  HET A   1)   1.10296532 +1  112.5384573 +1 -119.3382548 +1     1     2     3
  H(HETATM    7 2H1  HET A   1)   1.09519568 +1  113.7260129 +1  119.7075890 +1     1     2     3
  H(HETATM    8 1H2  HET A   1)   1.09628898 +1  112.6976348 +1 -117.9335586 +1     2     1     3
  H(HETATM    9 2H2  HET A   1)   1.09922687 +1  113.0868523 +1  120.5597200 +1     2     1     3
  H(HETATM   10 1H1  HET B   2)   1.10189740 +1  116.1877726 +1  141.8507102 +1     3     1     2
  H(HETATM   11 2H1  HET B   2)   1.10743161 +1  106.8181378 +1  -98.6390011 +1     3     1     2
  H(HETATM   12  H   HET B   2)   1.01920504 +1  112.4684596 +1   90.3579550 +1     4     3     1
  H(HETATM   13 1H2  HET B   2)   1.10427466 +1  108.4628694 +1  -81.5343927 +1     5     4     3
  H(HETATM   14 2H2  HET B   2)   1.09942342 +1  110.2552160 +1  162.4210308 +1     5     4     3
 
 *+*+*+*+*+*+*+*+*+*+*+*+*+*+*+*+*+*+*+*+*+*+*+*+*+*+*+*+*+*+*+*+*+*+*+*+*+*+*+*+
            BAR SHORTENED BY       1.000 PERCENT
 GRADIENT CRITERION IN FLEPO =    10.000


          FOR POINT    7 FIRST  STRUCTURE
 DISTANCE A - B      1.083893
 HEAT               -1.687458
 GRADIENT NORM      57.647364
 DIRECTION COSINE    0.986633
 geo-ok HTML
 Transition state for the condensation reaction Formoazomethine Ylide plus ethylene

  C(HETATM    1  C1  HET A   1)   0.00000000 +0    0.0000000 +0    0.0000000 +0
  C(HETATM    2  C2  HET A   1)   1.53536534 +1    0.0000000 +0    0.0000000 +0     1     0     0
  C(HETATM    3  C1  HET B   2)   1.61679143 +1  104.1618964 +1    0.0000000 +0     1     2     0
  N(HETATM    4  N   HET B   2)   1.47031592 +1  107.5868661 +1   18.5836440 +1     3     1     2
  C(HETATM    5  C2  HET B   2)   1.46592479 +1  105.1620779 +1  -33.2920115 +1     4     3     1
  H(HETATM    6 1H1  HET A   1)   1.10581167 +1  112.4544017 +1 -118.8691297 +1     1     2     3
  H(HETATM    7 2H1  HET A   1)   1.09255395 +1  113.9902171 +1  120.0152303 +1     1     2     3
  H(HETATM    8 1H2  HET A   1)   1.09647967 +1  112.9049931 +1 -117.9340049 +1     2     1     3
  H(HETATM    9 2H2  HET A   1)   1.10088728 +1  113.4877959 +1  120.2633363 +1     2     1     3
  H(HETATM   10 1H1  HET B   2)   1.10537360 +1  115.9656679 +1  142.1442321 +1     3     1     2
  H(HETATM   11 2H1  HET B   2)   1.10190126 +1  106.8042999 +1  -98.5526005 +1     3     1     2
  H(HETATM   12  H   HET B   2)   1.01901731 +1  112.7148358 +1   90.1183664 +1     4     3     1
  H(HETATM   13 1H2  HET B   2)   1.10730057 +1  108.5767437 +1  -81.1423504 +1     5     4     3
  H(HETATM   14 2H2  HET B   2)   1.10323253 +1  110.2434498 +1  162.7358967 +1     5     4     3
 
 *+*+*+*+*+*+*+*+*+*+*+*+*+*+*+*+*+*+*+*+*+*+*+*+*+*+*+*+*+*+*+*+*+*+*+*+*+*+*+*+
            BAR SHORTENED BY       1.000 PERCENT
 GRADIENT CRITERION IN FLEPO =    10.000


          FOR POINT    8 FIRST  STRUCTURE
 DISTANCE A - B      1.073054
 HEAT               -1.096812
 GRADIENT NORM      60.351103
 DIRECTION COSINE    0.984074
 geo-ok HTML
 Transition state for the condensation reaction Formoazomethine Ylide plus ethylene

  C(HETATM    1  C1  HET A   1)   0.00000000 +0    0.0000000 +0    0.0000000 +0
  C(HETATM    2  C2  HET A   1)   1.53681534 +1    0.0000000 +0    0.0000000 +0     1     0     0
  C(HETATM    3  C1  HET B   2)   1.62276034 +1  103.9999771 +1    0.0000000 +0     1     2     0
  N(HETATM    4  N   HET B   2)   1.47015178 +1  107.6557690 +1   18.3729287 +1     3     1     2
  C(HETATM    5  C2  HET B   2)   1.46896506 +1  105.2532489 +1  -33.3888962 +1     4     3     1
  H(HETATM    6 1H1  HET A   1)   1.10309153 +1  112.8749023 +1 -119.0758024 +1     1     2     3
  H(HETATM    7 2H1  HET A   1)   1.09553138 +1  113.9775789 +1  119.4840076 +1     1     2     3
  H(HETATM    8 1H2  HET A   1)   1.09736036 +1  112.7384981 +1 -117.7941876 +1     2     1     3
  H(HETATM    9 2H2  HET A   1)   1.09802328 +1  113.2780601 +1  120.8461530 +1     2     1     3
  H(HETATM   10 1H1  HET B   2)   1.10210817 +1  116.4156334 +1  142.0753280 +1     3     1     2
  H(HETATM   11 2H1  HET B   2)   1.10308754 +1  106.2589866 +1  -98.3406198 +1     3     1     2
  H(HETATM   12  H   HET B   2)   1.01902064 +1  113.0070182 +1   90.2447722 +1     4     3     1
  H(HETATM   13 1H2  HET B   2)   1.11567857 +1  108.6504245 +1  -80.2557231 +1     5     4     3
  H(HETATM   14 2H2  HET B   2)   1.10390187 +1  110.2030984 +1  162.9005051 +1     5     4     3
 
 TIME=     0.03
  REACTANTS AND PRODUCTS SWAPPED AROUND
 *+*+*+*+*+*+*+*+*+*+*+*+*+*+*+*+*+*+*+*+*+*+*+*+*+*+*+*+*+*+*+*+*+*+*+*+*+*+*+*+
            BAR SHORTENED BY       0.000 PERCENT
 GRADIENT CRITERION IN FLEPO =    10.000


          FOR POINT    9 SECOND STRUCTURE
 DISTANCE A - B      1.073054
 HEAT               46.468042
 GRADIENT NORM      13.381824
 DIRECTION COSINE    0.896222
 geo-ok HTML
 Transition state for the condensation reaction Formoazomethine Ylide plus ethylene

  C(HETATM    1  C1  HET A   1)   0.00000000 +0    0.0000000 +0    0.0000000 +0
  C(HETATM    2  C2  HET A   1)   1.33607069 +1    0.0000000 +0    0.0000000 +0     1     0     0
  C(HETATM    3  C1  HET B   2)   2.57252122 +1  100.8017340 +1    0.0000000 +0     1     2     0
  N(HETATM    4  N   HET B   2)   1.32729692 +1   90.5678237 +1   21.4129941 +1     3     1     2
  C(HETATM    5  C2  HET B   2)   1.32772550 +1  126.0645594 +1  -66.4249362 +1     4     3     1
  H(HETATM    6 1H1  HET A   1)   1.07783484 +1  123.2059405 +1  -93.6602469 +1     1     2     3
  H(HETATM    7 2H1  HET A   1)   1.07758477 +1  123.5121274 +1   88.2697991 +1     1     2     3
  H(HETATM    8 1H2  HET A   1)   1.07796564 +1  123.6915424 +1  -88.6014729 +1     2     1     3
  H(HETATM    9 2H2  HET A   1)   1.07717265 +1  123.4452953 +1   93.6817422 +1     2     1     3
  H(HETATM   10 1H1  HET B   2)   1.07183677 +1  103.1995310 +1  144.2503186 +1     3     1     2
  H(HETATM   11 2H1  HET B   2)   1.07284723 +1   77.8027389 +1 -102.9379113 +1     3     1     2
  H(HETATM   12  H   HET B   2)   1.02032409 +1  116.8485349 +1  108.9562267 +1     4     3     1
  H(HETATM   13 1H2  HET B   2)   1.07299952 +1  123.5809913 +1   -9.8686098 +1     5     4     3
  H(HETATM   14 2H2  HET B   2)   1.07295154 +1  121.7447031 +1  172.2889598 +1     5     4     3
 
 TIME=     0.00
  REACTANTS AND PRODUCTS SWAPPED AROUND
 *+*+*+*+*+*+*+*+*+*+*+*+*+*+*+*+*+*+*+*+*+*+*+*+*+*+*+*+*+*+*+*+*+*+*+*+*+*+*+*+
            BAR SHORTENED BY       1.000 PERCENT
 GRADIENT CRITERION IN FLEPO =    10.000


          FOR POINT   10 FIRST  STRUCTURE
 DISTANCE A - B      1.062323
 HEAT               -0.552142
 GRADIENT NORM      62.599366
 DIRECTION COSINE    0.902045
 geo-ok HTML
 Transition state for the condensation reaction Formoazomethine Ylide plus ethylene

  C(HETATM    1  C1  HET A   1)   0.00000000 +0    0.0000000 +0    0.0000000 +0
  C(HETATM    2  C2  HET A   1)   1.53502813 +1    0.0000000 +0    0.0000000 +0     1     0     0
  C(HETATM    3  C1  HET B   2)   1.62317244 +1  103.9767986 +1    0.0000000 +0     1     2     0
  N(HETATM    4  N   HET B   2)   1.46969952 +1  107.7715912 +1   18.4244546 +1     3     1     2
  C(HETATM    5  C2  HET B   2)   1.46549736 +1  105.1644159 +1  -33.6896742 +1     4     3     1
  H(HETATM    6 1H1  HET A   1)   1.10510795 +1  112.9210370 +1 -119.2463059 +1     1     2     3
  H(HETATM    7 2H1  HET A   1)   1.09887899 +1  114.2939390 +1  119.4774026 +1     1     2     3
  H(HETATM    8 1H2  HET A   1)   1.09668378 +1  113.0529577 +1 -117.4859663 +1     2     1     3
  H(HETATM    9 2H2  HET A   1)   1.09884505 +1  113.6084348 +1  120.8893510 +1     2     1     3
  H(HETATM   10 1H1  HET B   2)   1.10435131 +1  116.5788236 +1  142.4506687 +1     3     1     2
  H(HETATM   11 2H1  HET B   2)   1.10081626 +1  105.2543379 +1  -98.3496906 +1     3     1     2
  H(HETATM   12  H   HET B   2)   1.01931142 +1  113.1109086 +1   90.1802351 +1     4     3     1
  H(HETATM   13 1H2  HET B   2)   1.10863134 +1  108.9520564 +1  -79.8146370 +1     5     4     3
  H(HETATM   14 2H2  HET B   2)   1.10294572 +1  110.1533864 +1  163.2688972 +1     5     4     3
 
 *+*+*+*+*+*+*+*+*+*+*+*+*+*+*+*+*+*+*+*+*+*+*+*+*+*+*+*+*+*+*+*+*+*+*+*+*+*+*+*+
            BAR SHORTENED BY       1.000 PERCENT
 GRADIENT CRITERION IN FLEPO =    10.000


          FOR POINT   11 FIRST  STRUCTURE
 DISTANCE A - B      1.051700
 HEAT                0.137154
 GRADIENT NORM      68.440458
 DIRECTION COSINE    0.999018
 geo-ok HTML
 Transition state for the condensation reaction Formoazomethine Ylide plus ethylene

  C(HETATM    1  C1  HET A   1)   0.00000000 +0    0.0000000 +0    0.0000000 +0
  C(HETATM    2  C2  HET A   1)   1.53303590 +1    0.0000000 +0    0.0000000 +0     1     0     0
  C(HETATM    3  C1  HET B   2)   1.63262513 +1  103.9267794 +1    0.0000000 +0     1     2     0
  N(HETATM    4  N   HET B   2)   1.46741618 +1  107.6422696 +1   18.4547012 +1     3     1     2
  C(HETATM    5  C2  HET B   2)   1.46314188 +1  105.4243184 +1  -33.8967777 +1     4     3     1
  H(HETATM    6 1H1  HET A   1)   1.10382516 +1  113.0377118 +1 -119.0310791 +1     1     2     3
  H(HETATM    7 2H1  HET A   1)   1.09739073 +1  114.4122576 +1  119.2057317 +1     1     2     3
  H(HETATM    8 1H2  HET A   1)   1.09537961 +1  113.1766003 +1 -117.2326256 +1     2     1     3
  H(HETATM    9 2H2  HET A   1)   1.09749198 +1  113.7286042 +1  120.6620365 +1     2     1     3
  H(HETATM   10 1H1  HET B   2)   1.10381888 +1  116.4378459 +1  142.4832177 +1     3     1     2
  H(HETATM   11 2H1  HET B   2)   1.09942144 +1  104.9910534 +1  -98.4140084 +1     3     1     2
  H(HETATM   12  H   HET B   2)   1.01918323 +1  113.1982414 +1   90.3255158 +1     4     3     1
  H(HETATM   13 1H2  HET B   2)   1.10721621 +1  109.2058993 +1  -79.3709049 +1     5     4     3
  H(HETATM   14 2H2  HET B   2)   1.10244745 +1  110.3130073 +1  163.2992692 +1     5     4     3
 
 *+*+*+*+*+*+*+*+*+*+*+*+*+*+*+*+*+*+*+*+*+*+*+*+*+*+*+*+*+*+*+*+*+*+*+*+*+*+*+*+
            BAR SHORTENED BY       1.000 PERCENT
 GRADIENT CRITERION IN FLEPO =    10.000


          FOR POINT   12 FIRST  STRUCTURE
 DISTANCE A - B      1.041183
 HEAT                0.734924
 GRADIENT NORM      68.776952
 DIRECTION COSINE    0.991447
 geo-ok HTML
 Transition state for the condensation reaction Formoazomethine Ylide plus ethylene

  C(HETATM    1  C1  HET A   1)   0.00000000 +0    0.0000000 +0    0.0000000 +0
  C(HETATM    2  C2  HET A   1)   1.53189801 +1    0.0000000 +0    0.0000000 +0     1     0     0
  C(HETATM    3  C1  HET B   2)   1.63718884 +1  103.7523329 +1    0.0000000 +0     1     2     0
  N(HETATM    4  N   HET B   2)   1.46682993 +1  107.8105821 +1   18.5257595 +1     3     1     2
  C(HETATM    5  C2  HET B   2)   1.46221738 +1  105.1209104 +1  -33.9743728 +1     4     3     1
  H(HETATM    6 1H1  HET A   1)   1.10782309 +1  113.5335772 +1 -118.8975602 +1     1     2     3
  H(HETATM    7 2H1  HET A   1)   1.09666515 +1  114.9162965 +1  118.9523919 +1     1     2     3
  H(HETATM    8 1H2  HET A   1)   1.09684036 +1  113.0446872 +1 -117.1073506 +1     2     1     3
  H(HETATM    9 2H2  HET A   1)   1.09969171 +1  113.7747269 +1  120.7046705 +1     2     1     3
  H(HETATM   10 1H1  HET B   2)   1.10472019 +1  116.9795612 +1  142.7676253 +1     3     1     2
  H(HETATM   11 2H1  HET B   2)   1.10300067 +1  105.0401523 +1  -98.0422226 +1     3     1     2
  H(HETATM   12  H   HET B   2)   1.01899183 +1  113.4007140 +1   90.2746812 +1     4     3     1
  H(HETATM   13 1H2  HET B   2)   1.10416977 +1  108.5667894 +1  -78.8508780 +1     5     4     3
  H(HETATM   14 2H2  HET B   2)   1.10891545 +1  110.0198851 +1  163.9936117 +1     5     4     3
 
 TIME=     0.03
  REACTANTS AND PRODUCTS SWAPPED AROUND
 *+*+*+*+*+*+*+*+*+*+*+*+*+*+*+*+*+*+*+*+*+*+*+*+*+*+*+*+*+*+*+*+*+*+*+*+*+*+*+*+
            BAR SHORTENED BY       0.000 PERCENT
 GRADIENT CRITERION IN FLEPO =    10.000


          FOR POINT   13 SECOND STRUCTURE
 DISTANCE A - B      1.041183
 HEAT               46.468042
 GRADIENT NORM      13.381824
 DIRECTION COSINE    0.907334
 geo-ok HTML
 Transition state for the condensation reaction Formoazomethine Ylide plus ethylene

  C(HETATM    1  C1  HET A   1)   0.00000000 +0    0.0000000 +0    0.0000000 +0
  C(HETATM    2  C2  HET A   1)   1.33607069 +1    0.0000000 +0    0.0000000 +0     1     0     0
  C(HETATM    3  C1  HET B   2)   2.57252122 +1  100.8017340 +1    0.0000000 +0     1     2     0
  N(HETATM    4  N   HET B   2)   1.32729692 +1   90.5678237 +1   21.4129941 +1     3     1     2
  C(HETATM    5  C2  HET B   2)   1.32772550 +1  126.0645594 +1  -66.4249362 +1     4     3     1
  H(HETATM    6 1H1  HET A   1)   1.07783484 +1  123.2059405 +1  -93.6602469 +1     1     2     3
  H(HETATM    7 2H1  HET A   1)   1.07758477 +1  123.5121274 +1   88.2697991 +1     1     2     3
  H(HETATM    8 1H2  HET A   1)   1.07796564 +1  123.6915424 +1  -88.6014729 +1     2     1     3
  H(HETATM    9 2H2  HET A   1)   1.07717265 +1  123.4452953 +1   93.6817422 +1     2     1     3
  H(HETATM   10 1H1  HET B   2)   1.07183677 +1  103.1995310 +1  144.2503186 +1     3     1     2
  H(HETATM   11 2H1  HET B   2)   1.07284723 +1   77.8027389 +1 -102.9379113 +1     3     1     2
  H(HETATM   12  H   HET B   2)   1.02032409 +1  116.8485349 +1  108.9562267 +1     4     3     1
  H(HETATM   13 1H2  HET B   2)   1.07299952 +1  123.5809913 +1   -9.8686098 +1     5     4     3
  H(HETATM   14 2H2  HET B   2)   1.07295154 +1  121.7447031 +1  172.2889598 +1     5     4     3
 
 TIME=     0.02
  REACTANTS AND PRODUCTS SWAPPED AROUND
 *+*+*+*+*+*+*+*+*+*+*+*+*+*+*+*+*+*+*+*+*+*+*+*+*+*+*+*+*+*+*+*+*+*+*+*+*+*+*+*+
            BAR SHORTENED BY       1.000 PERCENT
 GRADIENT CRITERION IN FLEPO =    10.000


          FOR POINT   14 FIRST  STRUCTURE
 DISTANCE A - B      1.030771
 HEAT                1.473301
 GRADIENT NORM      74.021131
 DIRECTION COSINE    0.907162
 geo-ok HTML
 Transition state for the condensation reaction Formoazomethine Ylide plus ethylene

  C(HETATM    1  C1  HET A   1)   0.00000000 +0    0.0000000 +0    0.0000000 +0
  C(HETATM    2  C2  HET A   1)   1.52993700 +1    0.0000000 +0    0.0000000 +0     1     0     0
  C(HETATM    3  C1  HET B   2)   1.64650460 +1  103.7055889 +1    0.0000000 +0     1     2     0
  N(HETATM    4  N   HET B   2)   1.46458406 +1  107.6791799 +1   18.5551294 +1     3     1     2
  C(HETATM    5  C2  HET B   2)   1.45990312 +1  105.3807197 +1  -34.1797978 +1     4     3     1
  H(HETATM    6 1H1  HET A   1)   1.10655472 +1  113.6438026 +1 -118.6842547 +1     1     2     3
  H(HETATM    7 2H1  HET A   1)   1.09525529 +1  115.0282593 +1  118.6831109 +1     1     2     3
  H(HETATM    8 1H2  HET A   1)   1.09556267 +1  113.1681647 +1 -116.8575280 +1     2     1     3
  H(HETATM    9 2H2  HET A   1)   1.09835488 +1  113.8932813 +1  120.4785588 +1     2     1     3
  H(HETATM   10 1H1  HET B   2)   1.10416797 +1  116.8353518 +1  142.7966197 +1     3     1     2
  H(HETATM   11 2H1  HET B   2)   1.10159392 +1  104.7798669 +1  -98.1083356 +1     3     1     2
  H(HETATM   12  H   HET B   2)   1.01887220 +1  113.4847493 +1   90.4207342 +1     4     3     1
  H(HETATM   13 1H2  HET B   2)   1.10282200 +1  108.8219940 +1  -78.4142721 +1     5     4     3
  H(HETATM   14 2H2  HET B   2)   1.10834231 +1  110.1821342 +1  164.0192451 +1     5     4     3
 
 *+*+*+*+*+*+*+*+*+*+*+*+*+*+*+*+*+*+*+*+*+*+*+*+*+*+*+*+*+*+*+*+*+*+*+*+*+*+*+*+
            BAR SHORTENED BY       1.000 PERCENT
 GRADIENT CRITERION IN FLEPO =    10.000


          FOR POINT   15 FIRST  STRUCTURE
 DISTANCE A - B      1.020464
 HEAT                2.255758
 GRADIENT NORM      78.950399
 DIRECTION COSINE    0.999457
 geo-ok HTML
 Transition state for the condensation reaction Formoazomethine Ylide plus ethylene

  C(HETATM    1  C1  HET A   1)   0.00000000 +0    0.0000000 +0    0.0000000 +0
  C(HETATM    2  C2  HET A   1)   1.52799564 +1    0.0000000 +0    0.0000000 +0     1     0     0
  C(HETATM    3  C1  HET B   2)   1.65572837 +1  103.6598421 +1    0.0000000 +0     1     2     0
  N(HETATM    4  N   HET B   2)   1.46237553 +1  107.5479974 +1   18.5842169 +1     3     1     2
  C(HETATM    5  C2  HET B   2)   1.45762893 +1  105.6378556 +1  -34.3849787 +1     4     3     1
  H(HETATM    6 1H1  HET A   1)   1.10531698 +1  113.7528922 +1 -118.4721057 +1     1     2     3
  H(HETATM    7 2H1  HET A   1)   1.09388207 +1  115.1389170 +1  118.4155135 +1     1     2     3
  H(HETATM    8 1H2  HET A   1)   1.09431803 +1  113.2903622 +1 -116.6093604 +1     2     1     3
  H(HETATM    9 2H2  HET A   1)   1.09705201 +1  114.0105272 +1  120.2535657 +1     2     1     3
  H(HETATM   10 1H1  HET B   2)   1.10362555 +1  116.6927930 +1  142.8248920 +1     3     1     2
  H(HETATM   11 2H1  HET B   2)   1.10022158 +1  104.5216661 +1  -98.1732207 +1     3     1     2
  H(HETATM   12  H   HET B   2)   1.01875641 +1  113.5672342 +1   90.5663169 +1     4     3     1
  H(HETATM   13 1H2  HET B   2)   1.10150683 +1  109.0738347 +1  -77.9775704 +1     5     4     3
  H(HETATM   14 2H2  HET B   2)   1.10777897 +1  110.3423438 +1  164.0452472 +1     5     4     3
 
 *+*+*+*+*+*+*+*+*+*+*+*+*+*+*+*+*+*+*+*+*+*+*+*+*+*+*+*+*+*+*+*+*+*+*+*+*+*+*+*+
            BAR SHORTENED BY       1.000 PERCENT
 GRADIENT CRITERION IN FLEPO =    10.000


          FOR POINT   16 FIRST  STRUCTURE
 DISTANCE A - B      1.010259
 HEAT                2.929689
 GRADIENT NORM      77.616523
 DIRECTION COSINE    0.986022
 geo-ok HTML
 Transition state for the condensation reaction Formoazomethine Ylide plus ethylene

  C(HETATM    1  C1  HET A   1)   0.00000000 +0    0.0000000 +0    0.0000000 +0
  C(HETATM    2  C2  HET A   1)   1.53188531 +1    0.0000000 +0    0.0000000 +0     1     0     0
  C(HETATM    3  C1  HET B   2)   1.64936511 +1  103.6183777 +1    0.0000000 +0     1     2     0
  N(HETATM    4  N   HET B   2)   1.46674255 +1  107.9285195 +1   18.4255170 +1     3     1     2
  C(HETATM    5  C2  HET B   2)   1.46103463 +1  105.2878097 +1  -34.6263593 +1     4     3     1
  H(HETATM    6 1H1  HET A   1)   1.10398632 +1  113.7284041 +1 -118.9067958 +1     1     2     3
  H(HETATM    7 2H1  HET A   1)   1.09420816 +1  114.6145105 +1  118.3075149 +1     1     2     3
  H(HETATM    8 1H2  HET A   1)   1.08922365 +1  113.9726691 +1 -116.6586502 +1     2     1     3
  H(HETATM    9 2H2  HET A   1)   1.10120960 +1  113.8595874 +1  120.2475930 +1     2     1     3
  H(HETATM   10 1H1  HET B   2)   1.10669007 +1  117.4671713 +1  142.6098113 +1     3     1     2
  H(HETATM   11 2H1  HET B   2)   1.10122387 +1  104.6592240 +1  -98.0145568 +1     3     1     2
  H(HETATM   12  H   HET B   2)   1.01880896 +1  113.9243790 +1   90.5879257 +1     4     3     1
  H(HETATM   13 1H2  HET B   2)   1.10415425 +1  109.4972272 +1  -77.6781369 +1     5     4     3
  H(HETATM   14 2H2  HET B   2)   1.11236345 +1  109.3714345 +1  165.4026023 +1     5     4     3
 
 TIME=     0.02
  REACTANTS AND PRODUCTS SWAPPED AROUND
 *+*+*+*+*+*+*+*+*+*+*+*+*+*+*+*+*+*+*+*+*+*+*+*+*+*+*+*+*+*+*+*+*+*+*+*+*+*+*+*+
            BAR SHORTENED BY       0.000 PERCENT
 GRADIENT CRITERION IN FLEPO =    10.000


          FOR POINT   17 SECOND STRUCTURE
 DISTANCE A - B      1.010259
 HEAT               46.468042
 GRADIENT NORM      13.381824
 DIRECTION COSINE    0.898169
 geo-ok HTML
 Transition state for the condensation reaction Formoazomethine Ylide plus ethylene

  C(HETATM    1  C1  HET A   1)   0.00000000 +0    0.0000000 +0    0.0000000 +0
  C(HETATM    2  C2  HET A   1)   1.33607069 +1    0.0000000 +0    0.0000000 +0     1     0     0
  C(HETATM    3  C1  HET B   2)   2.57252122 +1  100.8017340 +1    0.0000000 +0     1     2     0
  N(HETATM    4  N   HET B   2)   1.32729692 +1   90.5678237 +1   21.4129941 +1     3     1     2
  C(HETATM    5  C2  HET B   2)   1.32772550 +1  126.0645594 +1  -66.4249362 +1     4     3     1
  H(HETATM    6 1H1  HET A   1)   1.07783484 +1  123.2059405 +1  -93.6602469 +1     1     2     3
  H(HETATM    7 2H1  HET A   1)   1.07758477 +1  123.5121274 +1   88.2697991 +1     1     2     3
  H(HETATM    8 1H2  HET A   1)   1.07796564 +1  123.6915424 +1  -88.6014729 +1     2     1     3
  H(HETATM    9 2H2  HET A   1)   1.07717265 +1  123.4452953 +1   93.6817422 +1     2     1     3
  H(HETATM   10 1H1  HET B   2)   1.07183677 +1  103.1995310 +1  144.2503186 +1     3     1     2
  H(HETATM   11 2H1  HET B   2)   1.07284723 +1   77.8027389 +1 -102.9379113 +1     3     1     2
  H(HETATM   12  H   HET B   2)   1.02032409 +1  116.8485349 +1  108.9562267 +1     4     3     1
  H(HETATM   13 1H2  HET B   2)   1.07299952 +1  123.5809913 +1   -9.8686098 +1     5     4     3
  H(HETATM   14 2H2  HET B   2)   1.07295154 +1  121.7447031 +1  172.2889598 +1     5     4     3
 
 TIME=     0.02
  REACTANTS AND PRODUCTS SWAPPED AROUND
 *+*+*+*+*+*+*+*+*+*+*+*+*+*+*+*+*+*+*+*+*+*+*+*+*+*+*+*+*+*+*+*+*+*+*+*+*+*+*+*+
            BAR SHORTENED BY       1.000 PERCENT
 GRADIENT CRITERION IN FLEPO =    10.000


          FOR POINT   18 FIRST  STRUCTURE
 DISTANCE A - B      1.000156
 HEAT                3.662761
 GRADIENT NORM      80.941557
 DIRECTION COSINE    0.906283
 geo-ok HTML
 Transition state for the condensation reaction Formoazomethine Ylide plus ethylene

  C(HETATM    1  C1  HET A   1)   0.00000000 +0    0.0000000 +0    0.0000000 +0
  C(HETATM    2  C2  HET A   1)   1.52923982 +1    0.0000000 +0    0.0000000 +0     1     0     0
  C(HETATM    3  C1  HET B   2)   1.65976162 +1  103.4585377 +1    0.0000000 +0     1     2     0
  N(HETATM    4  N   HET B   2)   1.46091861 +1  107.7188287 +1   18.8005122 +1     3     1     2
  C(HETATM    5  C2  HET B   2)   1.45897295 +1  105.6844451 +1  -34.9318475 +1     4     3     1
  H(HETATM    6 1H1  HET A   1)   1.10718831 +1  113.6658678 +1 -118.2869571 +1     1     2     3
  H(HETATM    7 2H1  HET A   1)   1.09515087 +1  115.3323249 +1  118.5283021 +1     1     2     3
  H(HETATM    8 1H2  HET A   1)   1.09404183 +1  113.7556226 +1 -116.7193524 +1     2     1     3
  H(HETATM    9 2H2  HET A   1)   1.09770534 +1  114.0389772 +1  120.3323616 +1     2     1     3
  H(HETATM   10 1H1  HET B   2)   1.10566911 +1  117.4411404 +1  142.9808397 +1     3     1     2
  H(HETATM   11 2H1  HET B   2)   1.10088470 +1  104.4012606 +1  -97.6982990 +1     3     1     2
  H(HETATM   12  H   HET B   2)   1.01831380 +1  113.9851600 +1   90.5512262 +1     4     3     1
  H(HETATM   13 1H2  HET B   2)   1.10392248 +1  109.4616382 +1  -76.9594941 +1     5     4     3
  H(HETATM   14 2H2  HET B   2)   1.10549910 +1  109.7394972 +1  165.5902831 +1     5     4     3
 
 *+*+*+*+*+*+*+*+*+*+*+*+*+*+*+*+*+*+*+*+*+*+*+*+*+*+*+*+*+*+*+*+*+*+*+*+*+*+*+*+
            BAR SHORTENED BY       1.000 PERCENT
 GRADIENT CRITERION IN FLEPO =    10.000


          FOR POINT   19 FIRST  STRUCTURE
 DISTANCE A - B      0.990155
 HEAT                4.491577
 GRADIENT NORM      85.156295
 DIRECTION COSINE    0.999558
 geo-ok HTML
 Transition state for the condensation reaction Formoazomethine Ylide plus ethylene

  C(HETATM    1  C1  HET A   1)   0.00000000 +0    0.0000000 +0    0.0000000 +0
  C(HETATM    2  C2  HET A   1)   1.52730598 +1    0.0000000 +0    0.0000000 +0     1     0     0
  C(HETATM    3  C1  HET B   2)   1.66885846 +1  103.4171490 +1    0.0000000 +0     1     2     0
  N(HETATM    4  N   HET B   2)   1.45876595 +1  107.5847179 +1   18.8263287 +1     3     1     2
  C(HETATM    5  C2  HET B   2)   1.45674838 +1  105.9372147 +1  -35.1317959 +1     4     3     1
  H(HETATM    6 1H1  HET A   1)   1.10596444 +1  113.7745563 +1 -118.0787944 +1     1     2     3
  H(HETATM    7 2H1  HET A   1)   1.09380989 +1  115.4397991 +1  118.2606362 +1     1     2     3
  H(HETATM    8 1H2  HET A   1)   1.09284437 +1  113.8725568 +1 -116.4704693 +1     2     1     3
  H(HETATM    9 2H2  HET A   1)   1.09642083 +1  114.1545938 +1  120.1084706 +1     2     1     3
  H(HETATM   10 1H1  HET B   2)   1.10507914 +1  117.2946540 +1  143.0068242 +1     3     1     2
  H(HETATM   11 2H1  HET B   2)   1.09954689 +1  104.1462169 +1  -97.7653309 +1     3     1     2
  H(HETATM   12  H   HET B   2)   1.01821391 +1  114.0614468 +1   90.6993640 +1     4     3     1
  H(HETATM   13 1H2  HET B   2)   1.10266474 +1  109.7028355 +1  -76.5278062 +1     5     4     3
  H(HETATM   14 2H2  HET B   2)   1.10491292 +1  109.9076759 +1  165.6064371 +1     5     4     3
 
 *+*+*+*+*+*+*+*+*+*+*+*+*+*+*+*+*+*+*+*+*+*+*+*+*+*+*+*+*+*+*+*+*+*+*+*+*+*+*+*+
            BAR SHORTENED BY       1.000 PERCENT
 GRADIENT CRITERION IN FLEPO =    10.000


          FOR POINT   20 FIRST  STRUCTURE
 DISTANCE A - B      0.980253
 HEAT                5.351896
 GRADIENT NORM      89.100572
 DIRECTION COSINE    0.999666
 geo-ok HTML
 Transition state for the condensation reaction Formoazomethine Ylide plus ethylene

  C(HETATM    1  C1  HET A   1)   0.00000000 +0    0.0000000 +0    0.0000000 +0
  C(HETATM    2  C2  HET A   1)   1.52539151 +1    0.0000000 +0    0.0000000 +0     1     0     0
  C(HETATM    3  C1  HET B   2)   1.67786526 +1  103.3766240 +1    0.0000000 +0     1     2     0
  N(HETATM    4  N   HET B   2)   1.45664917 +1  107.4509588 +1   18.8519174 +1     3     1     2
  C(HETATM    5  C2  HET B   2)   1.45456206 +1  106.1873508 +1  -35.3315240 +1     4     3     1
  H(HETATM    6 1H1  HET A   1)   1.10477010 +1  113.8821170 +1 -117.8717640 +1     1     2     3
  H(HETATM    7 2H1  HET A   1)   1.09250394 +1  115.5459949 +1  117.9946979 +1     1     2     3
  H(HETATM    8 1H2  HET A   1)   1.09167827 +1  113.9882406 +1 -116.2232856 +1     2     1     3
  H(HETATM    9 2H2  HET A   1)   1.09516922 +1  114.2689207 +1  119.8857058 +1     2     1     3
  H(HETATM   10 1H1  HET B   2)   1.10449988 +1  117.1497662 +1  143.0321485 +1     3     1     2
  H(HETATM   11 2H1  HET B   2)   1.09824200 +1  103.8932466 +1  -97.8312116 +1     3     1     2
  H(HETATM   12  H   HET B   2)   1.01811740 +1  114.1362692 +1   90.8469118 +1     4     3     1
  H(HETATM   13 1H2  HET B   2)   1.10143715 +1  109.9407838 +1  -76.0961675 +1     5     4     3
  H(HETATM   14 2H2  HET B   2)   1.10433758 +1  110.0737097 +1  165.6229648 +1     5     4     3
 
 TIME=     0.02
  REACTANTS AND PRODUCTS SWAPPED AROUND
 *+*+*+*+*+*+*+*+*+*+*+*+*+*+*+*+*+*+*+*+*+*+*+*+*+*+*+*+*+*+*+*+*+*+*+*+*+*+*+*+
            BAR SHORTENED BY       0.000 PERCENT
 GRADIENT CRITERION IN FLEPO =    10.000


          FOR POINT   21 SECOND STRUCTURE
 DISTANCE A - B      0.980253
 HEAT               46.468042
 GRADIENT NORM      13.381824
 DIRECTION COSINE    0.903724
 geo-ok HTML
 Transition state for the condensation reaction Formoazomethine Ylide plus ethylene

  C(HETATM    1  C1  HET A   1)   0.00000000 +0    0.0000000 +0    0.0000000 +0
  C(HETATM    2  C2  HET A   1)   1.33607069 +1    0.0000000 +0    0.0000000 +0     1     0     0
  C(HETATM    3  C1  HET B   2)   2.57252122 +1  100.8017340 +1    0.0000000 +0     1     2     0
  N(HETATM    4  N   HET B   2)   1.32729692 +1   90.5678237 +1   21.4129941 +1     3     1     2
  C(HETATM    5  C2  HET B   2)   1.32772550 +1  126.0645594 +1  -66.4249362 +1     4     3     1
  H(HETATM    6 1H1  HET A   1)   1.07783484 +1  123.2059405 +1  -93.6602469 +1     1     2     3
  H(HETATM    7 2H1  HET A   1)   1.07758477 +1  123.5121274 +1   88.2697991 +1     1     2     3
  H(HETATM    8 1H2  HET A   1)   1.07796564 +1  123.6915424 +1  -88.6014729 +1     2     1     3
  H(HETATM    9 2H2  HET A   1)   1.07717265 +1  123.4452953 +1   93.6817422 +1     2     1     3
  H(HETATM   10 1H1  HET B   2)   1.07183677 +1  103.1995310 +1  144.2503186 +1     3     1     2
  H(HETATM   11 2H1  HET B   2)   1.07284723 +1   77.8027389 +1 -102.9379113 +1     3     1     2
  H(HETATM   12  H   HET B   2)   1.02032409 +1  116.8485349 +1  108.9562267 +1     4     3     1
  H(HETATM   13 1H2  HET B   2)   1.07299952 +1  123.5809913 +1   -9.8686098 +1     5     4     3
  H(HETATM   14 2H2  HET B   2)   1.07295154 +1  121.7447031 +1  172.2889598 +1     5     4     3
 
 TIME=     0.02
  REACTANTS AND PRODUCTS SWAPPED AROUND
 *+*+*+*+*+*+*+*+*+*+*+*+*+*+*+*+*+*+*+*+*+*+*+*+*+*+*+*+*+*+*+*+*+*+*+*+*+*+*+*+
            BAR SHORTENED BY       1.000 PERCENT
 GRADIENT CRITERION IN FLEPO =    10.000


          FOR POINT   22 FIRST  STRUCTURE
 DISTANCE A - B      0.970451
 HEAT                6.239865
 GRADIENT NORM      92.782805
 DIRECTION COSINE    0.901710
 geo-ok HTML
 Transition state for the condensation reaction Formoazomethine Ylide plus ethylene

  C(HETATM    1  C1  HET A   1)   0.00000000 +0    0.0000000 +0    0.0000000 +0
  C(HETATM    2  C2  HET A   1)   1.52349623 +1    0.0000000 +0    0.0000000 +0     1     0     0
  C(HETATM    3  C1  HET B   2)   1.68678290 +1  103.3369381 +1    0.0000000 +0     1     2     0
  N(HETATM    4  N   HET B   2)   1.45456768 +1  107.3175762 +1   18.8772790 +1     3     1     2
  C(HETATM    5  C2  HET B   2)   1.45241334 +1  106.4348640 +1  -35.5310166 +1     4     3     1
  H(HETATM    6 1H1  HET A   1)   1.10360470 +1  113.9885558 +1 -117.6658768 +1     1     2     3
  H(HETATM    7 2H1  HET A   1)   1.09123234 +1  115.6509197 +1  117.7304902 +1     1     2     3
  H(HETATM    8 1H2  HET A   1)   1.09054291 +1  114.1026805 +1 -115.9777999 +1     2     1     3
  H(HETATM    9 2H2  HET A   1)   1.09394986 +1  114.3819648 +1  119.6640824 +1     2     1     3
  H(HETATM   10 1H1  HET B   2)   1.10393113 +1  117.0064555 +1  143.0568335 +1     3     1     2
  H(HETATM   11 2H1  HET B   2)   1.09696938 +1  103.6423437 +1  -97.8959708 +1     3     1     2
  H(HETATM   12  H   HET B   2)   1.01802419 +1  114.2096479 +1   90.9938564 +1     4     3     1
  H(HETATM   13 1H2  HET B   2)   1.10023912 +1  110.1755021 +1  -75.6646276 +1     5     4     3
  H(HETATM   14 2H2  HET B   2)   1.10377288 +1  110.2376167 +1  165.6398640 +1     5     4     3
 
 *+*+*+*+*+*+*+*+*+*+*+*+*+*+*+*+*+*+*+*+*+*+*+*+*+*+*+*+*+*+*+*+*+*+*+*+*+*+*+*+
            BAR SHORTENED BY       1.000 PERCENT
 GRADIENT CRITERION IN FLEPO =    10.000


          FOR POINT   23 FIRST  STRUCTURE
 DISTANCE A - B      0.960746
 HEAT                7.094320
 GRADIENT NORM      93.422876
 DIRECTION COSINE    0.995353
 geo-ok HTML
 Transition state for the condensation reaction Formoazomethine Ylide plus ethylene

  C(HETATM    1  C1  HET A   1)   0.00000000 +0    0.0000000 +0    0.0000000 +0
  C(HETATM    2  C2  HET A   1)   1.52118320 +1    0.0000000 +0    0.0000000 +0     1     0     0
  C(HETATM    3  C1  HET B   2)   1.69405554 +1  103.4204872 +1    0.0000000 +0     1     2     0
  N(HETATM    4  N   HET B   2)   1.45620355 +1  107.2097611 +1   18.6894899 +1     3     1     2
  C(HETATM    5  C2  HET B   2)   1.45230270 +1  106.3812591 +1  -35.4489969 +1     4     3     1
  H(HETATM    6 1H1  HET A   1)   1.10219556 +1  114.1916999 +1 -118.0456085 +1     1     2     3
  H(HETATM    7 2H1  HET A   1)   1.09460778 +1  115.4989353 +1  117.4235528 +1     1     2     3
  H(HETATM    8 1H2  HET A   1)   1.09214742 +1  114.5663751 +1 -115.5790912 +1     2     1     3
  H(HETATM    9 2H2  HET A   1)   1.09786599 +1  114.5776070 +1  119.4904563 +1     2     1     3
  H(HETATM   10 1H1  HET B   2)   1.10455815 +1  117.1634933 +1  142.9705692 +1     3     1     2
  H(HETATM   11 2H1  HET B   2)   1.09810271 +1  103.0336947 +1  -97.9380143 +1     3     1     2
  H(HETATM   12  H   HET B   2)   1.01804300 +1  114.3006286 +1   91.3266278 +1     4     3     1
  H(HETATM   13 1H2  HET B   2)   1.10425786 +1  110.2451102 +1  -75.8028534 +1     5     4     3
  H(HETATM   14 2H2  HET B   2)   1.10923050 +1  109.9009736 +1  166.1328736 +1     5     4     3
 
 *+*+*+*+*+*+*+*+*+*+*+*+*+*+*+*+*+*+*+*+*+*+*+*+*+*+*+*+*+*+*+*+*+*+*+*+*+*+*+*+
            BAR SHORTENED BY       1.000 PERCENT
 GRADIENT CRITERION IN FLEPO =    10.000


          FOR POINT   24 FIRST  STRUCTURE
 DISTANCE A - B      0.951139
 HEAT                8.004148
 GRADIENT NORM      96.585490
 DIRECTION COSINE    0.999750
 geo-ok HTML
 Transition state for the condensation reaction Formoazomethine Ylide plus ethylene

  C(HETATM    1  C1  HET A   1)   0.00000000 +0    0.0000000 +0    0.0000000 +0
  C(HETATM    2  C2  HET A   1)   1.51933057 +1    0.0000000 +0    0.0000000 +0     1     0     0
  C(HETATM    3  C1  HET B   2)   1.70281351 +1  103.3812362 +1    0.0000000 +0     1     2     0
  N(HETATM    4  N   HET B   2)   1.45415509 +1  107.0772724 +1   18.7170369 +1     3     1     2
  C(HETATM    5  C2  HET B   2)   1.45018159 +1  106.6260720 +1  -35.6499013 +1     4     3     1
  H(HETATM    6 1H1  HET A   1)   1.10106954 +1  114.2961577 +1 -117.8362981 +1     1     2     3
  H(HETATM    7 2H1  HET A   1)   1.09334691 +1  115.6035082 +1  117.1659070 +1     1     2     3
  H(HETATM    8 1H2  HET A   1)   1.09104845 +1  114.6748159 +1 -115.3391615 +1     2     1     3
  H(HETATM    9 2H2  HET A   1)   1.09666607 +1  114.6860748 +1  119.2702709 +1     2     1     3
  H(HETATM   10 1H1  HET B   2)   1.10398961 +1  117.0200189 +1  142.9948317 +1     3     1     2
  H(HETATM   11 2H1  HET B   2)   1.09688398 +1  102.7915678 +1  -98.0005318 +1     3     1     2
  H(HETATM   12  H   HET B   2)   1.01795636 +1  114.3707016 +1   91.4696424 +1     4     3     1
  H(HETATM   13 1H2  HET B   2)   1.10303766 +1  110.4771744 +1  -75.3715907 +1     5     4     3
  H(HETATM   14 2H2  HET B   2)   1.10860796 +1  110.0667177 +1  166.1476675 +1     5     4     3
 
 TIME=     0.02
  REACTANTS AND PRODUCTS SWAPPED AROUND
 *+*+*+*+*+*+*+*+*+*+*+*+*+*+*+*+*+*+*+*+*+*+*+*+*+*+*+*+*+*+*+*+*+*+*+*+*+*+*+*+
            BAR SHORTENED BY       0.000 PERCENT
 GRADIENT CRITERION IN FLEPO =    10.000


          FOR POINT   25 SECOND STRUCTURE
 DISTANCE A - B      0.951139
 HEAT               46.468042
 GRADIENT NORM      13.381824
 DIRECTION COSINE    0.901303
 geo-ok HTML
 Transition state for the condensation reaction Formoazomethine Ylide plus ethylene

  C(HETATM    1  C1  HET A   1)   0.00000000 +0    0.0000000 +0    0.0000000 +0
  C(HETATM    2  C2  HET A   1)   1.33607069 +1    0.0000000 +0    0.0000000 +0     1     0     0
  C(HETATM    3  C1  HET B   2)   2.57252122 +1  100.8017340 +1    0.0000000 +0     1     2     0
  N(HETATM    4  N   HET B   2)   1.32729692 +1   90.5678237 +1   21.4129941 +1     3     1     2
  C(HETATM    5  C2  HET B   2)   1.32772550 +1  126.0645594 +1  -66.4249362 +1     4     3     1
  H(HETATM    6 1H1  HET A   1)   1.07783484 +1  123.2059405 +1  -93.6602469 +1     1     2     3
  H(HETATM    7 2H1  HET A   1)   1.07758477 +1  123.5121274 +1   88.2697991 +1     1     2     3
  H(HETATM    8 1H2  HET A   1)   1.07796564 +1  123.6915424 +1  -88.6014729 +1     2     1     3
  H(HETATM    9 2H2  HET A   1)   1.07717265 +1  123.4452953 +1   93.6817422 +1     2     1     3
  H(HETATM   10 1H1  HET B   2)   1.07183677 +1  103.1995310 +1  144.2503186 +1     3     1     2
  H(HETATM   11 2H1  HET B   2)   1.07284723 +1   77.8027389 +1 -102.9379113 +1     3     1     2
  H(HETATM   12  H   HET B   2)   1.02032409 +1  116.8485349 +1  108.9562267 +1     4     3     1
  H(HETATM   13 1H2  HET B   2)   1.07299952 +1  123.5809913 +1   -9.8686098 +1     5     4     3
  H(HETATM   14 2H2  HET B   2)   1.07295154 +1  121.7447031 +1  172.2889598 +1     5     4     3
 
 TIME=     0.02
  REACTANTS AND PRODUCTS SWAPPED AROUND
 *+*+*+*+*+*+*+*+*+*+*+*+*+*+*+*+*+*+*+*+*+*+*+*+*+*+*+*+*+*+*+*+*+*+*+*+*+*+*+*+
            BAR SHORTENED BY       1.000 PERCENT
 GRADIENT CRITERION IN FLEPO =    10.000


          FOR POINT   26 FIRST  STRUCTURE
 DISTANCE A - B      0.941627
 HEAT                8.933422
 GRADIENT NORM      99.531714
 DIRECTION COSINE    0.899742
 geo-ok HTML
 Transition state for the condensation reaction Formoazomethine Ylide plus ethylene

  C(HETATM    1  C1  HET A   1)   0.00000000 +0    0.0000000 +0    0.0000000 +0
  C(HETATM    2  C2  HET A   1)   1.51749649 +1    0.0000000 +0    0.0000000 +0     1     0     0
  C(HETATM    3  C1  HET B   2)   1.71148470 +1  103.3427682 +1    0.0000000 +0     1     2     0
  N(HETATM    4  N   HET B   2)   1.45214054 +1  106.9452232 +1   18.7443151 +1     3     1     2
  C(HETATM    5  C2  HET B   2)   1.44809713 +1  106.8682928 +1  -35.8504962 +1     4     3     1
  H(HETATM    6 1H1  HET A   1)   1.09997127 +1  114.3994941 +1 -117.6282147 +1     1     2     3
  H(HETATM    7 2H1  HET A   1)   1.09211897 +1  115.7068297 +1  116.9099200 +1     1     2     3
  H(HETATM    8 1H2  HET A   1)   1.08997847 +1  114.7820633 +1 -115.1008795 +1     2     1     3
  H(HETATM    9 2H2  HET A   1)   1.09549668 +1  114.7933199 +1  119.0513024 +1     2     1     3
  H(HETATM   10 1H1  HET B   2)   1.10343136 +1  116.8781020 +1  143.0185110 +1     3     1     2
  H(HETATM   11 2H1  HET B   2)   1.09569542 +1  102.5514217 +1  -98.0620237 +1     3     1     2
  H(HETATM   12  H   HET B   2)   1.01787275 +1  114.4394033 +1   91.6120644 +1     4     3     1
  H(HETATM   13 1H2  HET B   2)   1.10184650 +1  110.7060409 +1  -74.9404956 +1     5     4     3
  H(HETATM   14 2H2  HET B   2)   1.10799658 +1  110.2303398 +1  166.1628123 +1     5     4     3
 
 *+*+*+*+*+*+*+*+*+*+*+*+*+*+*+*+*+*+*+*+*+*+*+*+*+*+*+*+*+*+*+*+*+*+*+*+*+*+*+*+
            BAR SHORTENED BY       1.000 PERCENT
 GRADIENT CRITERION IN FLEPO =    10.000


          FOR POINT   27 FIRST  STRUCTURE
 DISTANCE A - B      0.932211
 HEAT                9.879326
 GRADIENT NORM     102.270802
 DIRECTION COSINE    0.999831
 geo-ok HTML
 Transition state for the condensation reaction Formoazomethine Ylide plus ethylene

  C(HETATM    1  C1  HET A   1)   0.00000000 +0    0.0000000 +0    0.0000000 +0
  C(HETATM    2  C2  HET A   1)   1.51568078 +1    0.0000000 +0    0.0000000 +0     1     0     0
  C(HETATM    3  C1  HET B   2)   1.72006995 +1  103.3050619 +1    0.0000000 +0     1     2     0
  N(HETATM    4  N   HET B   2)   1.45015933 +1  106.8136339 +1   18.7713263 +1     3     1     2
  C(HETATM    5  C2  HET B   2)   1.44604872 +1  107.1079330 +1  -36.0507681 +1     4     3     1
  H(HETATM    6 1H1  HET A   1)   1.09890021 +1  114.5017158 +1 -117.4213664 +1     1     2     3
  H(HETATM    7 2H1  HET A   1)   1.09092331 +1  115.8089078 +1  116.6555956 +1     1     2     3
  H(HETATM    8 1H2  HET A   1)   1.08893689 +1  114.8881245 +1 -114.8642445 +1     2     1     3
  H(HETATM    9 2H2  HET A   1)   1.09435721 +1  114.8993497 +1  118.8335617 +1     2     1     3
  H(HETATM   10 1H1  HET B   2)   1.10288322 +1  116.7377220 +1  143.0416250 +1     3     1     2
  H(HETATM   11 2H1  HET B   2)   1.09453643 +1  102.3132505 +1  -98.1225149 +1     3     1     2
  H(HETATM   12  H   HET B   2)   1.01779210 +1  114.5067535 +1   91.7538813 +1     4     3     1
  H(HETATM   13 1H2  HET B   2)   1.10068382 +1  110.9317300 +1  -74.5096169 +1     5     4     3
  H(HETATM   14 2H2  HET B   2)   1.10739618 +1  110.3918579 +1  166.1783055 +1     5     4     3
 
 *+*+*+*+*+*+*+*+*+*+*+*+*+*+*+*+*+*+*+*+*+*+*+*+*+*+*+*+*+*+*+*+*+*+*+*+*+*+*+*+
            BAR SHORTENED BY       1.000 PERCENT
 GRADIENT CRITERION IN FLEPO =    10.000


          FOR POINT   28 FIRST  STRUCTURE
 DISTANCE A - B      0.922889
 HEAT               10.784996
 GRADIENT NORM      99.910478
 DIRECTION COSINE    0.980847
 geo-ok HTML
 Transition state for the condensation reaction Formoazomethine Ylide plus ethylene

  C(HETATM    1  C1  HET A   1)   0.00000000 +0    0.0000000 +0    0.0000000 +0
  C(HETATM    2  C2  HET A   1)   1.51533359 +1    0.0000000 +0    0.0000000 +0     1     0     0
  C(HETATM    3  C1  HET B   2)   1.71396047 +1  103.3353252 +1    0.0000000 +0     1     2     0
  N(HETATM    4  N   HET B   2)   1.46016975 +1  107.4430628 +1   19.1530605 +1     3     1     2
  C(HETATM    5  C2  HET B   2)   1.45393451 +1  106.1179645 +1  -36.2423918 +1     4     3     1
  H(HETATM    6 1H1  HET A   1)   1.10230935 +1  114.5040362 +1 -117.2914159 +1     1     2     3
  H(HETATM    7 2H1  HET A   1)   1.09483438 +1  116.4986755 +1  116.7405458 +1     1     2     3
  H(HETATM    8 1H2  HET A   1)   1.09159342 +1  114.7743734 +1 -114.8262715 +1     2     1     3
  H(HETATM    9 2H2  HET A   1)   1.09643608 +1  115.0811263 +1  118.9086348 +1     2     1     3
  H(HETATM   10 1H1  HET B   2)   1.10784794 +1  117.8602816 +1  143.1974450 +1     3     1     2
  H(HETATM   11 2H1  HET B   2)   1.09705906 +1  102.6572715 +1  -97.7667979 +1     3     1     2
  H(HETATM   12  H   HET B   2)   1.01326732 +1  114.7279514 +1   90.9945685 +1     4     3     1
  H(HETATM   13 1H2  HET B   2)   1.09825272 +1  111.0493816 +1  -74.2814837 +1     5     4     3
  H(HETATM   14 2H2  HET B   2)   1.10918070 +1  109.4759783 +1  167.3107333 +1     5     4     3
 
 TIME=     0.01
  REACTANTS AND PRODUCTS SWAPPED AROUND
 *+*+*+*+*+*+*+*+*+*+*+*+*+*+*+*+*+*+*+*+*+*+*+*+*+*+*+*+*+*+*+*+*+*+*+*+*+*+*+*+
            BAR SHORTENED BY       0.000 PERCENT
 GRADIENT CRITERION IN FLEPO =    10.000


          FOR POINT   29 SECOND STRUCTURE
 DISTANCE A - B      0.922889
 HEAT               46.349771
 GRADIENT NORM      13.447548
 DIRECTION COSINE    0.910940
 geo-ok HTML
 Transition state for the condensation reaction Formoazomethine Ylide plus ethylene

  C(HETATM    1  C1  HET A   1)   0.00000000 +0    0.0000000 +0    0.0000000 +0
  C(HETATM    2  C2  HET A   1)   1.33607069 +1    0.0000000 +0    0.0000000 +0     1     0     0
  C(HETATM    3  C1  HET B   2)   2.57252122 +1  100.8017340 +1    0.0000000 +0     1     2     0
  N(HETATM    4  N   HET B   2)   1.32729692 +1   90.5678237 +1   21.4129941 +1     3     1     2
  C(HETATM    5  C2  HET B   2)   1.32772550 +1  126.0645594 +1  -66.4249362 +1     4     3     1
  H(HETATM    6 1H1  HET A   1)   1.07783484 +1  123.2059405 +1  -93.6602469 +1     1     2     3
  H(HETATM    7 2H1  HET A   1)   1.07758477 +1  123.5121274 +1   88.2697991 +1     1     2     3
  H(HETATM    8 1H2  HET A   1)   1.07796564 +1  123.6915424 +1  -88.6014729 +1     2     1     3
  H(HETATM    9 2H2  HET A   1)   1.07717265 +1  123.4452953 +1   93.6817422 +1     2     1     3
  H(HETATM   10 1H1  HET B   2)   1.07183677 +1  103.1995310 +1  144.2503186 +1     3     1     2
  H(HETATM   11 2H1  HET B   2)   1.07284723 +1   77.8027389 +1 -102.9379113 +1     3     1     2
  H(HETATM   12  H   HET B   2)   1.02032409 +1  116.8485349 +1  108.9562267 +1     4     3     1
  H(HETATM   13 1H2  HET B   2)   1.07299952 +1  123.5809913 +1   -9.8686098 +1     5     4     3
  H(HETATM   14 2H2  HET B   2)   1.07295154 +1  121.7447031 +1  172.2889598 +1     5     4     3
 
 TIME=     0.02
  REACTANTS AND PRODUCTS SWAPPED AROUND
 *+*+*+*+*+*+*+*+*+*+*+*+*+*+*+*+*+*+*+*+*+*+*+*+*+*+*+*+*+*+*+*+*+*+*+*+*+*+*+*+
            BAR SHORTENED BY       1.000 PERCENT
 GRADIENT CRITERION IN FLEPO =    10.000


          FOR POINT   30 FIRST  STRUCTURE
 DISTANCE A - B      0.913660
 HEAT               11.538576
 GRADIENT NORM     102.241317
 DIRECTION COSINE    0.901785
 geo-ok HTML
 Transition state for the condensation reaction Formoazomethine Ylide plus ethylene

  C(HETATM    1  C1  HET A   1)   0.00000000 +0    0.0000000 +0    0.0000000 +0
  C(HETATM    2  C2  HET A   1)   1.51590439 +1    0.0000000 +0    0.0000000 +0     1     0     0
  C(HETATM    3  C1  HET B   2)   1.72261481 +1  103.1745992 +1    0.0000000 +0     1     2     0
  N(HETATM    4  N   HET B   2)   1.45019709 +1  107.2516415 +1   18.9688240 +1     3     1     2
  C(HETATM    5  C2  HET B   2)   1.44539906 +1  106.7594812 +1  -36.4648362 +1     4     3     1
  H(HETATM    6 1H1  HET A   1)   1.10174416 +1  114.5872492 +1 -117.3553172 +1     1     2     3
  H(HETATM    7 2H1  HET A   1)   1.09041413 +1  116.3647115 +1  116.6395707 +1     1     2     3
  H(HETATM    8 1H2  HET A   1)   1.08952215 +1  114.8545816 +1 -114.8716949 +1     2     1     3
  H(HETATM    9 2H2  HET A   1)   1.09622376 +1  115.0397959 +1  118.9334534 +1     2     1     3
  H(HETATM   10 1H1  HET B   2)   1.10529813 +1  117.7228792 +1  143.3849784 +1     3     1     2
  H(HETATM   11 2H1  HET B   2)   1.09668025 +1  102.0420386 +1  -97.9991226 +1     3     1     2
  H(HETATM   12  H   HET B   2)   1.01800111 +1  114.7166888 +1   91.3712532 +1     4     3     1
  H(HETATM   13 1H2  HET B   2)   1.09870927 +1  111.1799956 +1  -73.4535372 +1     5     4     3
  H(HETATM   14 2H2  HET B   2)   1.10873158 +1  110.1694190 +1  167.2002214 +1     5     4     3
 
 *+*+*+*+*+*+*+*+*+*+*+*+*+*+*+*+*+*+*+*+*+*+*+*+*+*+*+*+*+*+*+*+*+*+*+*+*+*+*+*+
            BAR SHORTENED BY       1.000 PERCENT
 GRADIENT CRITERION IN FLEPO =    10.000


          FOR POINT   31 FIRST  STRUCTURE
 DISTANCE A - B      0.904524
 HEAT               12.482574
 GRADIENT NORM     104.570168
 DIRECTION COSINE    0.999834
 geo-ok HTML
 Transition state for the condensation reaction Formoazomethine Ylide plus ethylene

  C(HETATM    1  C1  HET A   1)   0.00000000 +0    0.0000000 +0    0.0000000 +0
  C(HETATM    2  C2  HET A   1)   1.51410468 +1    0.0000000 +0    0.0000000 +0     1     0     0
  C(HETATM    3  C1  HET B   2)   1.73109200 +1  103.1396253 +1    0.0000000 +0     1     2     0
  N(HETATM    4  N   HET B   2)   1.44822832 +1  107.1158124 +1   18.9937628 +1     3     1     2
  C(HETATM    5  C2  HET B   2)   1.44341266 +1  106.9987274 +1  -36.6607007 +1     4     3     1
  H(HETATM    6 1H1  HET A   1)   1.10067904 +1  114.6872521 +1 -117.1505071 +1     1     2     3
  H(HETATM    7 2H1  HET A   1)   1.08927422 +1  116.4606174 +1  116.3859127 +1     1     2     3
  H(HETATM    8 1H2  HET A   1)   1.08849928 +1  114.9597785 +1 -114.6370090 +1     2     1     3
  H(HETATM    9 2H2  HET A   1)   1.09509560 +1  115.1432628 +1  118.7160602 +1     2     1     3
  H(HETATM   10 1H1  HET B   2)   1.10469447 +1  117.5752339 +1  143.4040800 +1     3     1     2
  H(HETATM   11 2H1  HET B   2)   1.09554368 +1  101.8089572 +1  -98.0588614 +1     3     1     2
  H(HETATM   12  H   HET B   2)   1.01791809 +1  114.7822508 +1   91.5163034 +1     4     3     1
  H(HETATM   13 1H2  HET B   2)   1.09764447 +1  111.3966297 +1  -73.0296800 +1     5     4     3
  H(HETATM   14 2H2  HET B   2)   1.10809233 +1  110.3335603 +1  167.2074889 +1     5     4     3
 
 *+*+*+*+*+*+*+*+*+*+*+*+*+*+*+*+*+*+*+*+*+*+*+*+*+*+*+*+*+*+*+*+*+*+*+*+*+*+*+*+
            BAR SHORTENED BY       1.000 PERCENT
 GRADIENT CRITERION IN FLEPO =    10.000


          FOR POINT   32 FIRST  STRUCTURE
 DISTANCE A - B      0.895478
 HEAT               13.510317
 GRADIENT NORM     106.701594
 DIRECTION COSINE    0.999857
 geo-ok HTML
 Transition state for the condensation reaction Formoazomethine Ylide plus ethylene

  C(HETATM    1  C1  HET A   1)   0.00000000 +0    0.0000000 +0    0.0000000 +0
  C(HETATM    2  C2  HET A   1)   1.51232298 +1    0.0000000 +0    0.0000000 +0     1     0     0
  C(HETATM    3  C1  HET B   2)   1.73948507 +1  103.1053320 +1    0.0000000 +0     1     2     0
  N(HETATM    4  N   HET B   2)   1.44629237 +1  106.9805381 +1   19.0184519 +1     3     1     2
  C(HETATM    5  C2  HET B   2)   1.44146052 +1  107.2354156 +1  -36.8562382 +1     4     3     1
  H(HETATM    6 1H1  HET A   1)   1.09964007 +1  114.7861682 +1 -116.9469420 +1     1     2     3
  H(HETATM    7 2H1  HET A   1)   1.08816472 +1  116.5553212 +1  116.1339464 +1     1     2     3
  H(HETATM    8 1H2  HET A   1)   1.08750379 +1  115.0638029 +1 -114.4039572 +1     2     1     3
  H(HETATM    9 2H2  HET A   1)   1.09399629 +1  115.2455415 +1  118.4999228 +1     2     1     3
  H(HETATM   10 1H1  HET B   2)   1.10410198 +1  117.4291419 +1  143.4226845 +1     3     1     2
  H(HETATM   11 2H1  HET B   2)   1.09443527 +1  101.5778054 +1  -98.1176749 +1     3     1     2
  H(HETATM   12  H   HET B   2)   1.01783802 +1  114.8464786 +1   91.6607015 +1     4     3     1
  H(HETATM   13 1H2  HET B   2)   1.09660546 +1  111.6101949 +1  -72.6061582 +1     5     4     3
  H(HETATM   14 2H2  HET B   2)   1.10746483 +1  110.4955609 +1  167.2151385 +1     5     4     3
 
 TIME=     0.02
  REACTANTS AND PRODUCTS SWAPPED AROUND
 *+*+*+*+*+*+*+*+*+*+*+*+*+*+*+*+*+*+*+*+*+*+*+*+*+*+*+*+*+*+*+*+*+*+*+*+*+*+*+*+
            BAR SHORTENED BY       0.000 PERCENT
 GRADIENT CRITERION IN FLEPO =    10.000


          FOR POINT   33 SECOND STRUCTURE
 DISTANCE A - B      0.895478
 HEAT               46.468042
 GRADIENT NORM      13.381824
 DIRECTION COSINE    0.897703
 geo-ok HTML
 Transition state for the condensation reaction Formoazomethine Ylide plus ethylene

  C(HETATM    1  C1  HET A   1)   0.00000000 +0    0.0000000 +0    0.0000000 +0
  C(HETATM    2  C2  HET A   1)   1.33607069 +1    0.0000000 +0    0.0000000 +0     1     0     0
  C(HETATM    3  C1  HET B   2)   2.57252122 +1  100.8017340 +1    0.0000000 +0     1     2     0
  N(HETATM    4  N   HET B   2)   1.32729692 +1   90.5678237 +1   21.4129941 +1     3     1     2
  C(HETATM    5  C2  HET B   2)   1.32772550 +1  126.0645594 +1  -66.4249362 +1     4     3     1
  H(HETATM    6 1H1  HET A   1)   1.07783484 +1  123.2059405 +1  -93.6602469 +1     1     2     3
  H(HETATM    7 2H1  HET A   1)   1.07758477 +1  123.5121274 +1   88.2697991 +1     1     2     3
  H(HETATM    8 1H2  HET A   1)   1.07796564 +1  123.6915424 +1  -88.6014729 +1     2     1     3
  H(HETATM    9 2H2  HET A   1)   1.07717265 +1  123.4452953 +1   93.6817422 +1     2     1     3
  H(HETATM   10 1H1  HET B   2)   1.07183677 +1  103.1995310 +1  144.2503186 +1     3     1     2
  H(HETATM   11 2H1  HET B   2)   1.07284723 +1   77.8027389 +1 -102.9379113 +1     3     1     2
  H(HETATM   12  H   HET B   2)   1.02032409 +1  116.8485349 +1  108.9562267 +1     4     3     1
  H(HETATM   13 1H2  HET B   2)   1.07299952 +1  123.5809913 +1   -9.8686098 +1     5     4     3
  H(HETATM   14 2H2  HET B   2)   1.07295154 +1  121.7447031 +1  172.2889598 +1     5     4     3
 
 TIME=     0.02
  REACTANTS AND PRODUCTS SWAPPED AROUND
 *+*+*+*+*+*+*+*+*+*+*+*+*+*+*+*+*+*+*+*+*+*+*+*+*+*+*+*+*+*+*+*+*+*+*+*+*+*+*+*+
            BAR SHORTENED BY       1.000 PERCENT
 GRADIENT CRITERION IN FLEPO =    10.000


          FOR POINT   34 FIRST  STRUCTURE
 DISTANCE A - B      0.886524
 HEAT               14.473293
 GRADIENT NORM     108.672743
 DIRECTION COSINE    0.895924
 geo-ok HTML
 Transition state for the condensation reaction Formoazomethine Ylide plus ethylene

  C(HETATM    1  C1  HET A   1)   0.00000000 +0    0.0000000 +0    0.0000000 +0
  C(HETATM    2  C2  HET A   1)   1.51055913 +1    0.0000000 +0    0.0000000 +0     1     0     0
  C(HETATM    3  C1  HET B   2)   1.74779483 +1  103.0717013 +1    0.0000000 +0     1     2     0
  N(HETATM    4  N   HET B   2)   1.44438871 +1  106.8458351 +1   19.0428934 +1     3     1     2
  C(HETATM    5  C2  HET B   2)   1.43954205 +1  107.4695584 +1  -37.0514354 +1     4     3     1
  H(HETATM    6 1H1  HET A   1)   1.09862672 +1  114.8840047 +1 -116.7446282 +1     1     2     3
  H(HETATM    7 2H1  HET A   1)   1.08708499 +1  116.6488318 +1  115.8836746 +1     1     2     3
  H(HETATM    8 1H2  HET A   1)   1.08653510 +1  115.1666627 +1 -114.1725386 +1     2     1     3
  H(HETATM    9 2H2  HET A   1)   1.09292525 +1  115.3466399 +1  118.2850503 +1     2     1     3
  H(HETATM   10 1H1  HET B   2)   1.10352045 +1  117.2845844 +1  143.4408073 +1     3     1     2
  H(HETATM   11 2H1  HET B   2)   1.09335444 +1  101.3485770 +1  -98.1755841 +1     3     1     2
  H(HETATM   12  H   HET B   2)   1.01776081 +1  114.9093922 +1   91.8044359 +1     4     3     1
  H(HETATM   13 1H2  HET B   2)   1.09559171 +1  111.8207142 +1  -72.1830187 +1     5     4     3
  H(HETATM   14 2H2  HET B   2)   1.10684886 +1  110.6554398 +1  167.2231676 +1     5     4     3
 
 *+*+*+*+*+*+*+*+*+*+*+*+*+*+*+*+*+*+*+*+*+*+*+*+*+*+*+*+*+*+*+*+*+*+*+*+*+*+*+*+
            BAR SHORTENED BY       1.000 PERCENT
 GRADIENT CRITERION IN FLEPO =    10.000


          FOR POINT   35 FIRST  STRUCTURE
 DISTANCE A - B      0.877658
 HEAT               15.442729
 GRADIENT NORM     110.490226
 DIRECTION COSINE    0.999893
 geo-ok HTML
 Transition state for the condensation reaction Formoazomethine Ylide plus ethylene

  C(HETATM    1  C1  HET A   1)   0.00000000 +0    0.0000000 +0    0.0000000 +0
  C(HETATM    2  C2  HET A   1)   1.50881293 +1    0.0000000 +0    0.0000000 +0     1     0     0
  C(HETATM    3  C1  HET B   2)   1.75602209 +1  103.0387158 +1    0.0000000 +0     1     2     0
  N(HETATM    4  N   HET B   2)   1.44251680 +1  106.7117190 +1   19.0670894 +1     3     1     2
  C(HETATM    5  C2  HET B   2)   1.43765670 +1  107.7011687 +1  -37.2462792 +1     4     3     1
  H(HETATM    6 1H1  HET A   1)   1.09763847 +1  114.9807688 +1 -116.5435717 +1     1     2     3
  H(HETATM    7 2H1  HET A   1)   1.08603442 +1  116.7411585 +1  115.6350998 +1     1     2     3
  H(HETATM    8 1H2  HET A   1)   1.08559266 +1  115.2683655 +1 -113.9427524 +1     2     1     3
  H(HETATM    9 2H2  HET A   1)   1.09188190 +1  115.4465661 +1  118.0714517 +1     2     1     3
  H(HETATM   10 1H1  HET B   2)   1.10294969 +1  117.1415429 +1  143.4584634 +1     3     1     2
  H(HETATM   11 2H1  HET B   2)   1.09230065 +1  101.1212651 +1  -98.2326095 +1     3     1     2
  H(HETATM   12  H   HET B   2)   1.01768640 +1  114.9710116 +1   91.9474953 +1     4     3     1
  H(HETATM   13 1H2  HET B   2)   1.09460271 +1  112.0282108 +1  -71.7603079 +1     5     4     3
  H(HETATM   14 2H2  HET B   2)   1.10624422 +1  110.8132163 +1  167.2315736 +1     5     4     3
 
 *+*+*+*+*+*+*+*+*+*+*+*+*+*+*+*+*+*+*+*+*+*+*+*+*+*+*+*+*+*+*+*+*+*+*+*+*+*+*+*+
            BAR SHORTENED BY       1.000 PERCENT
 GRADIENT CRITERION IN FLEPO =    10.000


          FOR POINT   36 FIRST  STRUCTURE
 DISTANCE A - B      0.868882
 HEAT               16.416896
 GRADIENT NORM     112.160324
 DIRECTION COSINE    0.999906
 geo-ok HTML
 Transition state for the condensation reaction Formoazomethine Ylide plus ethylene

  C(HETATM    1  C1  HET A   1)   0.00000000 +0    0.0000000 +0    0.0000000 +0
  C(HETATM    2  C2  HET A   1)   1.50708423 +1    0.0000000 +0    0.0000000 +0     1     0     0
  C(HETATM    3  C1  HET B   2)   1.76416766 +1  103.0063587 +1    0.0000000 +0     1     2     0
  N(HETATM    4  N   HET B   2)   1.44067612 +1  106.5782046 +1   19.0910421 +1     3     1     2
  C(HETATM    5  C2  HET B   2)   1.43580392 +1  107.9302601 +1  -37.4407564 +1     4     3     1
  H(HETATM    6 1H1  HET A   1)   1.09667481 +1  115.0764679 +1 -116.3437779 +1     1     2     3
  H(HETATM    7 2H1  HET A   1)   1.08501240 +1  116.8323108 +1  115.3882241 +1     1     2     3
  H(HETATM    8 1H2  HET A   1)   1.08467591 +1  115.3689194 +1 -113.7145974 +1     2     1     3
  H(HETATM    9 2H2  HET A   1)   1.09086568 +1  115.5453285 +1  117.8591350 +1     2     1     3
  H(HETATM   10 1H1  HET B   2)   1.10238948 +1  116.9999992 +1  143.4756672 +1     3     1     2
  H(HETATM   11 2H1  HET B   2)   1.09127334 +1  100.8958629 +1  -98.2887708 +1     3     1     2
  H(HETATM   12  H   HET B   2)   1.01761471 +1  115.0313565 +1   92.0898688 +1     4     3     1
  H(HETATM   13 1H2  HET B   2)   1.09363798 +1  112.2327084 +1  -71.3380718 +1     5     4     3
  H(HETATM   14 2H2  HET B   2)   1.10565069 +1  110.9689099 +1  167.2403539 +1     5     4     3
 
 TIME=     0.02
  REACTANTS AND PRODUCTS SWAPPED AROUND
 *+*+*+*+*+*+*+*+*+*+*+*+*+*+*+*+*+*+*+*+*+*+*+*+*+*+*+*+*+*+*+*+*+*+*+*+*+*+*+*+
            BAR SHORTENED BY       0.000 PERCENT
 GRADIENT CRITERION IN FLEPO =    10.000


          FOR POINT   37 SECOND STRUCTURE
 DISTANCE A - B      0.868882
 HEAT               46.468042
 GRADIENT NORM      13.381824
 DIRECTION COSINE    0.892025
 geo-ok HTML
 Transition state for the condensation reaction Formoazomethine Ylide plus ethylene

  C(HETATM    1  C1  HET A   1)   0.00000000 +0    0.0000000 +0    0.0000000 +0
  C(HETATM    2  C2  HET A   1)   1.33607069 +1    0.0000000 +0    0.0000000 +0     1     0     0
  C(HETATM    3  C1  HET B   2)   2.57252122 +1  100.8017340 +1    0.0000000 +0     1     2     0
  N(HETATM    4  N   HET B   2)   1.32729692 +1   90.5678237 +1   21.4129941 +1     3     1     2
  C(HETATM    5  C2  HET B   2)   1.32772550 +1  126.0645594 +1  -66.4249362 +1     4     3     1
  H(HETATM    6 1H1  HET A   1)   1.07783484 +1  123.2059405 +1  -93.6602469 +1     1     2     3
  H(HETATM    7 2H1  HET A   1)   1.07758477 +1  123.5121274 +1   88.2697991 +1     1     2     3
  H(HETATM    8 1H2  HET A   1)   1.07796564 +1  123.6915424 +1  -88.6014729 +1     2     1     3
  H(HETATM    9 2H2  HET A   1)   1.07717265 +1  123.4452953 +1   93.6817422 +1     2     1     3
  H(HETATM   10 1H1  HET B   2)   1.07183677 +1  103.1995310 +1  144.2503186 +1     3     1     2
  H(HETATM   11 2H1  HET B   2)   1.07284723 +1   77.8027389 +1 -102.9379113 +1     3     1     2
  H(HETATM   12  H   HET B   2)   1.02032409 +1  116.8485349 +1  108.9562267 +1     4     3     1
  H(HETATM   13 1H2  HET B   2)   1.07299952 +1  123.5809913 +1   -9.8686098 +1     5     4     3
  H(HETATM   14 2H2  HET B   2)   1.07295154 +1  121.7447031 +1  172.2889598 +1     5     4     3
 
 TIME=     0.02
  REACTANTS AND PRODUCTS SWAPPED AROUND
 *+*+*+*+*+*+*+*+*+*+*+*+*+*+*+*+*+*+*+*+*+*+*+*+*+*+*+*+*+*+*+*+*+*+*+*+*+*+*+*+
            BAR SHORTENED BY       1.000 PERCENT
 GRADIENT CRITERION IN FLEPO =    10.000


          FOR POINT   38 FIRST  STRUCTURE
 DISTANCE A - B      0.860193
 HEAT               17.349156
 GRADIENT NORM     111.390721
 DIRECTION COSINE    0.901568
 geo-ok HTML
 Transition state for the condensation reaction Formoazomethine Ylide plus ethylene

  C(HETATM    1  C1  HET A   1)   0.00000000 +0    0.0000000 +0    0.0000000 +0
  C(HETATM    2  C2  HET A   1)   1.50180008 +1    0.0000000 +0    0.0000000 +0     1     0     0
  C(HETATM    3  C1  HET B   2)   1.77004943 +1  103.1229268 +1    0.0000000 +0     1     2     0
  N(HETATM    4  N   HET B   2)   1.44212397 +1  106.4417617 +1   19.2316153 +1     3     1     2
  C(HETATM    5  C2  HET B   2)   1.43838660 +1  107.9751521 +1  -37.5697156 +1     4     3     1
  H(HETATM    6 1H1  HET A   1)   1.09918585 +1  115.3033479 +1 -116.3214303 +1     1     2     3
  H(HETATM    7 2H1  HET A   1)   1.08957226 +1  116.9870476 +1  115.2084863 +1     1     2     3
  H(HETATM    8 1H2  HET A   1)   1.08938978 +1  115.5509081 +1 -113.5195873 +1     2     1     3
  H(HETATM    9 2H2  HET A   1)   1.09292415 +1  115.8133489 +1  117.7821220 +1     2     1     3
  H(HETATM   10 1H1  HET B   2)   1.10487306 +1  117.1825182 +1  143.2804136 +1     3     1     2
  H(HETATM   11 2H1  HET B   2)   1.09464400 +1  100.6036911 +1  -98.0988174 +1     3     1     2
  H(HETATM   12  H   HET B   2)   1.01710880 +1  115.3879018 +1   92.1363101 +1     4     3     1
  H(HETATM   13 1H2  HET B   2)   1.09644537 +1  112.3150688 +1  -71.0140750 +1     5     4     3
  H(HETATM   14 2H2  HET B   2)   1.10626944 +1  110.9842150 +1  167.4377402 +1     5     4     3
 
 *+*+*+*+*+*+*+*+*+*+*+*+*+*+*+*+*+*+*+*+*+*+*+*+*+*+*+*+*+*+*+*+*+*+*+*+*+*+*+*+
            BAR SHORTENED BY       1.000 PERCENT
 GRADIENT CRITERION IN FLEPO =    10.000


          FOR POINT   39 FIRST  STRUCTURE
 DISTANCE A - B      0.851591
 HEAT               18.311422
 GRADIENT NORM     112.723402
 DIRECTION COSINE    0.999898
 geo-ok HTML
 Transition state for the condensation reaction Formoazomethine Ylide plus ethylene

  C(HETATM    1  C1  HET A   1)   0.00000000 +0    0.0000000 +0    0.0000000 +0
  C(HETATM    2  C2  HET A   1)   1.50014152 +1    0.0000000 +0    0.0000000 +0     1     0     0
  C(HETATM    3  C1  HET B   2)   1.77805361 +1  103.0896851 +1    0.0000000 +0     1     2     0
  N(HETATM    4  N   HET B   2)   1.44030478 +1  106.3106196 +1   19.2541323 +1     3     1     2
  C(HETATM    5  C2  HET B   2)   1.43654962 +1  108.2003241 +1  -37.7632710 +1     4     3     1
  H(HETATM    6 1H1  HET A   1)   1.09823046 +1  115.3957289 +1 -116.1231231 +1     1     2     3
  H(HETATM    7 2H1  HET A   1)   1.08854807 +1  117.0749797 +1  114.9655688 +1     1     2     3
  H(HETATM    8 1H2  HET A   1)   1.08846635 +1  115.6479825 +1 -113.2953983 +1     2     1     3
  H(HETATM    9 2H2  HET A   1)   1.09192774 +1  115.9081183 +1  117.5715078 +1     2     1     3
  H(HETATM   10 1H1  HET B   2)   1.10429411 +1  117.0407164 +1  143.2995150 +1     3     1     2
  H(HETATM   11 2H1  HET B   2)   1.09362683 +1  100.3837351 +1  -98.1561407 +1     3     1     2
  H(HETATM   12  H   HET B   2)   1.01704737 +1  115.4434218 +1   92.2787723 +1     4     3     1
[...]
  H(HETATM    7 2H1  HET A   1)   1.07656615 +1  122.4558972 +1   97.1860511 +1     1     2     3
  H(HETATM    8 1H2  HET A   1)   1.07645554 +1  122.1816419 +1  -96.1531090 +1     2     1     3
  H(HETATM    9 2H2  HET A   1)   1.07667412 +1  122.4571249 +1  100.4663573 +1     2     1     3
  H(HETATM   10 1H1  HET B   2)   1.07277907 +1  105.6090175 +1  146.2120959 +1     3     1     2
  H(HETATM   11 2H1  HET B   2)   1.07809752 +1   86.8435917 +1  -98.1783171 +1     3     1     2
  H(HETATM   12  H   HET B   2)   1.01565313 +1  118.1770298 +1  101.7113385 +1     4     3     1
  H(HETATM   13 1H2  HET B   2)   1.07703546 +1  121.2589141 +1  -29.4777016 +1     5     4     3
  H(HETATM   14 2H2  HET B   2)   1.07289822 +1  120.7189170 +1  169.8864982 +1     5     4     3
 
 TIME=     0.02
  REACTANTS AND PRODUCTS SWAPPED AROUND
 *+*+*+*+*+*+*+*+*+*+*+*+*+*+*+*+*+*+*+*+*+*+*+*+*+*+*+*+*+*+*+*+*+*+*+*+*+*+*+*+
            BAR SHORTENED BY       1.000 PERCENT
 GRADIENT CRITERION IN FLEPO =    10.000


          FOR POINT  280 FIRST  STRUCTURE
 DISTANCE A - B      0.103186
 HEAT               53.038003
 GRADIENT NORM      22.722594
 DIRECTION COSINE    0.729671
 geo-ok HTML
 Transition state for the condensation reaction Formoazomethine Ylide plus ethylene

  C(HETATM    1  C1  HET A   1)   0.00000000 +0    0.0000000 +0    0.0000000 +0
  C(HETATM    2  C2  HET A   1)   1.38995962 +1    0.0000000 +0    0.0000000 +0     1     0     0
  C(HETATM    3  C1  HET B   2)   2.15075613 +1  102.7587788 +1    0.0000000 +0     1     2     0
  N(HETATM    4  N   HET B   2)   1.36288689 +1   96.2499721 +1   22.7457519 +1     3     1     2
  C(HETATM    5  C2  HET B   2)   1.36248562 +1  117.7572083 +1  -53.0169063 +1     4     3     1
  H(HETATM    6 1H1  HET A   1)   1.07703792 +1  121.0228139 +1 -102.9578291 +1     1     2     3
  H(HETATM    7 2H1  HET A   1)   1.07603754 +1  121.5191107 +1  100.5823547 +1     1     2     3
  H(HETATM    8 1H2  HET A   1)   1.07533112 +1  121.2898995 +1  -99.4502545 +1     2     1     3
  H(HETATM    9 2H2  HET A   1)   1.07832064 +1  121.5244398 +1  103.8220016 +1     2     1     3
  H(HETATM   10 1H1  HET B   2)   1.07896709 +1  108.2669901 +1  145.8189361 +1     3     1     2
  H(HETATM   11 2H1  HET B   2)   1.08134197 +1   89.8239025 +1  -97.6624633 +1     3     1     2
  H(HETATM   12  H   HET B   2)   1.01317103 +1  118.1922726 +1   98.8282041 +1     4     3     1
  H(HETATM   13 1H2  HET B   2)   1.07812793 +1  120.2045856 +1  -38.7440865 +1     5     4     3
  H(HETATM   14 2H2  HET B   2)   1.07896273 +1  119.0243519 +1  170.0491544 +1     5     4     3
 
 TIME=     0.00
  REACTANTS AND PRODUCTS SWAPPED AROUND
 *+*+*+*+*+*+*+*+*+*+*+*+*+*+*+*+*+*+*+*+*+*+*+*+*+*+*+*+*+*+*+*+*+*+*+*+*+*+*+*+
            BAR SHORTENED BY       1.000 PERCENT
 GRADIENT CRITERION IN FLEPO =    10.000


          FOR POINT  281 SECOND STRUCTURE
 DISTANCE A - B      0.102154
 HEAT               53.034112
 GRADIENT NORM      16.300354
 DIRECTION COSINE    0.722033
 geo-ok HTML
 Transition state for the condensation reaction Formoazomethine Ylide plus ethylene

  C(HETATM    1  C1  HET A   1)   0.00000000 +0    0.0000000 +0    0.0000000 +0
  C(HETATM    2  C2  HET A   1)   1.36474670 +1    0.0000000 +0    0.0000000 +0     1     0     0
  C(HETATM    3  C1  HET B   2)   2.24946780 +1  102.5486874 +1    0.0000000 +0     1     2     0
  N(HETATM    4  N   HET B   2)   1.34674218 +1   93.5845962 +1   23.0690593 +1     3     1     2
  C(HETATM    5  C2  HET B   2)   1.34677654 +1  120.3812099 +1  -57.3559836 +1     4     3     1
  H(HETATM    6 1H1  HET A   1)   1.07584846 +1  122.0360383 +1  -99.4373032 +1     1     2     3
  H(HETATM    7 2H1  HET A   1)   1.07654580 +1  122.4470082 +1   97.2203498 +1     1     2     3
  H(HETATM    8 1H2  HET A   1)   1.07642982 +1  122.1731635 +1  -96.1863580 +1     2     1     3
  H(HETATM    9 2H2  HET A   1)   1.07667620 +1  122.4482095 +1  100.5002581 +1     2     1     3
  H(HETATM   10 1H1  HET B   2)   1.07283076 +1  105.6356605 +1  146.2082423 +1     3     1     2
  H(HETATM   11 2H1  HET B   2)   1.07811491 +1   86.8734918 +1  -98.1732263 +1     3     1     2
  H(HETATM   12  H   HET B   2)   1.01562564 +1  118.1784113 +1  101.6822351 +1     4     3     1
  H(HETATM   13 1H2  HET B   2)   1.07703209 +1  121.2507898 +1  -29.5739348 +1     5     4     3
  H(HETATM   14 2H2  HET B   2)   1.07294739 +1  120.7038794 +1  169.8873054 +1     5     4     3
 
 *+*+*+*+*+*+*+*+*+*+*+*+*+*+*+*+*+*+*+*+*+*+*+*+*+*+*+*+*+*+*+*+*+*+*+*+*+*+*+*+
            BAR SHORTENED BY       1.000 PERCENT
 GRADIENT CRITERION IN FLEPO =    10.000


          FOR POINT  282 SECOND STRUCTURE
 DISTANCE A - B      0.101133
 HEAT               53.049641
 GRADIENT NORM      16.157068
 DIRECTION COSINE    0.999924
 geo-ok HTML
 Transition state for the condensation reaction Formoazomethine Ylide plus ethylene

  C(HETATM    1  C1  HET A   1)   0.00000000 +0    0.0000000 +0    0.0000000 +0
  C(HETATM    2  C2  HET A   1)   1.36499883 +1    0.0000000 +0    0.0000000 +0     1     0     0
  C(HETATM    3  C1  HET B   2)   2.24848056 +1  102.5507109 +1    0.0000000 +0     1     2     0
  N(HETATM    4  N   HET B   2)   1.34688707 +1   93.6116486 +1   23.0658610 +1     3     1     2
  C(HETATM    5  C2  HET B   2)   1.34691792 +1  120.3565340 +1  -57.3103220 +1     4     3     1
  H(HETATM    6 1H1  HET A   1)   1.07584451 +1  122.0263818 +1  -99.4728913 +1     1     2     3
  H(HETATM    7 2H1  HET A   1)   1.07652595 +1  122.4381983 +1   97.2542996 +1     1     2     3
  H(HETATM    8 1H2  HET A   1)   1.07640465 +1  122.1647610 +1  -96.2192696 +1     2     1     3
  H(HETATM    9 2H2  HET A   1)   1.07667855 +1  122.4393746 +1  100.5338136 +1     2     1     3
  H(HETATM   10 1H1  HET B   2)   1.07288214 +1  105.6620360 +1  146.2044258 +1     3     1     2
  H(HETATM   11 2H1  HET B   2)   1.07813243 +1   86.9030914 +1  -98.1681850 +1     3     1     2
  H(HETATM   12  H   HET B   2)   1.01559847 +1  118.1797544 +1  101.6534269 +1     4     3     1
  H(HETATM   13 1H2  HET B   2)   1.07702904 +1  121.2426971 +1  -29.6691379 +1     5     4     3
  H(HETATM   14 2H2  HET B   2)   1.07299630 +1  120.6889522 +1  169.8881224 +1     5     4     3
 
 TIME=     0.03
  REACTANTS AND PRODUCTS SWAPPED AROUND
 *+*+*+*+*+*+*+*+*+*+*+*+*+*+*+*+*+*+*+*+*+*+*+*+*+*+*+*+*+*+*+*+*+*+*+*+*+*+*+*+
            BAR SHORTENED BY       1.000 PERCENT
 GRADIENT CRITERION IN FLEPO =    10.000


          FOR POINT  283 FIRST  STRUCTURE
 DISTANCE A - B      0.100122
 HEAT               53.058336
 GRADIENT NORM      22.289490
 DIRECTION COSINE    0.706893
 geo-ok HTML
 Transition state for the condensation reaction Formoazomethine Ylide plus ethylene

  C(HETATM    1  C1  HET A   1)   0.00000000 +0    0.0000000 +0    0.0000000 +0
  C(HETATM    2  C2  HET A   1)   1.38971001 +1    0.0000000 +0    0.0000000 +0     1     0     0
  C(HETATM    3  C1  HET B   2)   2.15173325 +1  102.7566186 +1    0.0000000 +0     1     2     0
  N(HETATM    4  N   HET B   2)   1.36271085 +1   96.2240013 +1   22.7489889 +1     3     1     2
  C(HETATM    5  C2  HET B   2)   1.36231472 +1  117.7846010 +1  -53.0576267 +1     4     3     1
  H(HETATM    6 1H1  HET A   1)   1.07701047 +1  121.0332956 +1 -102.9233903 +1     1     2     3
  H(HETATM    7 2H1  HET A   1)   1.07602794 +1  121.5287451 +1  100.5494331 +1     1     2     3
  H(HETATM    8 1H2  HET A   1)   1.07532794 +1  121.2990559 +1  -99.4182458 +1     2     1     3
  H(HETATM    9 2H2  HET A   1)   1.07829043 +1  121.5339677 +1  103.7894808 +1     2     1     3
  H(HETATM   10 1H1  HET B   2)   1.07889651 +1  108.2410125 +1  145.8228694 +1     3     1     2
  H(HETATM   11 2H1  HET B   2)   1.08129546 +1   89.7948154 +1  -97.6675889 +1     3     1     2
  H(HETATM   12  H   HET B   2)   1.01319273 +1  118.1933131 +1   98.8561319 +1     4     3     1
  H(HETATM   13 1H2  HET B   2)   1.07810322 +1  120.2172112 +1  -38.6569054 +1     5     4     3
  H(HETATM   14 2H2  HET B   2)   1.07889211 +1  119.0427317 +1  170.0468390 +1     5     4     3
 
 TIME=     0.00
  REACTANTS AND PRODUCTS SWAPPED AROUND
 *+*+*+*+*+*+*+*+*+*+*+*+*+*+*+*+*+*+*+*+*+*+*+*+*+*+*+*+*+*+*+*+*+*+*+*+*+*+*+*+
            BAR SHORTENED BY       1.000 PERCENT
 AT END OF STEPWISE ASCENT OF REACTION BARRIER

 -------------------------------------------------------------------------------
 geo-ok HTML
 Transition state for the condensation reaction Formoazomethine Ylide plus ethylene



     TRANSITION STATE LOCATED USING THE "SADDLE" TECHNIQUE    
     SCF FIELD WAS ACHIEVED                                   


                              PM7 CALCULATION
                                                       MOPAC2016 (Version: 21.153W)
                                                       Thu Jun  3 09:00:14 2021
                                                       No. of days remaining = 364




          FINAL H.O.F PLUS STRESS =         53.05834 KCAL/MOL =     221.99608 KJ/MOL
          FINAL STRESS            =          0.00000 KCAL/MOL =       0.00000 KJ/MOL
          FINAL HEAT OF FORMATION =         53.05834 KCAL/MOL =     221.99608 KJ/MOL
          TOTAL DISTORTION        =          0.00266 Angstroms
          AVERAGE DISTORTION      =          0.00019 Angstroms per atom (all atoms)
          RMS DISTORTION          =          0.00027 Angstroms per atom (all atoms)


          TOTAL ENERGY            =       -796.62145 EV
          ELECTRONIC ENERGY       =      -3219.14472 EV  POINT GROUP:     Cs  
          CORE-CORE REPULSION     =       2422.52326 EV
          COSMO AREA              =        120.12 SQUARE ANGSTROMS
          COSMO VOLUME            =        109.53 CUBIC ANGSTROMS

          GRADIENT NORM           =          9.80501 = 2.62050 PER ATOM
          IONIZATION POTENTIAL    =          8.143538 EV
          HOMO LUMO ENERGIES (EV) =         -8.144  0.810
          NO. OF FILLED LEVELS    =         15
          MOLECULAR WEIGHT        =         71.1218

          MOLECULAR DIMENSIONS (Angstroms)

            Atom       Atom       Distance
            H    10    H     9     4.39277
            H    14    H     6     4.32224
            H    13    H     8     2.88084


          SCF CALCULATIONS        =        984
 
          WALL-CLOCK TIME         =          3.359 SECONDS
          COMPUTATION TIME        =         12.953 SECONDS



       FINAL  POINT  AND  DERIVATIVES

   PARAMETER     ATOM    TYPE            VALUE        GRADIENT
      1          1  C    CARTESIAN X     0.059439     -4.085071  KCAL/ANGSTROM
      2          1  C    CARTESIAN Y    -0.305799     -1.252971  KCAL/ANGSTROM
      3          1  C    CARTESIAN Z     0.011495      1.149952  KCAL/ANGSTROM
      4          2  C    CARTESIAN X     1.447957      3.439696  KCAL/ANGSTROM
      5          2  C    CARTESIAN Y    -0.339575     -2.334228  KCAL/ANGSTROM
      6          2  C    CARTESIAN Z    -0.027024     -1.489325  KCAL/ANGSTROM
      7          3  C    CARTESIAN X    -0.366240     -0.204730  KCAL/ANGSTROM
      8          3  C    CARTESIAN Y     1.803780     -0.200549  KCAL/ANGSTROM
      9          3  C    CARTESIAN Z    -0.039417     -1.632231  KCAL/ANGSTROM
     10          4  N    CARTESIAN X     0.813755     -0.843286  KCAL/ANGSTROM
     11          4  N    CARTESIAN Y     2.178269      3.028927  KCAL/ANGSTROM
     12          4  N    CARTESIAN Z    -0.608520      0.610407  KCAL/ANGSTROM
     13          5  C    CARTESIAN X     1.966440      0.237174  KCAL/ANGSTROM
     14          5  C    CARTESIAN Y     1.761329      0.298031  KCAL/ANGSTROM
     15          5  C    CARTESIAN Z    -0.014450     -0.253188  KCAL/ANGSTROM
     16          6  H    CARTESIAN X    -0.474818      0.637805  KCAL/ANGSTROM
     17          6  H    CARTESIAN Y    -0.471125     -2.045945  KCAL/ANGSTROM
     18          6  H    CARTESIAN Z     0.931891      0.196126  KCAL/ANGSTROM
     19          7  H    CARTESIAN X    -0.532583      0.175646  KCAL/ANGSTROM
     20          7  H    CARTESIAN Y    -0.486300     -1.500152  KCAL/ANGSTROM
     21          7  H    CARTESIAN Z    -0.868701      0.352578  KCAL/ANGSTROM
     22          8  H    CARTESIAN X     1.977061     -0.772110  KCAL/ANGSTROM
     23          8  H    CARTESIAN Y    -0.529949     -1.854184  KCAL/ANGSTROM
     24          8  H    CARTESIAN Z    -0.943611      0.476600  KCAL/ANGSTROM
     25          9  H    CARTESIAN X     2.031921      0.707772  KCAL/ANGSTROM
     26          9  H    CARTESIAN Y    -0.545013     -1.668830  KCAL/ANGSTROM
     27          9  H    CARTESIAN Z     0.855828      0.600520  KCAL/ANGSTROM
     28         10  H    CARTESIAN X    -1.280038     -0.060495  KCAL/ANGSTROM
     29         10  H    CARTESIAN Y     1.950132      1.938869  KCAL/ANGSTROM
     30         10  H    CARTESIAN Z    -0.593874     -1.257040  KCAL/ANGSTROM
     31         11  H    CARTESIAN X    -0.476337     -0.925376  KCAL/ANGSTROM
     32         11  H    CARTESIAN Y     1.803018      0.342494  KCAL/ANGSTROM
     33         11  H    CARTESIAN Z     1.036212      1.810182  KCAL/ANGSTROM
     34         12  H    CARTESIAN X     0.830443      0.581778  KCAL/ANGSTROM
     35         12  H    CARTESIAN Y     2.350186     -1.138541  KCAL/ANGSTROM
     36         12  H    CARTESIAN Z    -1.606903     -0.508259  KCAL/ANGSTROM
     37         13  H    CARTESIAN X     2.043012      0.718697  KCAL/ANGSTROM
     38         13  H    CARTESIAN Y     1.731373      0.747853  KCAL/ANGSTROM
     39         13  H    CARTESIAN Z     1.060489     -0.807637  KCAL/ANGSTROM
     40         14  H    CARTESIAN X     2.903230      0.679036  KCAL/ANGSTROM
     41         14  H    CARTESIAN Y     1.904750      3.879858  KCAL/ANGSTROM
     42         14  H    CARTESIAN Z    -0.529923      0.415505  KCAL/ANGSTROM




   ATOM                 CHEMICAL                   X               Y               Z
  NUMBER                 SYMBOL               (ANGSTROMS)     (ANGSTROMS)     (ANGSTROMS)
 
     1       C(HETATM    1  C1  HET A   1)    0.05943923  *  -0.30579898  *   0.01149470  *
     2       C(HETATM    2  C2  HET A   1)    1.44795735  *  -0.33957532  *  -0.02702446  *
     3       C(HETATM    3  C1  HET B   2)   -0.36623975  *   1.80378043  *  -0.03941742  *
     4       N(HETATM    4  N   HET B   2)    0.81375481  *   2.17826917  *  -0.60852003  *
     5       C(HETATM    5  C2  HET B   2)    1.96644017  *   1.76132922  *  -0.01445036  *
     6       H(HETATM    6 1H1  HET A   1)   -0.47481833  *  -0.47112532  *   0.93189122  *
     7       H(HETATM    7 2H1  HET A   1)   -0.53258320  *  -0.48630022  *  -0.86870133  *
     8       H(HETATM    8 1H2  HET A   1)    1.97706144  *  -0.52994901  *  -0.94361090  *
     9       H(HETATM    9 2H2  HET A   1)    2.03192104  *  -0.54501253  *   0.85582792  *
    10       H(HETATM   10 1H1  HET B   2)   -1.28003779  *   1.95013164  *  -0.59387372  *
    11       H(HETATM   11 2H1  HET B   2)   -0.47633731  *   1.80301767  *   1.03621209  *
    12       H(HETATM   12  H   HET B   2)    0.83044291  *   2.35018649  *  -1.60690327  *
    13       H(HETATM   13 1H2  HET B   2)    2.04301241  *   1.73137288  *   1.06048858  *
    14       H(HETATM   14 2H2  HET B   2)    2.90323045  *   1.90474983  *  -0.52992323  *

                             CARTESIAN COORDINATES

   1    C        0.059439231    -0.305798979     0.011494700
   2    C        1.447957353    -0.339575318    -0.027024459
   3    C       -0.366239746     1.803780427    -0.039417422
   4    N        0.813754811     2.178269174    -0.608520030
   5    C        1.966440171     1.761329220    -0.014450359
   6    H       -0.474818328    -0.471125320     0.931891225
   7    H       -0.532583195    -0.486300223    -0.868701332
   8    H        1.977061440    -0.529949014    -0.943610905
   9    H        2.031921039    -0.545012528     0.855827916
  10    H       -1.280037786     1.950131638    -0.593873716
  11    H       -0.476337311     1.803017669     1.036212087
  12    H        0.830442910     2.350186493    -1.606903267
  13    H        2.043012408     1.731372877     1.060488577
  14    H        2.903230455     1.904749827    -0.529923229


           Empirical Formula: C4 H9 N  =    14 atoms



      MOLECULAR POINT GROUP   :   Cs  


                  EIGENVALUES  
 -37.09075 -25.98851 -24.20965 -21.61398 -19.53848 -18.11222 -15.91881 -15.46023
 -13.96204 -13.45070 -13.25754 -12.94422 -11.39451  -8.73967  -8.14354   0.81015
   1.99961   3.21535   5.30646   5.42363   6.20853   6.21843   6.23659   6.30724
   6.42634   6.78489   7.14625   7.21037   7.26312


              NET ATOMIC CHARGES AND DIPOLE CONTRIBUTIONS

  ATOM NO.                 TYPE                        CHARGE      No. of ELECS.   s-Pop       p-Pop       
    1          C(HETATM    1  C1  HET A   1)          -0.311894        4.3119     1.08898     3.22292
    2          C(HETATM    2  C2  HET A   1)          -0.315456        4.3155     1.08911     3.22635
    3          C(HETATM    3  C1  HET B   2)          -0.282109        4.2821     1.09689     3.18522
    4          N(HETATM    4  N   HET B   2)          -0.196888        5.1969     1.49047     3.70642
    5          C(HETATM    5  C2  HET B   2)          -0.280399        4.2804     1.09755     3.18285
    6          H(HETATM    6 1H1  HET A   1)           0.128350        0.8716     0.87165
    7          H(HETATM    7 2H1  HET A   1)           0.127250        0.8727     0.87275
    8          H(HETATM    8 1H2  HET A   1)           0.126479        0.8735     0.87352
    9          H(HETATM    9 2H2  HET A   1)           0.129149        0.8709     0.87085
   10          H(HETATM   10 1H1  HET B   2)           0.141500        0.8585     0.85850
   11          H(HETATM   11 2H1  HET B   2)           0.157042        0.8430     0.84296
   12          H(HETATM   12  H   HET B   2)           0.279227        0.7208     0.72077
   13          H(HETATM   13 1H2  HET B   2)           0.156353        0.8436     0.84365
   14          H(HETATM   14 2H2  HET B   2)           0.141396        0.8586     0.85860

          NET CHARGE ON RESIDUES

      Residue         Charge  Anion or
                              Cation?
      HET A   1       -0.116
      HET B   2       +0.116
 


 DIPOLE           X         Y         Z       TOTAL
 POINT-CHG.     0.029     1.280    -0.667     1.444
 HYBRID         0.014     0.395    -0.376     0.545
 SUM            0.043     1.675    -1.043     1.973


          ATOMIC ORBITAL ELECTRON POPULATIONS

                   Atom                  s        px        py        pz   
   C(HETATM    1  C1  HET A   1)   1.08898   1.03166   1.06064   1.13061
   C(HETATM    2  C2  HET A   1)   1.08911   1.03052   1.06469   1.13114
   C(HETATM    3  C1  HET B   2)   1.09689   0.93162   1.13771   1.11589
   N(HETATM    4  N   HET B   2)   1.49047   1.11217   1.41033   1.18392
   C(HETATM    5  C2  HET B   2)   1.09755   0.94282   1.12413   1.11590
   H(HETATM    6 1H1  HET A   1)   0.87165
   H(HETATM    7 2H1  HET A   1)   0.87275
   H(HETATM    8 1H2  HET A   1)   0.87352
   H(HETATM    9 2H2  HET A   1)   0.87085
   H(HETATM   10 1H1  HET B   2)   0.85850
   H(HETATM   11 2H1  HET B   2)   0.84296
   H(HETATM   12  H   HET B   2)   0.72077
   H(HETATM   13 1H2  HET B   2)   0.84365
   H(HETATM   14 2H2  HET B   2)   0.85860

 **********************
 *                    *
 * JOB ENDED NORMALLY *
 *                    *
 **********************



 TOTAL JOB TIME:             3.41 SECONDS

 == MOPAC DONE ==
