 *******************************************************************************
 ** Site#: 37037        For non-commercial use only           Version 21.153W **
 *******************************************************************************
 ** Cite this program as: MOPAC2016, Version: 21.153W, James J. P. Stewart,   **
 ** Stewart Computational Chemistry, web: HTTP://OpenMOPAC.net. Days left: 362**
 *******************************************************************************
 **                                                                           **
 **                                MOPAC2016                                  **
 **                                                                           **
 *******************************************************************************

                              PM7 CALCULATION RESULTS

 *******************************************************************************
 *  CALCULATION DONE:                                Sat Jun  5 15:29:43 2021  *
 *  RESIDUES   - DETERMINE THE SEQUENCE OF RESIDUES
 *  T=         - A TIME OF 172800.0 SECONDS REQUESTED
 *  DUMP=N     - RESTART FILE WRITTEN EVERY 7200.0 SECONDS REQUESTED
 *  NOTXT      - DO NOT PRINT TEXT ASSOCIATED WITH AN ATOM
 *  HTML       - WRITE HTML SCRIPT TO READ PDB FILE USING JSMOL
 *******************************************************************************
      HTML notxt
      Nitrous oxide and acetylene

  ATOM    CHEMICAL      BOND LENGTH      BOND ANGLE     TWIST ANGLE 
 NUMBER    SYMBOL       (ANGSTROMS)      (DEGREES)       (DEGREES) 
   (I)                     NA:I           NB:NA:I       NC:NB:NA:I       NA    NB    NC 
     1       C          0.00000000       0.0000000       0.0000000        0     0     0
     2       C          1.37494700  *    0.0000000       0.0000000        1     0     0
     3       N          1.41631700  *  105.6365520  *    0.0000000        1     2     0
     4       N          1.25759700  *  109.7924590  *   -0.0005640  *     3     1     2
     5       O          1.37185700  *  107.8982130  *    0.0009530  *     2     1     3
     6       H          1.07168900  *  133.1525610  *  179.9999150  *     1     2     3
     7       H          1.06655700  *  136.3173310  *  179.9996230  *     2     1     5
 


          CARTESIAN COORDINATES 

    NO.       ATOM           X           Y           Z

     1         C          0.0000      0.0000      0.0000
     2         C          1.3749      0.0000      0.0000
     3         N         -0.3817      1.3639      0.0000
     4         N          0.6430      2.0929      0.0000
     5         O          1.7966      1.3055      0.0000
     6         H         -0.7330     -0.7818     -0.0000
     7         H          2.1463     -0.7366     -0.0000

 General Reference for PM7:
 "Optimization of Parameters for Semiempirical Methods VI: More Modifications to the 
 NDDO Approximations and Re-optimization of Parameters", J. J. P. Stewart, J. Mol. Mod., 1:32, 19 (2013)
 https://link.springer.com/article/10.1007/s00894-012-1667-x

           Empirical Formula: C2 H2 N2 O  =     7 atoms



      MOLECULAR POINT GROUP   :   Cs  


      RHF CALCULATION, NO. OF DOUBLY OCCUPIED LEVELS = 13


          Geometry optimization using EF

     GRADIENT =  0.08563 IS LESS THAN CUTOFF =  1.00000



 -------------------------------------------------------------------------------
 HTML notxt
      Nitrous oxide and acetylene



     GRADIENTS WERE INITIALLY ACCEPTABLY SMALL                
     SCF FIELD WAS ACHIEVED                                   


                              PM7 CALCULATION
                                                       MOPAC2016 (Version: 21.153W)
                                                       Sat Jun  5 15:29:43 2021
                                                       No. of days remaining = 362




          FINAL HEAT OF FORMATION =         36.77763 KCAL/MOL =     153.87761 KJ/MOL


          TOTAL ENERGY            =       -937.93493 EV
          ELECTRONIC ENERGY       =      -2867.65697 EV  POINT GROUP:     Cs  
          CORE-CORE REPULSION     =       1929.72205 EV
          COSMO AREA              =         92.97 SQUARE ANGSTROMS
          COSMO VOLUME            =         77.67 CUBIC ANGSTROMS

          GRADIENT NORM           =          0.08563 = 0.03236 PER ATOM
          IONIZATION POTENTIAL    =         11.135941 EV
          HOMO LUMO ENERGIES (EV) =        -11.136 -0.793
          NO. OF FILLED LEVELS    =         13
          MOLECULAR WEIGHT        =         70.0506

          MOLECULAR DIMENSIONS (Angstroms)

            Atom       Atom       Distance
            H     7    N     3     3.28680
            H     6    O     5     3.22200
            O     5    N     3     0.00002


          SCF CALCULATIONS        =          1
 
          WALL-CLOCK TIME         =          0.031 SECONDS
          COMPUTATION TIME        =          0.031 SECONDS




  ATOM    CHEMICAL      BOND LENGTH      BOND ANGLE     TWIST ANGLE 
 NUMBER    SYMBOL       (ANGSTROMS)      (DEGREES)       (DEGREES) 
   (I)                     NA:I           NB:NA:I       NC:NB:NA:I       NA    NB    NC 
     1       C          0.00000000       0.0000000       0.0000000        0     0     0
     2       C          1.37494700  *    0.0000000       0.0000000        1     0     0
     3       N          1.41631700  *  105.6365520  *    0.0000000        1     2     0
     4       N          1.25759700  *  109.7924590  *   -0.0005640  *     3     1     2
     5       O          1.37185700  *  107.8982130  *    0.0009530  *     2     1     3
     6       H          1.07168900  *  133.1525610  *  179.9999150  *     1     2     3
     7       H          1.06655700  *  136.3173310  *  179.9996230  *     2     1     5

                             CARTESIAN COORDINATES

   1    C        0.000000000     0.000000000     0.000000000
   2    C        1.374947000     0.000000000     0.000000000
   3    N       -0.381745895     1.363900259     0.000000000
   4    N        0.642987376     2.092921478     0.000011648
   5    O        1.796555612     1.305464594     0.000021714
   6    H       -0.732974521    -0.781834806    -0.000001160
   7    H        2.146255524    -0.736632198    -0.000007405


           Empirical Formula: C2 H2 N2 O  =     7 atoms



      MOLECULAR POINT GROUP   :   Cs  


                  EIGENVALUES  
 -40.45426 -31.45477 -28.53678 -24.25702 -22.67232 -18.48609 -16.92580 -16.63458
 -15.31023 -13.21171 -12.75195 -12.36750 -11.13594  -0.79333   0.28848   0.40654
   2.18270   2.53240   3.61770   4.57445   4.86896   5.20860


              NET ATOMIC CHARGES AND DIPOLE CONTRIBUTIONS

  ATOM NO.                 TYPE                        CHARGE      No. of ELECS.   s-Pop       p-Pop       
    1          C(HETATM    1  C1  HET A   1)          -0.151862        4.1519     1.10972     3.04214
    2          C(HETATM    2  C2  HET A   1)          -0.057304        4.0573     1.14309     2.91422
    3          N(HETATM    3  N1  HET A   1)          -0.148567        5.1486     1.75987     3.38870
    4          N(HETATM    4  N2  HET A   1)           0.001016        4.9990     1.82746     3.17152
    5          O(HETATM    5  O   HET A   1)          -0.045010        6.0450     1.91475     4.13026
    6          H(HETATM    6  H1  HET A   1)           0.203465        0.7965     0.79653
    7          H(HETATM    7  H2  HET A   1)           0.198262        0.8017     0.80174
 DIPOLE           X         Y         Z       TOTAL
 POINT-CHG.     0.836    -2.711    -0.000     2.837
 HYBRID         0.622    -0.651     0.000     0.900
 SUM            1.458    -3.362    -0.000     3.664


          ATOMIC ORBITAL ELECTRON POPULATIONS

                   Atom                  s        px        py        pz   
   C(HETATM    1  C1  HET A   1)   1.10972   0.98490   0.94078   1.11646
   C(HETATM    2  C2  HET A   1)   1.14309   1.02144   0.90129   0.99149
   N(HETATM    3  N1  HET A   1)   1.75987   1.23243   1.06046   1.09581
   N(HETATM    4  N2  HET A   1)   1.82746   0.88810   1.16163   1.12179
   O(HETATM    5  O   HET A   1)   1.91475   1.28516   1.17064   1.67446
   H(HETATM    6  H1  HET A   1)   0.79653
   H(HETATM    7  H2  HET A   1)   0.80174

 **********************
 *                    *
 * JOB ENDED NORMALLY *
 *                    *
 **********************



 TOTAL JOB TIME:             0.03 SECONDS

 == MOPAC DONE ==
