 *******************************************************************************
 ** Site#: 37037        For non-commercial use only           Version 21.153W **
 *******************************************************************************
 ** Cite this program as: MOPAC2016, Version: 21.153W, James J. P. Stewart,   **
 ** Stewart Computational Chemistry, web: HTTP://OpenMOPAC.net. Days left: 362**
 *******************************************************************************
 **                                                                           **
 **                                MOPAC2016                                  **
 **                                                                           **
 *******************************************************************************

                              PM7 CALCULATION RESULTS

 *******************************************************************************
 *  CALCULATION DONE:                                Sat Jun  5 15:29:50 2021  *
 *  RESIDUES   - DETERMINE THE SEQUENCE OF RESIDUES
 *  T=         - A TIME OF 172800.0 SECONDS REQUESTED
 *  DUMP=N     - RESTART FILE WRITTEN EVERY 7200.0 SECONDS REQUESTED
 *  HTML       - WRITE HTML SCRIPT TO READ PDB FILE USING JSMOL
 *******************************************************************************
      HTML
      Nitrous oxide and acetylene

  ATOM    CHEMICAL      BOND LENGTH      BOND ANGLE     TWIST ANGLE 
 NUMBER    SYMBOL       (ANGSTROMS)      (DEGREES)       (DEGREES) 
   (I)                     NA:I           NB:NA:I       NC:NB:NA:I       NA    NB    NC 
     1       C          0.00000000       0.0000000       0.0000000        0     0     0
     2       C          1.37494700  *    0.0000000       0.0000000        1     0     0
     3       N          3.19920200  *   98.0100300  *    0.0000000        1     2     0
     4       N          1.25759700  *  117.4190140  *   -0.0005980  *     3     1     2
     5       O          1.39671500  *  110.2524840  *    0.0000310  *     4     3     1
     6       H          1.07168900  *  133.1525510  *  179.9998880  *     1     2     3
     7       H          1.06655700  *  136.3173300  * -179.9994560  *     2     1     3
 


          CARTESIAN COORDINATES 

    NO.       ATOM           X           Y           Z

     1         C          0.0000      0.0000      0.0000
     2         C          1.3749      0.0000      0.0000
     3         N         -0.4458      3.1680      0.0000
     4         N          0.5789      3.8970      0.0000
     5         O          1.7325      3.1096      0.0000
     6         H         -0.7330     -0.7818     -0.0000
     7         H          2.1463     -0.7366     -0.0000

 General Reference for PM7:
 "Optimization of Parameters for Semiempirical Methods VI: More Modifications to the 
 NDDO Approximations and Re-optimization of Parameters", J. J. P. Stewart, J. Mol. Mod., 1:32, 19 (2013)
 https://link.springer.com/article/10.1007/s00894-012-1667-x

           Empirical Formula: C2 H2 N2 O  =     7 atoms



      MOLECULAR POINT GROUP   :   Cs  


      RHF CALCULATION, NO. OF DOUBLY OCCUPIED LEVELS = 13


          Geometry optimization using EF

          DIAGONAL MATRIX USED AS START HESSIAN

 CYCLE:     1 TIME:   0.000 TIME LEFT:  2.00D  GRAD.:   382.050 HEAT:  230.1168
 CYCLE:     2 TIME:   0.012 TIME LEFT:  2.00D  GRAD.:   160.737 HEAT:  180.8319
 CYCLE:     3 TIME:   0.000 TIME LEFT:  2.00D  GRAD.:   182.140 HEAT:  145.5106
 CYCLE:     4 TIME:   0.000 TIME LEFT:  2.00D  GRAD.:   242.157 HEAT:  115.3192
 CYCLE:     5 TIME:   0.020 TIME LEFT:  2.00D  GRAD.:    65.267 HEAT:  83.12685
 CYCLE:     6 TIME:   0.000 TIME LEFT:  2.00D  GRAD.:    72.657 HEAT:  74.16570
 CYCLE:     7 TIME:   0.000 TIME LEFT:  2.00D  GRAD.:    38.490 HEAT:  73.23246
 CYCLE:     8 TIME:   0.000 TIME LEFT:  2.00D  GRAD.:    13.414 HEAT:  72.81523
 CYCLE:     9 TIME:   0.000 TIME LEFT:  2.00D  GRAD.:     8.730 HEAT:  72.67173
 CYCLE:    10 TIME:   0.000 TIME LEFT:  2.00D  GRAD.:    11.330 HEAT:  72.44663
 CYCLE:    11 TIME:   0.016 TIME LEFT:  2.00D  GRAD.:     4.482 HEAT:  72.41247
 CYCLE:    12 TIME:   0.000 TIME LEFT:  2.00D  GRAD.:     3.138 HEAT:  72.40384
 CYCLE:    13 TIME:   0.000 TIME LEFT:  2.00D  GRAD.:     1.808 HEAT:  72.40040
 CYCLE:    14 TIME:   0.000 TIME LEFT:  2.00D  GRAD.:     4.857 HEAT:  72.38399
 CYCLE:    15 TIME:   0.000 TIME LEFT:  2.00D  GRAD.:     6.175 HEAT:  72.36782
 CYCLE:    16 TIME:   0.012 TIME LEFT:  2.00D  GRAD.:    12.313 HEAT:  72.33988
 CYCLE:    17 TIME:   0.000 TIME LEFT:  2.00D  GRAD.:    10.698 HEAT:  72.30906
 CYCLE:    18 TIME:   0.000 TIME LEFT:  2.00D  GRAD.:     2.665 HEAT:  72.27741
 CYCLE:    19 TIME:   0.000 TIME LEFT:  2.00D  GRAD.:     4.793 HEAT:  72.26633
 CYCLE:    20 TIME:   0.000 TIME LEFT:  2.00D  GRAD.:     4.401 HEAT:  72.24404
 CYCLE:    21 TIME:   0.000 TIME LEFT:  2.00D  GRAD.:     1.324 HEAT:  72.16238
 CYCLE:    22 TIME:   0.020 TIME LEFT:  2.00D  GRAD.:     1.114 HEAT:  72.13378
 CYCLE:    23 TIME:   0.000 TIME LEFT:  2.00D  GRAD.:     0.738 HEAT:  72.10949

     GRADIENT =  0.73786 IS LESS THAN CUTOFF =  1.00000



 -------------------------------------------------------------------------------
 HTML
      Nitrous oxide and acetylene



     GEOMETRY OPTIMISED USING EIGENVECTOR FOLLOWING (EF).     
     SCF FIELD WAS ACHIEVED                                   


                              PM7 CALCULATION
                                                       MOPAC2016 (Version: 21.153W)
                                                       Sat Jun  5 15:29:50 2021
                                                       No. of days remaining = 362




          FINAL HEAT OF FORMATION =         72.10951 KCAL/MOL =     301.70619 KJ/MOL


          TOTAL ENERGY            =       -936.38372 EV
          ELECTRONIC ENERGY       =      -2462.96139 EV  POINT GROUP:     Cs  
          CORE-CORE REPULSION     =       1526.57768 EV
          COSMO AREA              =        120.56 SQUARE ANGSTROMS
          COSMO VOLUME            =        100.63 CUBIC ANGSTROMS

          GRADIENT NORM           =          0.73786 = 0.27888 PER ATOM
          IONIZATION POTENTIAL    =         11.656735 EV
          HOMO LUMO ENERGIES (EV) =        -11.657  0.068
          NO. OF FILLED LEVELS    =         13
          MOLECULAR WEIGHT        =         70.0506

          MOLECULAR DIMENSIONS (Angstroms)

            Atom       Atom       Distance
            H     7    N     3     4.86740
            H     6    O     5     4.19074
            H     6    H     7     0.00001


          SCF CALCULATIONS        =         27
 
          WALL-CLOCK TIME         =          0.113 SECONDS
          COMPUTATION TIME        =          0.109 SECONDS




  ATOM               CHEMICAL                 BOND LENGTH      BOND ANGLE     TWIST ANGLE 
 NUMBER               SYMBOL                  (ANGSTROMS)      (DEGREES)       (DEGREES) 
   (I)                                           NA:I           NB:NA:I       NC:NB:NA:I       NA    NB    NC 
     1       C(HETATM    1  C1  HET A   1)    0.00000000       0.0000000       0.0000000   
     2       C(HETATM    2  C2  HET A   1)    1.20884112  *    0.0000000       0.0000000        1     0     0
     3       N(HETATM    3  N1  HET B   2)    3.35740344  *  119.6306654  *    0.0000000        1     2     0
     4       N(HETATM    4  N2  HET B   2)    1.13065472  *   98.5384724  *   -0.0004248  *     3     1     2
     5       O(HETATM    5  O   HET B   2)    1.17916935  *  179.7490703  *    0.0000372  *     4     3     1
     6       H(HETATM    6  H1  HET A   1)    1.03124742  *  179.9483424  *  179.9999734  *     1     2     3
     7       H(HETATM    7  H2  HET A   1)    1.02929093  *  179.8089541  *    0.0006251  *     2     1     3

                             CARTESIAN COORDINATES

   1    C        0.000000000     0.000000000     0.000000000
   2    C        1.208841124     0.000000000     0.000000000
   3    N       -1.659924298     2.918357274     0.000000000
   4    N       -0.771014993     3.617084939     0.000008289
   5    O        0.159218539     4.341726874     0.000016936
   6    H       -1.031247003    -0.000929768    -0.000000000
   7    H        2.238126329     0.003432041     0.000000037


           Empirical Formula: C2 H2 N2 O  =     7 atoms



      MOLECULAR POINT GROUP   :   Cs  


                  EIGENVALUES  
 -42.47214 -34.34013 -26.40499 -23.08035 -19.77142 -18.48942 -18.48328 -16.50282
 -15.81124 -11.93352 -11.92475 -11.65911 -11.65673   0.06784   0.17093   0.17800
   1.45897   1.46969   5.30867   5.39419   6.39393   6.88367


              NET ATOMIC CHARGES AND DIPOLE CONTRIBUTIONS

  ATOM NO.                 TYPE                        CHARGE      No. of ELECS.   s-Pop       p-Pop       
    1          C(HETATM    1  C1  HET A   1)          -0.182165        4.1822     1.14574     3.03643
    2          C(HETATM    2  C2  HET A   1)          -0.191850        4.1919     1.14253     3.04932
    3          N(HETATM    3  N1  HET B   2)          -0.241702        5.2417     1.87640     3.36530
    4          N(HETATM    4  N2  HET B   2)           0.509493        4.4905     1.44699     3.04351
    5          O(HETATM    5  O   HET B   2)          -0.267765        6.2678     1.93641     4.33136
    6          H(HETATM    6  H1  HET A   1)           0.189812        0.8102     0.81019
    7          H(HETATM    7  H2  HET A   1)           0.184177        0.8158     0.81582
 DIPOLE           X         Y         Z       TOTAL
 POINT-CHG.    -0.239    -0.118    -0.000     0.266
 HYBRID         0.629     0.470     0.000     0.785
 SUM            0.390     0.352     0.000     0.525


          ATOMIC ORBITAL ELECTRON POPULATIONS

                   Atom                  s        px        py        pz   
   C(HETATM    1  C1  HET A   1)   1.14574   1.04355   0.99682   0.99607
   C(HETATM    2  C2  HET A   1)   1.14253   1.04215   1.00323   1.00394
   N(HETATM    3  N1  HET B   2)   1.87640   1.02427   1.10327   1.23776
   N(HETATM    4  N2  HET B   2)   1.44699   0.99708   1.01172   1.03471
   O(HETATM    5  O   HET B   2)   1.93641   1.19659   1.40724   1.72753
   H(HETATM    6  H1  HET A   1)   0.81019
   H(HETATM    7  H2  HET A   1)   0.81582

 **********************
 *                    *
 * JOB ENDED NORMALLY *
 *                    *
 **********************



 TOTAL JOB TIME:             0.12 SECONDS

 == MOPAC DONE ==
