 *******************************************************************************
 ** Site#: 37037        For non-commercial use only           Version 21.153W **
 *******************************************************************************
 ** Cite this program as: MOPAC2016, Version: 21.153W, James J. P. Stewart,   **
 ** Stewart Computational Chemistry, web: HTTP://OpenMOPAC.net. Days left: 362**
 *******************************************************************************
 **                                                                           **
 **                                MOPAC2016                                  **
 **                                                                           **
 *******************************************************************************

                              PM7 CALCULATION RESULTS

 *******************************************************************************
 *  CALCULATION DONE:                                Sat Jun  5 15:36:10 2021  *
 *  GEO-OK     - OVERRIDE INTERATOMIC DISTANCE AND OTHER SAFETY CHECKS
 *  GEO_DAT    - DATA SET GEOMETRY IS IN FILE "Locate-TS Nitrous_oxide and acetylene bias=20.0 first.mop"
 *  GEO_REF    - REFERENCE GEOMETRY IS IN FILE "Locate-TS Nitrous_oxide and acetylene bias=20.0 second.mop"
 *               (NO BIAS TOWARDS THE REFERENCE GEOMETRY WILL BE APPLIED)
 *  OPT        - OPTIMIZE COORDINATES OF ALL ATOMS
 *  XYZ        - CARTESIAN COORDINATE SYSTEM TO BE USED
 *  SADDLE     - TRANSITION STATE TO BE OPTIMIZED
 *  T=         - A TIME OF 172800.0 SECONDS REQUESTED
 *  DUMP=N     - RESTART FILE WRITTEN EVERY 7200.0 SECONDS REQUESTED
 *  HTML       - WRITE HTML SCRIPT TO READ PDB FILE USING JSMOL
 *******************************************************************************
GEO_DAT="Locate-TS Nitrous_oxide and acetylene bias=20.0 first.mop" geo_ref="Locate-TS Nitrous_oxide and acetylene bias=20.0 second.mop" saddle html GEO-OK OPT XYZ
       Nitrous_oxide and acetylene

   ATOM                 CHEMICAL                   X               Y               Z
  NUMBER                 SYMBOL               (ANGSTROMS)     (ANGSTROMS)     (ANGSTROMS)
 
     1       C(HETATM    1  C1  HET A   1)    0.15995211  *  -0.55551626  *  -0.00001483  *
     2       C(HETATM    2  C2  HET A   1)    1.32772626  *  -0.85516628  *  -0.00000995  *
     3       N(HETATM    3  N1  HET B   2)   -0.44685657  *   1.67328227  *   0.00001599  *
     4       N(HETATM    4  N2  HET B   2)    0.61543797  *   2.05609880  *   0.00002462  *
     5       O(HETATM    5  O   HET B   2)    1.72974865  *   2.43254498  *   0.00003115  *
     6       H(HETATM    6  H1  HET A   1)   -0.85787471  *  -0.41644493  *  -0.00001700  *
     7       H(HETATM    7  H2  HET A   1)    2.31789143  *  -1.09097929  *  -0.00000517  *
 

                        After docking

                     Atoms that move a lot

                     Atom Label             GEO_REF Coordinates       Movement    Integral

            (HETATM    5  O   HET B   2)   1.795   1.321   0.000        1.11         1.11
            (HETATM    2  C2  HET A   1)   1.385  -0.017  -0.000        0.84         1.95
            (HETATM    1  C1  HET A   1)   0.010  -0.007  -0.000        0.57         2.52
            (HETATM    7  H2  HET A   1)   2.154  -0.783  -0.000        0.35         2.87
            (HETATM    6  H1  HET A   1)  -0.762  -0.736   0.000        0.34         3.21
            (HETATM    3  N1  HET B   2)  -0.378   1.367  -0.000        0.32         3.53
            (HETATM    4  N2  HET B   2)   0.643   2.098   0.000        0.0468       3.57

     Residues that move a lot and their (Movement in Angstroms, per atom)


   Difference between GEO_DAT and GEO_REF: 3.574 = total,  0.5105 = Average,  0.6097 = RMS, in Angstroms

 General Reference for PM7:
 "Optimization of Parameters for Semiempirical Methods VI: More Modifications to the 
 NDDO Approximations and Re-optimization of Parameters", J. J. P. Stewart, J. Mol. Mod., 1:32, 19 (2013)
 https://link.springer.com/article/10.1007/s00894-012-1667-x

           Empirical Formula: C2 H2 N2 O  =     7 atoms



      MOLECULAR POINT GROUP   :   Cs  


      RHF CALCULATION, NO. OF DOUBLY OCCUPIED LEVELS = 13



  CARTESIAN GEOMETRY OF FIRST SYSTEM


   1    C          0.01024      -0.00659      -0.00001
   2    C          1.38515      -0.01739      -0.00001
   3    N         -0.37849       1.36708      -0.00003
   4    N          0.64264       2.09848       0.00003
   5    O          1.79476       1.32126       0.00009
   6    H         -0.76242      -0.73610       0.00000
   7    H          2.15414      -0.78291      -0.00005


  CARTESIAN GEOMETRY OF SECOND SYSTEM


   1    C          0.15572      -0.55329      -0.00001
   2    C          1.32224      -0.85780      -0.00001
   3    N         -0.44182       1.67801       0.00002
   4    N          0.62206       2.05640       0.00002
   5    O          1.73793       2.42821       0.00003
   6    H         -0.86152      -0.40999      -0.00002
   7    H          2.31141      -1.09773      -0.00001


   "DISTANCE":     1.612995


  REACTION COORDINATE VECTOR


   1    C         -0.14548       0.54670       0.00001
   2    C          0.06292       0.84040       0.00000
   3    N          0.06333      -0.31093      -0.00005
   4    N          0.02058       0.04207       0.00001
   5    O          0.05683      -1.10695       0.00006
   6    H          0.09910      -0.32611       0.00002
   7    H         -0.15727       0.31482      -0.00004
 *+*+*+*+*+*+*+*+*+*+*+*+*+*+*+*+*+*+*+*+*+*+*+*+*+*+*+*+*+*+*+*+*+*+*+*+*+*+*+*+
            BAR SHORTENED BY       0.000 PERCENT
 GRADIENT CRITERION IN FLEPO =     1.000


          FOR POINT    1 SECOND STRUCTURE
 DISTANCE A - B      1.612995
 HEAT               49.565263
 GRADIENT NORM      35.088358
 DIRECTION COSINE   -0.000000
 html GEO-OK OPT XYZ
       Nitrous_oxide and acetylene

  C(HETATM    1  C1  HET A   1)   0.01178599 +1  -0.00752656 +1  -0.00091363 +1
  C(HETATM    2  C2  HET A   1)   1.38065175 +1  -0.01875042 +1  -0.00089285 +1
  N(HETATM    3  N1  HET B   2)  -0.37648749 +1   1.36912599 +1  -0.00183065 +1
  N(HETATM    4  N2  HET B   2)   0.64704980 +1   2.09506977 +1  -0.00277479 +1
  O(HETATM    5  O   HET B   2)   1.79503077 +1   1.32335244 +1  -0.00175292 +1
  H(HETATM    6  H1  HET A   1)  -0.76605924 +1  -0.73745520 +1  -0.00047503 +1
  H(HETATM    7  H2  HET A   1)   2.15076004 +1  -0.76937076 +1   0.00009527 +1
 
 TIME=     0.03
  REACTANTS AND PRODUCTS SWAPPED AROUND
 *+*+*+*+*+*+*+*+*+*+*+*+*+*+*+*+*+*+*+*+*+*+*+*+*+*+*+*+*+*+*+*+*+*+*+*+*+*+*+*+
            BAR SHORTENED BY       1.000 PERCENT
 GRADIENT CRITERION IN FLEPO =    10.000


          FOR POINT    2 FIRST  STRUCTURE
 DISTANCE A - B      1.596865
 HEAT               86.434717
 GRADIENT NORM      18.237062
 DIRECTION COSINE    0.403584
 html GEO-OK OPT XYZ
       Nitrous_oxide and acetylene

  C(HETATM    1  C1  HET A   1)   0.13248149 +1  -0.74383828 +1  -0.00131108 +1
  C(HETATM    2  C2  HET A   1)   1.33821275 +1  -0.82973353 +1  -0.00775835 +1
  N(HETATM    3  N1  HET B   2)  -0.51379090 +1   1.97955098 +1   0.00539511 +1
  N(HETATM    4  N2  HET B   2)   0.60275617 +1   2.15358131 +1  -0.00179048 +1
  O(HETATM    5  O   HET B   2)   1.77802945 +1   2.24943440 +1  -0.01432311 +1
  H(HETATM    6  H1  HET A   1)  -0.88949131 +1  -0.68228178 +1  -0.00936462 +1
  H(HETATM    7  H2  HET A   1)   2.37659717 +1  -0.86512235 +1   0.01427029 +1
 
 TIME=     0.02
  REACTANTS AND PRODUCTS SWAPPED AROUND
 *+*+*+*+*+*+*+*+*+*+*+*+*+*+*+*+*+*+*+*+*+*+*+*+*+*+*+*+*+*+*+*+*+*+*+*+*+*+*+*+
            BAR SHORTENED BY       1.000 PERCENT
 GRADIENT CRITERION IN FLEPO =    10.000


          FOR POINT    3 SECOND STRUCTURE
 DISTANCE A - B      1.580897
 HEAT               50.183335
 GRADIENT NORM      56.128601
 DIRECTION COSINE    0.594900
 html GEO-OK OPT XYZ
       Nitrous_oxide and acetylene

  C(HETATM    1  C1  HET A   1)   0.01376318 +1  -0.01561764 +1  -0.00101226 +1
  C(HETATM    2  C2  HET A   1)   1.37963433 +1  -0.02473851 +1  -0.00050656 +1
  N(HETATM    3  N1  HET B   2)  -0.37795883 +1   1.38559293 +1   0.00007184 +1
  N(HETATM    4  N2  HET B   2)   0.64700627 +1   2.09773313 +1  -0.00081960 +1
  O(HETATM    5  O   HET B   2)   1.79259875 +1   1.32831707 +1  -0.00279689 +1
  H(HETATM    6  H1  HET A   1)  -0.77206380 +1  -0.74694043 +1  -0.00441478 +1
  H(HETATM    7  H2  HET A   1)   2.16081009 +1  -0.74284825 +1   0.03414873 +1
 
 *+*+*+*+*+*+*+*+*+*+*+*+*+*+*+*+*+*+*+*+*+*+*+*+*+*+*+*+*+*+*+*+*+*+*+*+*+*+*+*+
            BAR SHORTENED BY       1.000 PERCENT
 GRADIENT CRITERION IN FLEPO =    10.000


          FOR POINT    4 SECOND STRUCTURE
 DISTANCE A - B      1.565088
 HEAT               51.028014
 GRADIENT NORM      68.001410
 DIRECTION COSINE    0.970278
 html GEO-OK OPT XYZ
       Nitrous_oxide and acetylene

  C(HETATM    1  C1  HET A   1)   0.01339599 +1  -0.02416898 +1  -0.00280195 +1
  C(HETATM    2  C2  HET A   1)   1.37612853 +1  -0.03001174 +1   0.00169907 +1
  N(HETATM    3  N1  HET B   2)  -0.38093328 +1   1.38837185 +1  -0.00649707 +1
  N(HETATM    4  N2  HET B   2)   0.64827804 +1   2.10063205 +1  -0.00658471 +1
  O(HETATM    5  O   HET B   2)   1.78950401 +1   1.33968012 +1  -0.00424838 +1
  H(HETATM    6  H1  HET A   1)  -0.77758390 +1  -0.75666935 +1  -0.00305486 +1
  H(HETATM    7  H2  HET A   1)   2.16702983 +1  -0.74662327 +1   0.02779742 +1
 
 *+*+*+*+*+*+*+*+*+*+*+*+*+*+*+*+*+*+*+*+*+*+*+*+*+*+*+*+*+*+*+*+*+*+*+*+*+*+*+*+
            BAR SHORTENED BY       1.000 PERCENT
 GRADIENT CRITERION IN FLEPO =    10.000


          FOR POINT    5 SECOND STRUCTURE
 DISTANCE A - B      1.549437
 HEAT               52.064719
 GRADIENT NORM      79.109090
 DIRECTION COSINE    0.980089
 html GEO-OK OPT XYZ
       Nitrous_oxide and acetylene

  C(HETATM    1  C1  HET A   1)   0.01576619 +1  -0.03283185 +1   0.00033025 +1
  C(HETATM    2  C2  HET A   1)   1.37419792 +1  -0.03647619 +1   0.00754766 +1
  N(HETATM    3  N1  HET B   2)  -0.38075531 +1   1.38613956 +1  -0.00470725 +1
  N(HETATM    4  N2  HET B   2)   0.64326809 +1   2.10828276 +1  -0.00770772 +1
  O(HETATM    5  O   HET B   2)   1.78634388 +1   1.35157166 +1  -0.00304022 +1
  H(HETATM    6  H1  HET A   1)  -0.78021380 +1  -0.74936464 +1  -0.00487909 +1
  H(HETATM    7  H2  HET A   1)   2.17411153 +1  -0.74986009 +1   0.02102237 +1
 
 TIME=     0.03
  REACTANTS AND PRODUCTS SWAPPED AROUND
 *+*+*+*+*+*+*+*+*+*+*+*+*+*+*+*+*+*+*+*+*+*+*+*+*+*+*+*+*+*+*+*+*+*+*+*+*+*+*+*+
            BAR SHORTENED BY       0.000 PERCENT
 GRADIENT CRITERION IN FLEPO =    10.000


          FOR POINT    6 FIRST  STRUCTURE
 DISTANCE A - B      1.549437
 HEAT               86.119280
 GRADIENT NORM      13.353693
 DIRECTION COSINE    0.488484
 html GEO-OK OPT XYZ
       Nitrous_oxide and acetylene

  C(HETATM    1  C1  HET A   1)   0.13650355 +1  -0.75824683 +1  -0.00772261 +1
  C(HETATM    2  C2  HET A   1)   1.34343836 +1  -0.81376285 +1  -0.00025978 +1
  N(HETATM    3  N1  HET B   2)  -0.51694391 +1   2.00538413 +1   0.00741687 +1
  N(HETATM    4  N2  HET B   2)   0.60731002 +1   2.13487686 +1  -0.00212615 +1
  O(HETATM    5  O   HET B   2)   1.77950701 +1   2.23584083 +1  -0.01250904 +1
  H(HETATM    6  H1  HET A   1)  -0.89446557 +1  -0.69867457 +1  -0.01250383 +1
  H(HETATM    7  H2  HET A   1)   2.36890547 +1  -0.87021347 +1   0.00271581 +1
 
 TIME=     0.02
  REACTANTS AND PRODUCTS SWAPPED AROUND
 *+*+*+*+*+*+*+*+*+*+*+*+*+*+*+*+*+*+*+*+*+*+*+*+*+*+*+*+*+*+*+*+*+*+*+*+*+*+*+*+
            BAR SHORTENED BY       1.000 PERCENT
 GRADIENT CRITERION IN FLEPO =    10.000


          FOR POINT    7 SECOND STRUCTURE
 DISTANCE A - B      1.533943
 HEAT               53.346241
 GRADIENT NORM      91.945816
 DIRECTION COSINE    0.557809
 html GEO-OK OPT XYZ
       Nitrous_oxide and acetylene

  C(HETATM    1  C1  HET A   1)   0.01867168 +1  -0.03809899 +1  -0.00149269 +1
  C(HETATM    2  C2  HET A   1)   1.37231830 +1  -0.04200828 +1   0.00550238 +1
  N(HETATM    3  N1  HET B   2)  -0.38039965 +1   1.39372712 +1  -0.00266600 +1
  N(HETATM    4  N2  HET B   2)   0.64103623 +1   2.10679133 +1  -0.00484705 +1
  O(HETATM    5  O   HET B   2)   1.78396684 +1   1.36171265 +1  -0.00123011 +1
  H(HETATM    6  H1  HET A   1)  -0.78350631 +1  -0.75064588 +1  -0.00702743 +1
  H(HETATM    7  H2  HET A   1)   2.17896758 +1  -0.75279920 +1  -0.00110261 +1
 
 *+*+*+*+*+*+*+*+*+*+*+*+*+*+*+*+*+*+*+*+*+*+*+*+*+*+*+*+*+*+*+*+*+*+*+*+*+*+*+*+
            BAR SHORTENED BY       1.000 PERCENT
 GRADIENT CRITERION IN FLEPO =    10.000


          FOR POINT    8 SECOND STRUCTURE
 DISTANCE A - B      1.518603
 HEAT               54.690249
 GRADIENT NORM      99.583597
 DIRECTION COSINE    0.989227
 html GEO-OK OPT XYZ
       Nitrous_oxide and acetylene

  C(HETATM    1  C1  HET A   1)   0.02114646 +1  -0.04535048 +1   0.00012364 +1
  C(HETATM    2  C2  HET A   1)   1.37489636 +1  -0.04976248 +1   0.00279667 +1
  N(HETATM    3  N1  HET B   2)  -0.38330611 +1   1.39642452 +1   0.00084673 +1
  N(HETATM    4  N2  HET B   2)   0.64211631 +1   2.10887389 +1  -0.00034017 +1
  O(HETATM    5  O   HET B   2)   1.78126769 +1   1.36711954 +1  -0.00003114 +1
  H(HETATM    6  H1  HET A   1)  -0.78885140 +1  -0.74820209 +1  -0.00837942 +1
  H(HETATM    7  H2  HET A   1)   2.20292991 +1  -0.75516582 +1   0.00157440 +1
 
 *+*+*+*+*+*+*+*+*+*+*+*+*+*+*+*+*+*+*+*+*+*+*+*+*+*+*+*+*+*+*+*+*+*+*+*+*+*+*+*+
            BAR SHORTENED BY       1.000 PERCENT
 GRADIENT CRITERION IN FLEPO =    10.000


          FOR POINT    9 SECOND STRUCTURE
 DISTANCE A - B      1.503417
 HEAT               56.198899
 GRADIENT NORM     108.292009
 DIRECTION COSINE    0.995797
 html GEO-OK OPT XYZ
       Nitrous_oxide and acetylene

  C(HETATM    1  C1  HET A   1)   0.02507625 +1  -0.05293909 +1   0.00146926 +1
  C(HETATM    2  C2  HET A   1)   1.37706727 +1  -0.06139591 +1   0.00084355 +1
  N(HETATM    3  N1  HET B   2)  -0.38362537 +1   1.39350984 +1   0.00354679 +1
  N(HETATM    4  N2  HET B   2)   0.63913475 +1   2.11121041 +1   0.00092844 +1
  O(HETATM    5  O   HET B   2)   1.77883949 +1   1.37677861 +1  -0.00266919 +1
  H(HETATM    6  H1  HET A   1)  -0.79309448 +1  -0.74448083 +1  -0.00592051 +1
  H(HETATM    7  H2  HET A   1)   2.21059196 +1  -0.75279208 +1   0.00319691 +1
 
 TIME=     0.02
  REACTANTS AND PRODUCTS SWAPPED AROUND
 *+*+*+*+*+*+*+*+*+*+*+*+*+*+*+*+*+*+*+*+*+*+*+*+*+*+*+*+*+*+*+*+*+*+*+*+*+*+*+*+
            BAR SHORTENED BY       0.000 PERCENT
 GRADIENT CRITERION IN FLEPO =    10.000


          FOR POINT   10 FIRST  STRUCTURE
 DISTANCE A - B      1.503417
 HEAT               86.067608
 GRADIENT NORM       9.623105
 DIRECTION COSINE    0.722227
 html GEO-OK OPT XYZ
       Nitrous_oxide and acetylene

  C(HETATM    1  C1  HET A   1)   0.13648990 +1  -0.76004410 +1  -0.00492148 +1
  C(HETATM    2  C2  HET A   1)   1.34351485 +1  -0.81551244 +1  -0.00063979 +1
  N(HETATM    3  N1  HET B   2)  -0.51709236 +1   2.01070531 +1   0.00950447 +1
  N(HETATM    4  N2  HET B   2)   0.60644009 +1   2.13485895 +1   0.00004898 +1
  O(HETATM    5  O   HET B   2)   1.78114070 +1   2.22923093 +1  -0.01249732 +1
  H(HETATM    6  H1  HET A   1)  -0.89407589 +1  -0.71419765 +1  -0.01244172 +1
  H(HETATM    7  H2  HET A   1)   2.37468588 +1  -0.86558847 +1   0.00361041 +1
 
 TIME=     0.00
  REACTANTS AND PRODUCTS SWAPPED AROUND
 *+*+*+*+*+*+*+*+*+*+*+*+*+*+*+*+*+*+*+*+*+*+*+*+*+*+*+*+*+*+*+*+*+*+*+*+*+*+*+*+
            BAR SHORTENED BY       1.000 PERCENT
 GRADIENT CRITERION IN FLEPO =     6.623


          FOR POINT   11 SECOND STRUCTURE
 DISTANCE A - B      1.488383
 HEAT               57.791599
 GRADIENT NORM     116.606746
 DIRECTION COSINE    0.763391
 html GEO-OK OPT XYZ
       Nitrous_oxide and acetylene

  C(HETATM    1  C1  HET A   1)   0.03583788 +1  -0.06599461 +1   0.00018497 +1
  C(HETATM    2  C2  HET A   1)   1.38621332 +1  -0.06581726 +1  -0.00178507 +1
  N(HETATM    3  N1  HET B   2)  -0.38455285 +1   1.39749092 +1   0.00466958 +1
  N(HETATM    4  N2  HET B   2)   0.63657530 +1   2.11104202 +1   0.00052823 +1
  O(HETATM    5  O   HET B   2)   1.77682934 +1   1.38266867 +1  -0.00394217 +1
  H(HETATM    6  H1  HET A   1)  -0.79773791 +1  -0.74749485 +1  -0.00743284 +1
  H(HETATM    7  H2  HET A   1)   2.23295103 +1  -0.73449420 +1   0.00071368 +1
 
 *+*+*+*+*+*+*+*+*+*+*+*+*+*+*+*+*+*+*+*+*+*+*+*+*+*+*+*+*+*+*+*+*+*+*+*+*+*+*+*+
            BAR SHORTENED BY       1.000 PERCENT
 GRADIENT CRITERION IN FLEPO =    10.000


          FOR POINT   12 SECOND STRUCTURE
 DISTANCE A - B      1.473499
 HEAT               59.533861
 GRADIENT NORM     124.075770
 DIRECTION COSINE    0.997294
 html GEO-OK OPT XYZ
       Nitrous_oxide and acetylene

  C(HETATM    1  C1  HET A   1)   0.03872421 +1  -0.07603415 +1  -0.00160362 +1
  C(HETATM    2  C2  HET A   1)   1.38395785 +1  -0.07320358 +1  -0.00334743 +1
  N(HETATM    3  N1  HET B   2)  -0.38449401 +1   1.39385768 +1   0.00243149 +1
  N(HETATM    4  N2  HET B   2)   0.63401383 +1   2.10977206 +1  -0.00135313 +1
  O(HETATM    5  O   HET B   2)   1.77504475 +1   1.39525162 +1  -0.00958390 +1
  H(HETATM    6  H1  HET A   1)  -0.79698808 +1  -0.74934781 +1  -0.00587679 +1
  H(HETATM    7  H2  HET A   1)   2.23673198 +1  -0.73805192 +1   0.00230774 +1
 
 *+*+*+*+*+*+*+*+*+*+*+*+*+*+*+*+*+*+*+*+*+*+*+*+*+*+*+*+*+*+*+*+*+*+*+*+*+*+*+*+
            BAR SHORTENED BY       1.000 PERCENT
 GRADIENT CRITERION IN FLEPO =    10.000


          FOR POINT   13 SECOND STRUCTURE
 DISTANCE A - B      1.458764
 HEAT               61.419299
 GRADIENT NORM     132.354757
 DIRECTION COSINE    0.998672
 html GEO-OK OPT XYZ
       Nitrous_oxide and acetylene

  C(HETATM    1  C1  HET A   1)   0.03970187 +1  -0.08287425 +1  -0.00163680 +1
  C(HETATM    2  C2  HET A   1)   1.38355342 +1  -0.08062667 +1  -0.00332036 +1
  N(HETATM    3  N1  HET B   2)  -0.38581999 +1   1.40002616 +1   0.00250222 +1
  N(HETATM    4  N2  HET B   2)   0.63373810 +1   2.11002293 +1  -0.00133911 +1
  O(HETATM    5  O   HET B   2)   1.77510571 +1   1.40359141 +1  -0.00961304 +1
  H(HETATM    6  H1  HET A   1)  -0.79795896 +1  -0.74899631 +1  -0.00594244 +1
  H(HETATM    7  H2  HET A   1)   2.23811151 +1  -0.73932729 +1   0.00232077 +1
 
 TIME=     0.03
  REACTANTS AND PRODUCTS SWAPPED AROUND
 *+*+*+*+*+*+*+*+*+*+*+*+*+*+*+*+*+*+*+*+*+*+*+*+*+*+*+*+*+*+*+*+*+*+*+*+*+*+*+*+
            BAR SHORTENED BY       0.000 PERCENT
 GRADIENT CRITERION IN FLEPO =    10.000


          FOR POINT   14 FIRST  STRUCTURE
 DISTANCE A - B      1.458764
 HEAT               86.067608
 GRADIENT NORM       9.623249
 DIRECTION COSINE    0.754454
 html GEO-OK OPT XYZ
       Nitrous_oxide and acetylene

  C(HETATM    1  C1  HET A   1)   0.13648990 +1  -0.76004410 +1  -0.00492148 +1
  C(HETATM    2  C2  HET A   1)   1.34351485 +1  -0.81551244 +1  -0.00063979 +1
  N(HETATM    3  N1  HET B   2)  -0.51709236 +1   2.01070531 +1   0.00950447 +1
  N(HETATM    4  N2  HET B   2)   0.60644009 +1   2.13485895 +1   0.00004898 +1
  O(HETATM    5  O   HET B   2)   1.78114070 +1   2.22923093 +1  -0.01249732 +1
  H(HETATM    6  H1  HET A   1)  -0.89407589 +1  -0.71419765 +1  -0.01244172 +1
  H(HETATM    7  H2  HET A   1)   2.37468588 +1  -0.86558847 +1   0.00361041 +1
 
 TIME=     0.00
  REACTANTS AND PRODUCTS SWAPPED AROUND
 *+*+*+*+*+*+*+*+*+*+*+*+*+*+*+*+*+*+*+*+*+*+*+*+*+*+*+*+*+*+*+*+*+*+*+*+*+*+*+*+
            BAR SHORTENED BY       1.000 PERCENT
 GRADIENT CRITERION IN FLEPO =     6.623


          FOR POINT   15 SECOND STRUCTURE
 DISTANCE A - B      1.444176
 HEAT               63.319716
 GRADIENT NORM     137.537479
 DIRECTION COSINE    0.759646
 html GEO-OK OPT XYZ
       Nitrous_oxide and acetylene

  C(HETATM    1  C1  HET A   1)   0.04261546 +1  -0.08706336 +1   0.00014259 +1
  C(HETATM    2  C2  HET A   1)   1.38468571 +1  -0.08910618 +1  -0.00171755 +1
  N(HETATM    3  N1  HET B   2)  -0.38837030 +1   1.40273126 +1   0.00434368 +1
  N(HETATM    4  N2  HET B   2)   0.62602602 +1   2.11243391 +1  -0.00276411 +1
  O(HETATM    5  O   HET B   2)   1.77236815 +1   1.41325773 +1  -0.00751795 +1
  H(HETATM    6  H1  HET A   1)  -0.80093335 +1  -0.75060320 +1  -0.00773392 +1
  H(HETATM    7  H2  HET A   1)   2.24557709 +1  -0.74391615 +1   0.00060580 +1
 
 *+*+*+*+*+*+*+*+*+*+*+*+*+*+*+*+*+*+*+*+*+*+*+*+*+*+*+*+*+*+*+*+*+*+*+*+*+*+*+*+
            BAR SHORTENED BY       1.000 PERCENT
 GRADIENT CRITERION IN FLEPO =    10.000


          FOR POINT   16 SECOND STRUCTURE
 DISTANCE A - B      1.429735
 HEAT               65.311776
 GRADIENT NORM     141.541840
 DIRECTION COSINE    0.994732
 html GEO-OK OPT XYZ
       Nitrous_oxide and acetylene

  C(HETATM    1  C1  HET A   1)   0.04470703 +1  -0.09756922 +1   0.00166124 +1
  C(HETATM    2  C2  HET A   1)   1.38307504 +1  -0.09935889 +1  -0.00033577 +1
  N(HETATM    3  N1  HET B   2)  -0.39063706 +1   1.40331841 +1   0.00284624 +1
  N(HETATM    4  N2  HET B   2)   0.62745971 +1   2.11451494 +1  -0.00096185 +1
  O(HETATM    5  O   HET B   2)   1.76979128 +1   1.41907319 +1  -0.00269079 +1
  H(HETATM    6  H1  HET A   1)  -0.80344419 +1  -0.75196779 +1  -0.00620309 +1
  H(HETATM    7  H2  HET A   1)   2.24817941 +1  -0.74607463 +1   0.00243809 +1
 
 *+*+*+*+*+*+*+*+*+*+*+*+*+*+*+*+*+*+*+*+*+*+*+*+*+*+*+*+*+*+*+*+*+*+*+*+*+*+*+*+
            BAR SHORTENED BY       1.000 PERCENT
 GRADIENT CRITERION IN FLEPO =    10.000


          FOR POINT   17 SECOND STRUCTURE
 DISTANCE A - B      1.415437
 HEAT               67.370620
 GRADIENT NORM     147.002985
 DIRECTION COSINE    0.999050
 html GEO-OK OPT XYZ
       Nitrous_oxide and acetylene

  C(HETATM    1  C1  HET A   1)   0.04562486 +1  -0.10419397 +1   0.00159542 +1
  C(HETATM    2  C2  HET A   1)   1.38267944 +1  -0.10652042 +1  -0.00033881 +1
  N(HETATM    3  N1  HET B   2)  -0.39190161 +1   1.40939228 +1   0.00291282 +1
  N(HETATM    4  N2  HET B   2)   0.62724952 +1   2.11471838 +1  -0.00095174 +1
  O(HETATM    5  O   HET B   2)   1.76990477 +1   1.42717477 +1  -0.00278885 +1
  H(HETATM    6  H1  HET A   1)  -0.80435050 +1  -0.75159009 +1  -0.00626548 +1
  H(HETATM    7  H2  HET A   1)   2.24944448 +1  -0.74726977 +1   0.00244982 +1
 
 TIME=     0.02
  REACTANTS AND PRODUCTS SWAPPED AROUND
 *+*+*+*+*+*+*+*+*+*+*+*+*+*+*+*+*+*+*+*+*+*+*+*+*+*+*+*+*+*+*+*+*+*+*+*+*+*+*+*+
            BAR SHORTENED BY       0.000 PERCENT
 GRADIENT CRITERION IN FLEPO =    10.000


          FOR POINT   18 FIRST  STRUCTURE
 DISTANCE A - B      1.415437
 HEAT               86.067608
 GRADIENT NORM       9.623250
 DIRECTION COSINE    0.773999
 html GEO-OK OPT XYZ
       Nitrous_oxide and acetylene

  C(HETATM    1  C1  HET A   1)   0.13648990 +1  -0.76004410 +1  -0.00492148 +1
  C(HETATM    2  C2  HET A   1)   1.34351485 +1  -0.81551244 +1  -0.00063979 +1
  N(HETATM    3  N1  HET B   2)  -0.51709236 +1   2.01070531 +1   0.00950447 +1
  N(HETATM    4  N2  HET B   2)   0.60644009 +1   2.13485895 +1   0.00004898 +1
  O(HETATM    5  O   HET B   2)   1.78114070 +1   2.22923093 +1  -0.01249732 +1
  H(HETATM    6  H1  HET A   1)  -0.89407589 +1  -0.71419765 +1  -0.01244172 +1
  H(HETATM    7  H2  HET A   1)   2.37468588 +1  -0.86558847 +1   0.00361041 +1
 
 TIME=     0.00
  REACTANTS AND PRODUCTS SWAPPED AROUND
 *+*+*+*+*+*+*+*+*+*+*+*+*+*+*+*+*+*+*+*+*+*+*+*+*+*+*+*+*+*+*+*+*+*+*+*+*+*+*+*+
            BAR SHORTENED BY       1.000 PERCENT
 GRADIENT CRITERION IN FLEPO =     6.623


          FOR POINT   19 SECOND STRUCTURE
 DISTANCE A - B      1.401283
 HEAT               69.390176
 GRADIENT NORM     146.568113
 DIRECTION COSINE    0.754453
 html GEO-OK OPT XYZ
       Nitrous_oxide and acetylene

  C(HETATM    1  C1  HET A   1)   0.04636913 +1  -0.10554921 +1   0.00008996 +1
  C(HETATM    2  C2  HET A   1)   1.38301269 +1  -0.11900299 +1  -0.00241808 +1
  N(HETATM    3  N1  HET B   2)  -0.39018417 +1   1.39485567 +1   0.00313123 +1
  N(HETATM    4  N2  HET B   2)   0.61715098 +1   2.11477170 +1  -0.00125789 +1
  O(HETATM    5  O   HET B   2)   1.76322251 +1   1.44926569 +1  -0.00426764 +1
  H(HETATM    6  H1  HET A   1)  -0.80986149 +1  -0.75170797 +1  -0.00799805 +1
  H(HETATM    7  H2  HET A   1)   2.25667737 +1  -0.75035686 +1   0.00392360 +1
 
 *+*+*+*+*+*+*+*+*+*+*+*+*+*+*+*+*+*+*+*+*+*+*+*+*+*+*+*+*+*+*+*+*+*+*+*+*+*+*+*+
            BAR SHORTENED BY       1.000 PERCENT
 GRADIENT CRITERION IN FLEPO =    10.000


          FOR POINT   20 SECOND STRUCTURE
 DISTANCE A - B      1.387270
 HEAT               71.438370
 GRADIENT NORM     150.338003
 DIRECTION COSINE    0.995292
 html GEO-OK OPT XYZ
       Nitrous_oxide and acetylene

  C(HETATM    1  C1  HET A   1)   0.04938624 +1  -0.11418367 +1  -0.00026213 +1
  C(HETATM    2  C2  HET A   1)   1.38162294 +1  -0.12670813 +1  -0.00109234 +1
  N(HETATM    3  N1  HET B   2)  -0.39358307 +1   1.40195747 +1   0.00508509 +1
  N(HETATM    4  N2  HET B   2)   0.61103940 +1   2.11720332 +1   0.00138921 +1
  O(HETATM    5  O   HET B   2)   1.76406893 +1   1.45254981 +1  -0.00586046 +1
  H(HETATM    6  H1  HET A   1)  -0.81326853 +1  -0.75296463 +1  -0.00809752 +1
  H(HETATM    7  H2  HET A   1)   2.25984948 +1  -0.75211104 +1   0.00209831 +1
 
 *+*+*+*+*+*+*+*+*+*+*+*+*+*+*+*+*+*+*+*+*+*+*+*+*+*+*+*+*+*+*+*+*+*+*+*+*+*+*+*+
            BAR SHORTENED BY       1.000 PERCENT
 GRADIENT CRITERION IN FLEPO =    10.000


          FOR POINT   21 SECOND STRUCTURE
 DISTANCE A - B      1.373397
 HEAT               73.498612
 GRADIENT NORM     151.040546
 DIRECTION COSINE    0.996889
 html GEO-OK OPT XYZ
       Nitrous_oxide and acetylene

  C(HETATM    1  C1  HET A   1)   0.05091629 +1  -0.11983990 +1  -0.00021489 +1
  C(HETATM    2  C2  HET A   1)   1.38081825 +1  -0.13598397 +1  -0.00096857 +1
  N(HETATM    3  N1  HET B   2)  -0.39605383 +1   1.40480582 +1   0.00492311 +1
  N(HETATM    4  N2  HET B   2)   0.61263736 +1   2.11897746 +1  -0.00030004 +1
  O(HETATM    5  O   HET B   2)   1.75908497 +1   1.46064638 +1  -0.00565315 +1
  H(HETATM    6  H1  HET A   1)  -0.81672485 +1  -0.75219707 +1  -0.00827094 +1
  H(HETATM    7  H2  HET A   1)   2.26279116 +1  -0.75350055 +1   0.00186869 +1
 
 TIME=     0.03
  REACTANTS AND PRODUCTS SWAPPED AROUND
 *+*+*+*+*+*+*+*+*+*+*+*+*+*+*+*+*+*+*+*+*+*+*+*+*+*+*+*+*+*+*+*+*+*+*+*+*+*+*+*+
            BAR SHORTENED BY       0.000 PERCENT
 GRADIENT CRITERION IN FLEPO =    10.000


          FOR POINT   22 FIRST  STRUCTURE
 DISTANCE A - B      1.373397
 HEAT               86.067608
 GRADIENT NORM       9.623250
 DIRECTION COSINE    0.765268
 html GEO-OK OPT XYZ
       Nitrous_oxide and acetylene

  C(HETATM    1  C1  HET A   1)   0.13648990 +1  -0.76004410 +1  -0.00492148 +1
  C(HETATM    2  C2  HET A   1)   1.34351485 +1  -0.81551244 +1  -0.00063979 +1
  N(HETATM    3  N1  HET B   2)  -0.51709236 +1   2.01070531 +1   0.00950447 +1
  N(HETATM    4  N2  HET B   2)   0.60644009 +1   2.13485895 +1   0.00004898 +1
  O(HETATM    5  O   HET B   2)   1.78114070 +1   2.22923093 +1  -0.01249732 +1
  H(HETATM    6  H1  HET A   1)  -0.89407589 +1  -0.71419765 +1  -0.01244172 +1
  H(HETATM    7  H2  HET A   1)   2.37468588 +1  -0.86558847 +1   0.00361041 +1
 
 TIME=     0.00
  REACTANTS AND PRODUCTS SWAPPED AROUND
 *+*+*+*+*+*+*+*+*+*+*+*+*+*+*+*+*+*+*+*+*+*+*+*+*+*+*+*+*+*+*+*+*+*+*+*+*+*+*+*+
            BAR SHORTENED BY       1.000 PERCENT
 GRADIENT CRITERION IN FLEPO =     6.623


          FOR POINT   23 SECOND STRUCTURE
 DISTANCE A - B      1.359663
 HEAT               75.577473
 GRADIENT NORM     152.151065
 DIRECTION COSINE    0.772034
 html GEO-OK OPT XYZ
       Nitrous_oxide and acetylene

  C(HETATM    1  C1  HET A   1)   0.05218240 +1  -0.12514009 +1  -0.00048470 +1
  C(HETATM    2  C2  HET A   1)   1.37954632 +1  -0.14579492 +1  -0.00133586 +1
  N(HETATM    3  N1  HET B   2)  -0.39764446 +1   1.40760552 +1   0.00452980 +1
  N(HETATM    4  N2  HET B   2)   0.61182985 +1   2.12060037 +1  -0.00001894 +1
  O(HETATM    5  O   HET B   2)   1.75933067 +1   1.46848035 +1  -0.00630043 +1
  H(HETATM    6  H1  HET A   1)  -0.81842657 +1  -0.75112944 +1  -0.00831787 +1
  H(HETATM    7  H2  HET A   1)   2.26591521 +1  -0.75519729 +1   0.00187960 +1
 
 *+*+*+*+*+*+*+*+*+*+*+*+*+*+*+*+*+*+*+*+*+*+*+*+*+*+*+*+*+*+*+*+*+*+*+*+*+*+*+*+
            BAR SHORTENED BY       1.000 PERCENT
 GRADIENT CRITERION IN FLEPO =    10.000


          FOR POINT   24 SECOND STRUCTURE
 DISTANCE A - B      1.346067
 HEAT               77.661297
 GRADIENT NORM     154.524270
 DIRECTION COSINE    0.999193
 html GEO-OK OPT XYZ
       Nitrous_oxide and acetylene

  C(HETATM    1  C1  HET A   1)   0.05302548 +1  -0.13148913 +1  -0.00052907 +1
  C(HETATM    2  C2  HET A   1)   1.37918600 +1  -0.15249210 +1  -0.00132890 +1
  N(HETATM    3  N1  HET B   2)  -0.39883894 +1   1.41363652 +1   0.00457954 +1
  N(HETATM    4  N2  HET B   2)   0.61177595 +1   2.12074295 +1  -0.00001826 +1
  O(HETATM    5  O   HET B   2)   1.75954877 +1   1.47608786 +1  -0.00636240 +1
  H(HETATM    6  H1  HET A   1)  -0.81918306 +1  -0.75076012 +1  -0.00835911 +1
  H(HETATM    7  H2  HET A   1)   2.26700291 +1  -0.75630121 +1   0.00189691 +1
 
 *+*+*+*+*+*+*+*+*+*+*+*+*+*+*+*+*+*+*+*+*+*+*+*+*+*+*+*+*+*+*+*+*+*+*+*+*+*+*+*+
            BAR SHORTENED BY       1.000 PERCENT
 GRADIENT CRITERION IN FLEPO =    10.000


          FOR POINT   25 SECOND STRUCTURE
 DISTANCE A - B      1.332606
 HEAT               79.703493
 GRADIENT NORM     152.958596
 DIRECTION COSINE    0.998748
 html GEO-OK OPT XYZ
       Nitrous_oxide and acetylene

  C(HETATM    1  C1  HET A   1)   0.05498016 +1  -0.13435237 +1  -0.00041841 +1
  C(HETATM    2  C2  HET A   1)   1.37738618 +1  -0.16467517 +1  -0.00182714 +1
  N(HETATM    3  N1  HET B   2)  -0.39355651 +1   1.41453646 +1   0.00432619 +1
  N(HETATM    4  N2  HET B   2)   0.61196632 +1   2.12493016 +1  -0.00247559 +1
  O(HETATM    5  O   HET B   2)   1.75853342 +1   1.48575383 +1  -0.00661288 +1
  H(HETATM    6  H1  HET A   1)  -0.82183871 +1  -0.75091384 +1  -0.00845504 +1
  H(HETATM    7  H2  HET A   1)   2.27091817 +1  -0.75858840 +1   0.00174077 +1
 
 TIME=     0.02
  REACTANTS AND PRODUCTS SWAPPED AROUND
 *+*+*+*+*+*+*+*+*+*+*+*+*+*+*+*+*+*+*+*+*+*+*+*+*+*+*+*+*+*+*+*+*+*+*+*+*+*+*+*+
            BAR SHORTENED BY       0.000 PERCENT
 GRADIENT CRITERION IN FLEPO =    10.000


          FOR POINT   26 FIRST  STRUCTURE
 DISTANCE A - B      1.332606
 HEAT               86.067608
 GRADIENT NORM       9.623250
 DIRECTION COSINE    0.776577
 html GEO-OK OPT XYZ
       Nitrous_oxide and acetylene

  C(HETATM    1  C1  HET A   1)   0.13648990 +1  -0.76004410 +1  -0.00492148 +1
  C(HETATM    2  C2  HET A   1)   1.34351485 +1  -0.81551244 +1  -0.00063979 +1
  N(HETATM    3  N1  HET B   2)  -0.51709236 +1   2.01070531 +1   0.00950447 +1
  N(HETATM    4  N2  HET B   2)   0.60644009 +1   2.13485895 +1   0.00004898 +1
  O(HETATM    5  O   HET B   2)   1.78114070 +1   2.22923093 +1  -0.01249732 +1
  H(HETATM    6  H1  HET A   1)  -0.89407589 +1  -0.71419765 +1  -0.01244172 +1
  H(HETATM    7  H2  HET A   1)   2.37468588 +1  -0.86558847 +1   0.00361041 +1
 
 TIME=     0.00
  REACTANTS AND PRODUCTS SWAPPED AROUND
 *+*+*+*+*+*+*+*+*+*+*+*+*+*+*+*+*+*+*+*+*+*+*+*+*+*+*+*+*+*+*+*+*+*+*+*+*+*+*+*+
            BAR SHORTENED BY       1.000 PERCENT
 GRADIENT CRITERION IN FLEPO =     6.623


          FOR POINT   27 SECOND STRUCTURE
 DISTANCE A - B      1.319280
 HEAT               81.708667
 GRADIENT NORM     151.922381
 DIRECTION COSINE    0.775024
 html GEO-OK OPT XYZ
       Nitrous_oxide and acetylene

  C(HETATM    1  C1  HET A   1)   0.05613509 +1  -0.13656838 +1  -0.00134849 +1
  C(HETATM    2  C2  HET A   1)   1.37615704 +1  -0.17251914 +1  -0.00161413 +1
  N(HETATM    3  N1  HET B   2)  -0.39550262 +1   1.41605413 +1   0.00292542 +1
  N(HETATM    4  N2  HET B   2)   0.61282481 +1   2.12620903 +1  -0.00171692 +1
  O(HETATM    5  O   HET B   2)   1.75870246 +1   1.49813485 +1  -0.00722740 +1
  H(HETATM    6  H1  HET A   1)  -0.82428572 +1  -0.74690171 +1  -0.00840210 +1
  H(HETATM    7  H2  HET A   1)   2.27384900 +1  -0.76030646 +1   0.00168034 +1
 
 *+*+*+*+*+*+*+*+*+*+*+*+*+*+*+*+*+*+*+*+*+*+*+*+*+*+*+*+*+*+*+*+*+*+*+*+*+*+*+*+
            BAR SHORTENED BY       1.000 PERCENT
 GRADIENT CRITERION IN FLEPO =    10.000


          FOR POINT   28 SECOND STRUCTURE
 DISTANCE A - B      1.306087
 HEAT               83.718501
 GRADIENT NORM     153.000151
 DIRECTION COSINE    0.999236
 html GEO-OK OPT XYZ
       Nitrous_oxide and acetylene

  C(HETATM    1  C1  HET A   1)   0.05693864 +1  -0.14280313 +1  -0.00138422 +1
  C(HETATM    2  C2  HET A   1)   1.37583062 +1  -0.17894908 +1  -0.00160439 +1
  N(HETATM    3  N1  HET B   2)  -0.39671851 +1   1.42200064 +1   0.00299121 +1
  N(HETATM    4  N2  HET B   2)   0.61276096 +1   2.12629553 +1  -0.00169926 +1
  O(HETATM    5  O   HET B   2)   1.75892684 +1   1.50544581 +1  -0.00728009 +1
  H(HETATM    6  H1  HET A   1)  -0.82498362 +1  -0.74657467 +1  -0.00844250 +1
  H(HETATM    7  H2  HET A   1)   2.27485737 +1  -0.76135928 +1   0.00169964 +1
 
 *+*+*+*+*+*+*+*+*+*+*+*+*+*+*+*+*+*+*+*+*+*+*+*+*+*+*+*+*+*+*+*+*+*+*+*+*+*+*+*+
            BAR SHORTENED BY       1.000 PERCENT
 GRADIENT CRITERION IN FLEPO =    10.000


          FOR POINT   29 SECOND STRUCTURE
 DISTANCE A - B      1.293026
 HEAT               85.666525
 GRADIENT NORM     151.016498
 DIRECTION COSINE    0.998359
 html GEO-OK OPT XYZ
       Nitrous_oxide and acetylene

  C(HETATM    1  C1  HET A   1)   0.05943191 +1  -0.14536960 +1   0.00046089 +1
  C(HETATM    2  C2  HET A   1)   1.37367870 +1  -0.18825847 +1  -0.00334464 +1
  N(HETATM    3  N1  HET B   2)  -0.39939903 +1   1.42393047 +1   0.00495935 +1
  N(HETATM    4  N2  HET B   2)   0.60730686 +1   2.12852158 +1   0.00013746 +1
  O(HETATM    5  O   HET B   2)   1.75366262 +1   1.51550672 +1  -0.00557057 +1
  H(HETATM    6  H1  HET A   1)  -0.82750357 +1  -0.74813500 +1  -0.01024853 +1
  H(HETATM    7  H2  HET A   1)   2.27763948 +1  -0.76394601 +1   0.00346542 +1
 
 TIME=     0.02
  REACTANTS AND PRODUCTS SWAPPED AROUND
 *+*+*+*+*+*+*+*+*+*+*+*+*+*+*+*+*+*+*+*+*+*+*+*+*+*+*+*+*+*+*+*+*+*+*+*+*+*+*+*+
            BAR SHORTENED BY       0.000 PERCENT
 GRADIENT CRITERION IN FLEPO =    10.000


          FOR POINT   30 FIRST  STRUCTURE
 DISTANCE A - B      1.293026
 HEAT               86.067608
 GRADIENT NORM       9.623250
 DIRECTION COSINE    0.773678
 html GEO-OK OPT XYZ
       Nitrous_oxide and acetylene

  C(HETATM    1  C1  HET A   1)   0.13648990 +1  -0.76004410 +1  -0.00492148 +1
  C(HETATM    2  C2  HET A   1)   1.34351485 +1  -0.81551244 +1  -0.00063979 +1
  N(HETATM    3  N1  HET B   2)  -0.51709236 +1   2.01070531 +1   0.00950447 +1
  N(HETATM    4  N2  HET B   2)   0.60644009 +1   2.13485895 +1   0.00004898 +1
  O(HETATM    5  O   HET B   2)   1.78114070 +1   2.22923093 +1  -0.01249732 +1
  H(HETATM    6  H1  HET A   1)  -0.89407589 +1  -0.71419765 +1  -0.01244172 +1
  H(HETATM    7  H2  HET A   1)   2.37468588 +1  -0.86558847 +1   0.00361041 +1
 
 TIME=     0.02
  REACTANTS AND PRODUCTS SWAPPED AROUND
 *+*+*+*+*+*+*+*+*+*+*+*+*+*+*+*+*+*+*+*+*+*+*+*+*+*+*+*+*+*+*+*+*+*+*+*+*+*+*+*+
            BAR SHORTENED BY       1.000 PERCENT
 GRADIENT CRITERION IN FLEPO =     6.623


          FOR POINT   31 SECOND STRUCTURE
 DISTANCE A - B      1.280096
 HEAT               87.551768
 GRADIENT NORM     147.710871
 DIRECTION COSINE    0.791787
 html GEO-OK OPT XYZ
       Nitrous_oxide and acetylene

  C(HETATM    1  C1  HET A   1)   0.05996632 +1  -0.14451465 +1  -0.00199524 +1
  C(HETATM    2  C2  HET A   1)   1.37270420 +1  -0.20326434 +1  -0.00196362 +1
  N(HETATM    3  N1  HET B   2)  -0.40024428 +1   1.42174450 +1   0.00292147 +1
  N(HETATM    4  N2  HET B   2)   0.60805246 +1   2.13068781 +1  -0.00188296 +1
  O(HETATM    5  O   HET B   2)   1.75513050 +1   1.52701905 +1  -0.00735591 +1
  H(HETATM    6  H1  HET A   1)  -0.82913832 +1  -0.73810309 +1  -0.00861227 +1
  H(HETATM    7  H2  HET A   1)   2.28085826 +1  -0.76462475 +1   0.00173896 +1
 
 TIME=     0.00
  REACTANTS AND PRODUCTS SWAPPED AROUND
 *+*+*+*+*+*+*+*+*+*+*+*+*+*+*+*+*+*+*+*+*+*+*+*+*+*+*+*+*+*+*+*+*+*+*+*+*+*+*+*+
            BAR SHORTENED BY       1.000 PERCENT
 GRADIENT CRITERION IN FLEPO =    10.000


          FOR POINT   32 FIRST  STRUCTURE
 DISTANCE A - B      1.267295
 HEAT               86.175272
 GRADIENT NORM      11.362003
 DIRECTION COSINE    0.831533
 html GEO-OK OPT XYZ
       Nitrous_oxide and acetylene

  C(HETATM    1  C1  HET A   1)   0.13572466 +1  -0.75388880 +1  -0.00489222 +1
  C(HETATM    2  C2  HET A   1)   1.34380674 +1  -0.80938996 +1  -0.00065302 +1
  N(HETATM    3  N1  HET B   2)  -0.51592388 +1   2.00481570 +1   0.00943864 +1
  N(HETATM    4  N2  HET B   2)   0.60645621 +1   2.13481724 +1   0.00002966 +1
  O(HETATM    5  O   HET B   2)   1.78088060 +1   2.22220881 +1  -0.01244591 +1
  H(HETATM    6  H1  HET A   1)  -0.89342652 +1  -0.71443670 +1  -0.01240342 +1
  H(HETATM    7  H2  HET A   1)   2.37374760 +1  -0.86457883 +1   0.00359169 +1
 
 *+*+*+*+*+*+*+*+*+*+*+*+*+*+*+*+*+*+*+*+*+*+*+*+*+*+*+*+*+*+*+*+*+*+*+*+*+*+*+*+
            BAR SHORTENED BY       1.000 PERCENT
 GRADIENT CRITERION IN FLEPO =     8.362


          FOR POINT   33 FIRST  STRUCTURE
 DISTANCE A - B      1.254622
 HEAT               86.275733
 GRADIENT NORM      15.328437
 DIRECTION COSINE    0.335098
 html GEO-OK OPT XYZ
       Nitrous_oxide and acetylene

  C(HETATM    1  C1  HET A   1)   0.13682113 +1  -0.74980098 +1  -0.00672308 +1
  C(HETATM    2  C2  HET A   1)   1.34227333 +1  -0.80131516 +1   0.00120852 +1
  N(HETATM    3  N1  HET B   2)  -0.51954999 +1   2.00180691 +1   0.01194787 +1
  N(HETATM    4  N2  HET B   2)   0.60470106 +1   2.13267118 +1   0.00180231 +1
  O(HETATM    5  O   HET B   2)   1.78253934 +1   2.21236798 +1  -0.01034198 +1
  H(HETATM    6  H1  HET A   1)  -0.89471052 +1  -0.71284699 +1  -0.01045566 +1
  H(HETATM    7  H2  HET A   1)   2.37065351 +1  -0.85891950 +1   0.00180379 +1
 
 *+*+*+*+*+*+*+*+*+*+*+*+*+*+*+*+*+*+*+*+*+*+*+*+*+*+*+*+*+*+*+*+*+*+*+*+*+*+*+*+
            BAR SHORTENED BY       1.000 PERCENT
 GRADIENT CRITERION IN FLEPO =    10.000


          FOR POINT   34 FIRST  STRUCTURE
 DISTANCE A - B      1.242076
 HEAT               86.394896
 GRADIENT NORM      13.111181
 DIRECTION COSINE    0.912100
 html GEO-OK OPT XYZ
       Nitrous_oxide and acetylene

  C(HETATM    1  C1  HET A   1)   0.13605258 +1  -0.74374812 +1  -0.00667580 +1
  C(HETATM    2  C2  HET A   1)   1.34257763 +1  -0.79533466 +1   0.00117680 +1
  N(HETATM    3  N1  HET B   2)  -0.51835693 +1   1.99600629 +1   0.01185760 +1
  N(HETATM    4  N2  HET B   2)   0.60473457 +1   2.13265134 +1   0.00176546 +1
  O(HETATM    5  O   HET B   2)   1.78226525 +1   2.20551449 +1  -0.01031212 +1
  H(HETATM    6  H1  HET A   1)  -0.89405480 +1  -0.71309955 +1  -0.01043722 +1
  H(HETATM    7  H2  HET A   1)   2.36975555 +1  -0.85797655 +1   0.00180315 +1
 
 TIME=     0.02
  REACTANTS AND PRODUCTS SWAPPED AROUND
 *+*+*+*+*+*+*+*+*+*+*+*+*+*+*+*+*+*+*+*+*+*+*+*+*+*+*+*+*+*+*+*+*+*+*+*+*+*+*+*+
            BAR SHORTENED BY       0.000 PERCENT
 GRADIENT CRITERION IN FLEPO =    10.000


          FOR POINT   35 SECOND STRUCTURE
 DISTANCE A - B      1.242076
 HEAT               87.551768
 GRADIENT NORM     147.710883
 DIRECTION COSINE    0.792761
 html GEO-OK OPT XYZ
       Nitrous_oxide and acetylene

  C(HETATM    1  C1  HET A   1)   0.05996632 +1  -0.14451465 +1  -0.00199524 +1
  C(HETATM    2  C2  HET A   1)   1.37270420 +1  -0.20326434 +1  -0.00196362 +1
  N(HETATM    3  N1  HET B   2)  -0.40024428 +1   1.42174450 +1   0.00292147 +1
  N(HETATM    4  N2  HET B   2)   0.60805246 +1   2.13068781 +1  -0.00188296 +1
  O(HETATM    5  O   HET B   2)   1.75513050 +1   1.52701905 +1  -0.00735591 +1
  H(HETATM    6  H1  HET A   1)  -0.82913832 +1  -0.73810309 +1  -0.00861227 +1
  H(HETATM    7  H2  HET A   1)   2.28085826 +1  -0.76462475 +1   0.00173896 +1
 
 TIME=     0.00
  REACTANTS AND PRODUCTS SWAPPED AROUND
 *+*+*+*+*+*+*+*+*+*+*+*+*+*+*+*+*+*+*+*+*+*+*+*+*+*+*+*+*+*+*+*+*+*+*+*+*+*+*+*+
            BAR SHORTENED BY       1.000 PERCENT
 GRADIENT CRITERION IN FLEPO =    10.000


          FOR POINT   36 FIRST  STRUCTURE
 DISTANCE A - B      1.229655
 HEAT               86.535299
 GRADIENT NORM      13.702125
 DIRECTION COSINE    0.886663
 html GEO-OK OPT XYZ
       Nitrous_oxide and acetylene

  C(HETATM    1  C1  HET A   1)   0.13529172 +1  -0.73775578 +1  -0.00662900 +1
  C(HETATM    2  C2  HET A   1)   1.34287890 +1  -0.78941395 +1   0.00114539 +1
  N(HETATM    3  N1  HET B   2)  -0.51717581 +1   1.99026367 +1   0.01176824 +1
  N(HETATM    4  N2  HET B   2)   0.60476775 +1   2.13263171 +1   0.00172897 +1
  O(HETATM    5  O   HET B   2)   1.78199390 +1   2.19872954 +1  -0.01028256 +1
  H(HETATM    6  H1  HET A   1)  -0.89340563 +1  -0.71334958 +1  -0.01041898 +1
  H(HETATM    7  H2  HET A   1)   2.36886658 +1  -0.85704303 +1   0.00180250 +1
 
 *+*+*+*+*+*+*+*+*+*+*+*+*+*+*+*+*+*+*+*+*+*+*+*+*+*+*+*+*+*+*+*+*+*+*+*+*+*+*+*+
            BAR SHORTENED BY       1.000 PERCENT
 GRADIENT CRITERION IN FLEPO =    10.000


          FOR POINT   37 FIRST  STRUCTURE
 DISTANCE A - B      1.217359
 HEAT               86.695920
 GRADIENT NORM      16.638038
 DIRECTION COSINE    0.938998
 html GEO-OK OPT XYZ
       Nitrous_oxide and acetylene

  C(HETATM    1  C1  HET A   1)   0.13453846 +1  -0.73182337 +1  -0.00658266 +1
  C(HETATM    2  C2  HET A   1)   1.34317715 +1  -0.78355246 +1   0.00111430 +1
  N(HETATM    3  N1  HET B   2)  -0.51600649 +1   1.98457848 +1   0.01167977 +1
  N(HETATM    4  N2  HET B   2)   0.60480060 +1   2.13261227 +1   0.00169285 +1
  O(HETATM    5  O   HET B   2)   1.78172527 +1   2.19201243 +1  -0.01025329 +1
  H(HETATM    6  H1  HET A   1)  -0.89276296 +1  -0.71359712 +1  -0.01040091 +1
  H(HETATM    7  H2  HET A   1)   2.36798650 +1  -0.85611885 +1   0.00180187 +1
 
 *+*+*+*+*+*+*+*+*+*+*+*+*+*+*+*+*+*+*+*+*+*+*+*+*+*+*+*+*+*+*+*+*+*+*+*+*+*+*+*+
            BAR SHORTENED BY       1.000 PERCENT
 GRADIENT CRITERION IN FLEPO =    10.000


          FOR POINT   38 FIRST  STRUCTURE
 DISTANCE A - B      1.205185
 HEAT               86.584831
 GRADIENT NORM      16.889952
 DIRECTION COSINE    0.762295
 html GEO-OK OPT XYZ
       Nitrous_oxide and acetylene

  C(HETATM    1  C1  HET A   1)   0.13398516 +1  -0.72867064 +1  -0.00416465 +1
  C(HETATM    2  C2  HET A   1)   1.34342746 +1  -0.76870128 +1   0.00837277 +1
  N(HETATM    3  N1  HET B   2)  -0.51686961 +1   2.01460663 +1   0.01868043 +1
  N(HETATM    4  N2  HET B   2)   0.60865240 +1   2.10786668 +1   0.00895697 +1
  O(HETATM    5  O   HET B   2)   1.78285569 +1   2.16291878 +1  -0.00282498 +1
  H(HETATM    6  H1  HET A   1)  -0.89570041 +1  -0.70665917 +1  -0.00987723 +1
  H(HETATM    7  H2  HET A   1)   2.36863287 +1  -0.79302528 +1   0.00348258 +1
 
 TIME=     0.03
  REACTANTS AND PRODUCTS SWAPPED AROUND
 *+*+*+*+*+*+*+*+*+*+*+*+*+*+*+*+*+*+*+*+*+*+*+*+*+*+*+*+*+*+*+*+*+*+*+*+*+*+*+*+
            BAR SHORTENED BY       0.000 PERCENT
 GRADIENT CRITERION IN FLEPO =    10.000


          FOR POINT   39 SECOND STRUCTURE
 DISTANCE A - B      1.205185
 HEAT               87.394561
 GRADIENT NORM     148.300746
 DIRECTION COSINE    0.610927
 html GEO-OK OPT XYZ
       Nitrous_oxide and acetylene

  C(HETATM    1  C1  HET A   1)   0.05892196 +1  -0.15066595 +1  -0.00284935 +1
  C(HETATM    2  C2  HET A   1)   1.37031390 +1  -0.19962737 +1   0.00285620 +1
  N(HETATM    3  N1  HET B   2)  -0.39894144 +1   1.42285844 +1   0.00607519 +1
  N(HETATM    4  N2  HET B   2)   0.60731983 +1   2.12963761 +1   0.01163325 +1
  O(HETATM    5  O   HET B   2)   1.75586668 +1   1.52380717 +1   0.00109494 +1
  H(HETATM    6  H1  HET A   1)  -0.84417078 +1  -0.73996358 +1  -0.00809944 +1
  H(HETATM    7  H2  HET A   1)   2.28217847 +1  -0.73843734 +1   0.00174086 +1
 
 TIME=     0.00
  REACTANTS AND PRODUCTS SWAPPED AROUND
 *+*+*+*+*+*+*+*+*+*+*+*+*+*+*+*+*+*+*+*+*+*+*+*+*+*+*+*+*+*+*+*+*+*+*+*+*+*+*+*+
            BAR SHORTENED BY       1.000 PERCENT
 GRADIENT CRITERION IN FLEPO =    10.000


          FOR POINT   40 FIRST  STRUCTURE
 DISTANCE A - B      1.193133
 HEAT               86.657421
 GRADIENT NORM      14.141408
 DIRECTION COSINE    0.691009
 html GEO-OK OPT XYZ
       Nitrous_oxide and acetylene

  C(HETATM    1  C1  HET A   1)   0.13503588 +1  -0.72557823 +1  -0.00227470 +1
  C(HETATM    2  C2  HET A   1)   1.34182869 +1  -0.76022181 +1   0.00626098 +1
  N(HETATM    3  N1  HET B   2)  -0.52028444 +1   2.01059670 +1   0.02085131 +1
  N(HETATM    4  N2  HET B   2)   0.60681987 +1   2.10998388 +1   0.01101244 +1
  O(HETATM    5  O   HET B   2)   1.78459949 +1   2.15343638 +1  -0.00077238 +1
  H(HETATM    6  H1  HET A   1)  -0.89704407 +1  -0.70908744 +1  -0.01162137 +1
  H(HETATM    7  H2  HET A   1)   2.36973586 +1  -0.79029015 +1   0.00575171 +1
 
 *+*+*+*+*+*+*+*+*+*+*+*+*+*+*+*+*+*+*+*+*+*+*+*+*+*+*+*+*+*+*+*+*+*+*+*+*+*+*+*+
            BAR SHORTENED BY       1.000 PERCENT
 GRADIENT CRITERION IN FLEPO =    10.000


          FOR POINT   41 FIRST  STRUCTURE
 DISTANCE A - B      1.181202
 HEAT               86.788152
 GRADIENT NORM      13.648145
 DIRECTION COSINE    0.895865
 html GEO-OK OPT XYZ
       Nitrous_oxide and acetylene

  C(HETATM    1  C1  HET A   1)   0.13427474 +1  -0.71982911 +1  -0.00228044 +1
  C(HETATM    2  C2  HET A   1)   1.34211354 +1  -0.75461587 +1   0.00622693 +1
  N(HETATM    3  N1  HET B   2)  -0.51907101 +1   2.00471932 +1   0.02070355 +1
  N(HETATM    4  N2  HET B   2)   0.60682487 +1   2.11018041 +1   0.01101865 +1
  O(HETATM    5  O   HET B   2)   1.78431216 +1   2.14714009 +1  -0.00075370 +1
  H(HETATM    6  H1  HET A   1)  -0.89651534 +1  -0.70939620 +1  -0.01158615 +1
  H(HETATM    7  H2  HET A   1)   2.36886028 +1  -0.78977162 +1   0.00571160 +1
 
 *+*+*+*+*+*+*+*+*+*+*+*+*+*+*+*+*+*+*+*+*+*+*+*+*+*+*+*+*+*+*+*+*+*+*+*+*+*+*+*+
            BAR SHORTENED BY       1.000 PERCENT
 GRADIENT CRITERION IN FLEPO =    10.000


          FOR POINT   42 FIRST  STRUCTURE
 DISTANCE A - B      1.169390
 HEAT               86.939258
 GRADIENT NORM      15.819409
 DIRECTION COSINE    0.921948
 html GEO-OK OPT XYZ
       Nitrous_oxide and acetylene

  C(HETATM    1  C1  HET A   1)   0.13352121 +1  -0.71413748 +1  -0.00228613 +1
  C(HETATM    2  C2  HET A   1)   1.34239554 +1  -0.74906598 +1   0.00619322 +1
  N(HETATM    3  N1  HET B   2)  -0.51786971 +1   1.99890071 +1   0.02055727 +1
  N(HETATM    4  N2  HET B   2)   0.60682982 +1   2.11037499 +1   0.01102480 +1
  O(HETATM    5  O   HET B   2)   1.78402770 +1   2.14090676 +1  -0.00073522 +1
  H(HETATM    6  H1  HET A   1)  -0.89599190 +1  -0.70970187 +1  -0.01155129 +1
  H(HETATM    7  H2  HET A   1)   2.36799346 +1  -0.78925828 +1   0.00567190 +1
 
 TIME=     0.02
  REACTANTS AND PRODUCTS SWAPPED AROUND
 *+*+*+*+*+*+*+*+*+*+*+*+*+*+*+*+*+*+*+*+*+*+*+*+*+*+*+*+*+*+*+*+*+*+*+*+*+*+*+*+
            BAR SHORTENED BY       0.000 PERCENT
 GRADIENT CRITERION IN FLEPO =    10.000


          FOR POINT   43 SECOND STRUCTURE
 DISTANCE A - B      1.169390
 HEAT               87.329831
 GRADIENT NORM     148.818387
 DIRECTION COSINE    0.856164
 html GEO-OK OPT XYZ
       Nitrous_oxide and acetylene

  C(HETATM    1  C1  HET A   1)   0.05602960 +1  -0.15372566 +1  -0.00308144 +1
  C(HETATM    2  C2  HET A   1)   1.36729777 +1  -0.19688091 +1   0.00159840 +1
  N(HETATM    3  N1  HET B   2)  -0.39899465 +1   1.42596166 +1   0.00911136 +1
  N(HETATM    4  N2  HET B   2)   0.61052204 +1   2.12923466 +1   0.01022489 +1
  O(HETATM    5  O   HET B   2)   1.75537383 +1   1.52061708 +1   0.00261892 +1
  H(HETATM    6  H1  HET A   1)  -0.84117248 +1  -0.73755962 +1  -0.01358930 +1
  H(HETATM    7  H2  HET A   1)   2.28754220 +1  -0.73346365 +1   0.00412997 +1
 
 TIME=     0.00
  REACTANTS AND PRODUCTS SWAPPED AROUND
 *+*+*+*+*+*+*+*+*+*+*+*+*+*+*+*+*+*+*+*+*+*+*+*+*+*+*+*+*+*+*+*+*+*+*+*+*+*+*+*+
            BAR SHORTENED BY       1.000 PERCENT
 GRADIENT CRITERION IN FLEPO =    10.000


          FOR POINT   44 FIRST  STRUCTURE
 DISTANCE A - B      1.157696
 HEAT               87.061558
 GRADIENT NORM      18.529499
 DIRECTION COSINE    0.667678
 html GEO-OK OPT XYZ
       Nitrous_oxide and acetylene

  C(HETATM    1  C1  HET A   1)   0.13442108 +1  -0.71064419 +1  -0.00426344 +1
  C(HETATM    2  C2  HET A   1)   1.34088542 +1  -0.74066766 +1   0.00388359 +1
  N(HETATM    3  N1  HET B   2)  -0.52177653 +1   1.99567108 +1   0.02279509 +1
  N(HETATM    4  N2  HET B   2)   0.60519951 +1   2.10683445 +1   0.01292146 +1
  O(HETATM    5  O   HET B   2)   1.78558797 +1   2.13122636 +1   0.00135849 +1
  H(HETATM    6  H1  HET A   1)  -0.89727259 +1  -0.70761101 +1  -0.00970745 +1
  H(HETATM    7  H2  HET A   1)   2.36906238 +1  -0.78545764 +1   0.00776219 +1
 
 *+*+*+*+*+*+*+*+*+*+*+*+*+*+*+*+*+*+*+*+*+*+*+*+*+*+*+*+*+*+*+*+*+*+*+*+*+*+*+*+
            BAR SHORTENED BY       1.000 PERCENT
 GRADIENT CRITERION IN FLEPO =    10.000


          FOR POINT   45 FIRST  STRUCTURE
 DISTANCE A - B      1.146119
 HEAT               87.218994
 GRADIENT NORM      17.260979
 DIRECTION COSINE    0.943112
 html GEO-OK OPT XYZ
       Nitrous_oxide and acetylene

  C(HETATM    1  C1  HET A   1)   0.13363716 +1  -0.70507501 +1  -0.00425162 +1
  C(HETATM    2  C2  HET A   1)   1.34114954 +1  -0.73522979 +1   0.00386074 +1
  N(HETATM    3  N1  HET B   2)  -0.52054871 +1   1.98997399 +1   0.02265826 +1
  N(HETATM    4  N2  HET B   2)   0.60525273 +1   2.10705845 +1   0.01289450 +1
  O(HETATM    5  O   HET B   2)   1.78528583 +1   2.12512026 +1   0.00137109 +1
  H(HETATM    6  H1  HET A   1)  -0.89671159 +1  -0.70791049 +1  -0.00974627 +1
  H(HETATM    7  H2  HET A   1)   2.36824718 +1  -0.78493770 +1   0.00772587 +1
 
 *+*+*+*+*+*+*+*+*+*+*+*+*+*+*+*+*+*+*+*+*+*+*+*+*+*+*+*+*+*+*+*+*+*+*+*+*+*+*+*+
            BAR SHORTENED BY       1.000 PERCENT
 GRADIENT CRITERION IN FLEPO =    10.000


          FOR POINT   46 FIRST  STRUCTURE
 DISTANCE A - B      1.134658
 HEAT               87.395454
 GRADIENT NORM      18.075144
 DIRECTION COSINE    0.943172
 html GEO-OK OPT XYZ
       Nitrous_oxide and acetylene

  C(HETATM    1  C1  HET A   1)   0.13286109 +1  -0.69956151 +1  -0.00423992 +1
  C(HETATM    2  C2  HET A   1)   1.34141102 +1  -0.72984630 +1   0.00383811 +1
  N(HETATM    3  N1  HET B   2)  -0.51933317 +1   1.98433386 +1   0.02252279 +1
  N(HETATM    4  N2  HET B   2)   0.60530542 +1   2.10728022 +1   0.01286780 +1
  O(HETATM    5  O   HET B   2)   1.78498671 +1   2.11907523 +1   0.00138357 +1
  H(HETATM    6  H1  HET A   1)  -0.89615620 +1  -0.70820698 +1  -0.00978470 +1
  H(HETATM    7  H2  HET A   1)   2.36744013 +1  -0.78442296 +1   0.00768991 +1
 
 TIME=     0.02
  REACTANTS AND PRODUCTS SWAPPED AROUND
 *+*+*+*+*+*+*+*+*+*+*+*+*+*+*+*+*+*+*+*+*+*+*+*+*+*+*+*+*+*+*+*+*+*+*+*+*+*+*+*+
            BAR SHORTENED BY       0.000 PERCENT
 GRADIENT CRITERION IN FLEPO =    10.000


          FOR POINT   47 SECOND STRUCTURE
 DISTANCE A - B      1.134658
 HEAT               87.329831
 GRADIENT NORM     148.818914
 DIRECTION COSINE    0.888483
 html GEO-OK OPT XYZ
       Nitrous_oxide and acetylene

  C(HETATM    1  C1  HET A   1)   0.05602960 +1  -0.15372566 +1  -0.00308144 +1
  C(HETATM    2  C2  HET A   1)   1.36729777 +1  -0.19688091 +1   0.00159840 +1
  N(HETATM    3  N1  HET B   2)  -0.39899465 +1   1.42596166 +1   0.00911136 +1
  N(HETATM    4  N2  HET B   2)   0.61052204 +1   2.12923466 +1   0.01022489 +1
  O(HETATM    5  O   HET B   2)   1.75537383 +1   1.52061708 +1   0.00261892 +1
  H(HETATM    6  H1  HET A   1)  -0.84117248 +1  -0.73755962 +1  -0.01358930 +1
  H(HETATM    7  H2  HET A   1)   2.28754220 +1  -0.73346365 +1   0.00412997 +1
 
 *+*+*+*+*+*+*+*+*+*+*+*+*+*+*+*+*+*+*+*+*+*+*+*+*+*+*+*+*+*+*+*+*+*+*+*+*+*+*+*+
            BAR SHORTENED BY       1.000 PERCENT
 GRADIENT CRITERION IN FLEPO =    10.000


          FOR POINT   48 SECOND STRUCTURE
 DISTANCE A - B      1.123311
 HEAT               89.016687
 GRADIENT NORM     148.748999
 DIRECTION COSINE    0.999367
 html GEO-OK OPT XYZ
       Nitrous_oxide and acetylene

  C(HETATM    1  C1  HET A   1)   0.05679792 +1  -0.15918402 +1  -0.00309303 +1
  C(HETATM    2  C2  HET A   1)   1.36703890 +1  -0.20221057 +1   0.00162080 +1
  N(HETATM    3  N1  HET B   2)  -0.40019804 +1   1.43154538 +1   0.00924547 +1
  N(HETATM    4  N2  HET B   2)   0.61046987 +1   2.12901511 +1   0.01025132 +1
  O(HETATM    5  O   HET B   2)   1.75566996 +1   1.52660166 +1   0.00260656 +1
  H(HETATM    6  H1  HET A   1)  -0.84172231 +1  -0.73726609 +1  -0.01355125 +1
  H(HETATM    7  H2  HET A   1)   2.28834118 +1  -0.73397324 +1   0.00416557 +1
 
 TIME=     0.02
  REACTANTS AND PRODUCTS SWAPPED AROUND
 *+*+*+*+*+*+*+*+*+*+*+*+*+*+*+*+*+*+*+*+*+*+*+*+*+*+*+*+*+*+*+*+*+*+*+*+*+*+*+*+
            BAR SHORTENED BY       1.000 PERCENT
 GRADIENT CRITERION IN FLEPO =    10.000


          FOR POINT   49 FIRST  STRUCTURE
 DISTANCE A - B      1.112078
 HEAT               87.587967
 GRADIENT NORM      20.564787
 DIRECTION COSINE    0.869789
 html GEO-OK OPT XYZ
       Nitrous_oxide and acetylene

  C(HETATM    1  C1  HET A   1)   0.13210045 +1  -0.69415774 +1  -0.00422845 +1
  C(HETATM    2  C2  HET A   1)   1.34166730 +1  -0.72456994 +1   0.00381594 +1
  N(HETATM    3  N1  HET B   2)  -0.51814182 +1   1.97880598 +1   0.02239001 +1
  N(HETATM    4  N2  HET B   2)   0.60535707 +1   2.10749757 +1   0.01284163 +1
  O(HETATM    5  O   HET B   2)   1.78469354 +1   2.11315050 +1   0.00139580 +1
  H(HETATM    6  H1  HET A   1)  -0.89561186 +1  -0.70849757 +1  -0.00982236 +1
  H(HETATM    7  H2  HET A   1)   2.36664914 +1  -0.78391846 +1   0.00765466 +1
 
 *+*+*+*+*+*+*+*+*+*+*+*+*+*+*+*+*+*+*+*+*+*+*+*+*+*+*+*+*+*+*+*+*+*+*+*+*+*+*+*+
            BAR SHORTENED BY       1.000 PERCENT
 GRADIENT CRITERION IN FLEPO =    10.000


          FOR POINT   50 FIRST  STRUCTURE
 DISTANCE A - B      1.100957
 HEAT               87.481405
 GRADIENT NORM      17.589958
 DIRECTION COSINE    0.818632
 html GEO-OK OPT XYZ
       Nitrous_oxide and acetylene

  C(HETATM    1  C1  HET A   1)   0.13176887 +1  -0.69308126 +1  -0.00219897 +1
  C(HETATM    2  C2  HET A   1)   1.34128164 +1  -0.71078595 +1   0.00445241 +1
  N(HETATM    3  N1  HET B   2)  -0.51801381 +1   1.99370814 +1   0.02789196 +1
  N(HETATM    4  N2  HET B   2)   0.60831229 +1   2.07257942 +1   0.01903352 +1
  O(HETATM    5  O   HET B   2)   1.78495124 +1   2.08894077 +1   0.00932951 +1
  H(HETATM    6  H1  HET A   1)  -0.89792902 +1  -0.69353749 +1  -0.01423263 +1
  H(HETATM    7  H2  HET A   1)   2.36741543 +1  -0.74557999 +1   0.00731641 +1
 
 *+*+*+*+*+*+*+*+*+*+*+*+*+*+*+*+*+*+*+*+*+*+*+*+*+*+*+*+*+*+*+*+*+*+*+*+*+*+*+*+
            BAR SHORTENED BY       1.000 PERCENT
 GRADIENT CRITERION IN FLEPO =    10.000


          FOR POINT   51 FIRST  STRUCTURE
 DISTANCE A - B      1.089948
 HEAT               87.591831
 GRADIENT NORM      16.827067
 DIRECTION COSINE    0.600092
 html GEO-OK OPT XYZ
       Nitrous_oxide and acetylene

  C(HETATM    1  C1  HET A   1)   0.13214805 +1  -0.69014737 +1  -0.00356302 +1
  C(HETATM    2  C2  HET A   1)   1.34025831 +1  -0.70187349 +1   0.00586523 +1
  N(HETATM    3  N1  HET B   2)  -0.51801436 +1   1.99383069 +1   0.03417998 +1
  N(HETATM    4  N2  HET B   2)   0.60952452 +1   2.07485989 +1   0.02051302 +1
  O(HETATM    5  O   HET B   2)   1.79148617 +1   2.07764088 +1   0.00784641 +1
  H(HETATM    6  H1  HET A   1)  -0.89879711 +1  -0.69675893 +1  -0.01219421 +1
  H(HETATM    7  H2  HET A   1)   2.36817840 +1  -0.73837042 +1   0.00998492 +1
 
 TIME=     0.03
  REACTANTS AND PRODUCTS SWAPPED AROUND
 *+*+*+*+*+*+*+*+*+*+*+*+*+*+*+*+*+*+*+*+*+*+*+*+*+*+*+*+*+*+*+*+*+*+*+*+*+*+*+*+
            BAR SHORTENED BY       0.000 PERCENT
 GRADIENT CRITERION IN FLEPO =    10.000


          FOR POINT   52 SECOND STRUCTURE
 DISTANCE A - B      1.089948
 HEAT               88.839751
 GRADIENT NORM     150.216299
 DIRECTION COSINE    0.839770
 html GEO-OK OPT XYZ
       Nitrous_oxide and acetylene

  C(HETATM    1  C1  HET A   1)   0.05709988 +1  -0.15977023 +1   0.00032108 +1
  C(HETATM    2  C2  HET A   1)   1.36643988 +1  -0.19987237 +1   0.00369568 +1
  N(HETATM    3  N1  HET B   2)  -0.40562109 +1   1.43604215 +1   0.02041828 +1
  N(HETATM    4  N2  HET B   2)   0.60998808 +1   2.12745739 +1   0.01760114 +1
  O(HETATM    5  O   HET B   2)   1.75635105 +1   1.52139037 +1   0.01154524 +1
  H(HETATM    6  H1  HET A   1)  -0.84320857 +1  -0.73019618 +1  -0.01017051 +1
  H(HETATM    7  H2  HET A   1)   2.29105193 +1  -0.71018258 +1   0.00913182 +1
 
 TIME=     0.00
  REACTANTS AND PRODUCTS SWAPPED AROUND
 *+*+*+*+*+*+*+*+*+*+*+*+*+*+*+*+*+*+*+*+*+*+*+*+*+*+*+*+*+*+*+*+*+*+*+*+*+*+*+*+
            BAR SHORTENED BY       1.000 PERCENT
 GRADIENT CRITERION IN FLEPO =    10.000


          FOR POINT   53 FIRST  STRUCTURE
 DISTANCE A - B      1.079048
 HEAT               87.757571
 GRADIENT NORM      18.450137
 DIRECTION COSINE    0.868014
 html GEO-OK OPT XYZ
       Nitrous_oxide and acetylene

  C(HETATM    1  C1  HET A   1)   0.13139757 +1  -0.68484360 +1  -0.00352417 +1
  C(HETATM    2  C2  HET A   1)   1.34052013 +1  -0.69685348 +1   0.00584353 +1
  N(HETATM    3  N1  HET B   2)  -0.51689043 +1   1.98825280 +1   0.03404236 +1
  N(HETATM    4  N2  HET B   2)   0.60952915 +1   2.07538586 +1   0.02048390 +1
  O(HETATM    5  O   HET B   2)   1.79113482 +1   2.07207838 +1   0.00788340 +1
  H(HETATM    6  H1  HET A   1)  -0.89824123 +1  -0.69709330 +1  -0.01217397 +1
  H(HETATM    7  H2  HET A   1)   2.36740713 +1  -0.73808854 +1   0.00997639 +1
 
 *+*+*+*+*+*+*+*+*+*+*+*+*+*+*+*+*+*+*+*+*+*+*+*+*+*+*+*+*+*+*+*+*+*+*+*+*+*+*+*+
            BAR SHORTENED BY       1.000 PERCENT
 GRADIENT CRITERION IN FLEPO =    10.000


          FOR POINT   54 FIRST  STRUCTURE
 DISTANCE A - B      1.068258
 HEAT               87.771659
 GRADIENT NORM      22.245642
 DIRECTION COSINE    0.849899
 html GEO-OK OPT XYZ
       Nitrous_oxide and acetylene

  C(HETATM    1  C1  HET A   1)   0.12975885 +1  -0.68105869 +1   0.00148737 +1
  C(HETATM    2  C2  HET A   1)   1.34116188 +1  -0.67981880 +1   0.00887096 +1
  N(HETATM    3  N1  HET B   2)  -0.51597861 +1   2.01655160 +1   0.04144890 +1
  N(HETATM    4  N2  HET B   2)   0.61098282 +1   2.07871757 +1   0.02597770 +1
  O(HETATM    5  O   HET B   2)   1.79079831 +1   2.03965271 +1   0.01435615 +1
  H(HETATM    6  H1  HET A   1)  -0.89871998 +1  -0.69561115 +1  -0.00052378 +1
  H(HETATM    7  H2  HET A   1)   2.36735511 +1  -0.67712807 +1   0.01094182 +1
 
 *+*+*+*+*+*+*+*+*+*+*+*+*+*+*+*+*+*+*+*+*+*+*+*+*+*+*+*+*+*+*+*+*+*+*+*+*+*+*+*+
            BAR SHORTENED BY       1.000 PERCENT
 GRADIENT CRITERION IN FLEPO =    10.000


          FOR POINT   55 FIRST  STRUCTURE
 DISTANCE A - B      1.057575
 HEAT               87.876328
 GRADIENT NORM      17.061837
 DIRECTION COSINE    0.853458
 html GEO-OK OPT XYZ
       Nitrous_oxide and acetylene

  C(HETATM    1  C1  HET A   1)   0.13019047 +1  -0.67878666 +1   0.00176760 +1
  C(HETATM    2  C2  HET A   1)   1.33988637 +1  -0.67019692 +1   0.00838481 +1
  N(HETATM    3  N1  HET B   2)  -0.51587521 +1   2.01584867 +1   0.04014691 +1
  N(HETATM    4  N2  HET B   2)   0.61264764 +1   2.06571790 +1   0.02691299 +1
  O(HETATM    5  O   HET B   2)   1.79067851 +1   2.02845070 +1   0.01333707 +1
  H(HETATM    6  H1  HET A   1)  -0.89948792 +1  -0.70315266 +1  -0.00250898 +1
  H(HETATM    7  H2  HET A   1)   2.36819432 +1  -0.67891319 +1   0.01169106 +1
 
 TIME=     0.05
  REACTANTS AND PRODUCTS SWAPPED AROUND
 *+*+*+*+*+*+*+*+*+*+*+*+*+*+*+*+*+*+*+*+*+*+*+*+*+*+*+*+*+*+*+*+*+*+*+*+*+*+*+*+
            BAR SHORTENED BY       0.000 PERCENT
 GRADIENT CRITERION IN FLEPO =    10.000


          FOR POINT   56 SECOND STRUCTURE
 DISTANCE A - B      1.057575
 HEAT               88.461993
 GRADIENT NORM     152.137024
 DIRECTION COSINE    0.933043
 html GEO-OK OPT XYZ
       Nitrous_oxide and acetylene

  C(HETATM    1  C1  HET A   1)   0.05571069 +1  -0.17118398 +1  -0.00003234 +1
  C(HETATM    2  C2  HET A   1)   1.36287024 +1  -0.19401853 +1   0.00502196 +1
  N(HETATM    3  N1  HET B   2)  -0.40542316 +1   1.44512931 +1   0.02539374 +1
  N(HETATM    4  N2  HET B   2)   0.60980351 +1   2.12584953 +1   0.02901242 +1
  O(HETATM    5  O   HET B   2)   1.75390924 +1   1.50234469 +1   0.01122130 +1
  H(HETATM    6  H1  HET A   1)  -0.85576869 +1  -0.73489710 +1  -0.00567645 +1
  H(HETATM    7  H2  HET A   1)   2.29725409 +1  -0.68841869 +1   0.00906986 +1
 
 TIME=     0.02
  REACTANTS AND PRODUCTS SWAPPED AROUND
 *+*+*+*+*+*+*+*+*+*+*+*+*+*+*+*+*+*+*+*+*+*+*+*+*+*+*+*+*+*+*+*+*+*+*+*+*+*+*+*+
            BAR SHORTENED BY       1.000 PERCENT
 GRADIENT CRITERION IN FLEPO =    10.000


          FOR POINT   57 FIRST  STRUCTURE
 DISTANCE A - B      1.047000
 HEAT               88.039501
 GRADIENT NORM      19.562098
 DIRECTION COSINE    0.850779
 html GEO-OK OPT XYZ
       Nitrous_oxide and acetylene

  C(HETATM    1  C1  HET A   1)   0.12956970 +1  -0.67341215 +1   0.00193872 +1
  C(HETATM    2  C2  HET A   1)   1.33998908 +1  -0.66483640 +1   0.00851854 +1
  N(HETATM    3  N1  HET B   2)  -0.51493987 +1   2.01092353 +1   0.04101988 +1
  N(HETATM    4  N2  HET B   2)   0.61275822 +1   2.06527608 +1   0.02730682 +1
  O(HETATM    5  O   HET B   2)   1.79147571 +1   2.02193900 +1   0.01322803 +1
  H(HETATM    6  H1  HET A   1)  -0.89924747 +1  -0.70340957 +1  -0.00269272 +1
  H(HETATM    7  H2  HET A   1)   2.36763452 +1  -0.65642449 +1   0.01176744 +1
 
 *+*+*+*+*+*+*+*+*+*+*+*+*+*+*+*+*+*+*+*+*+*+*+*+*+*+*+*+*+*+*+*+*+*+*+*+*+*+*+*+
            BAR SHORTENED BY       1.000 PERCENT
 GRADIENT CRITERION IN FLEPO =    10.000


          FOR POINT   58 FIRST  STRUCTURE
 DISTANCE A - B      1.036530
 HEAT               88.183235
 GRADIENT NORM      23.055187
 DIRECTION COSINE    0.933011
 html GEO-OK OPT XYZ
       Nitrous_oxide and acetylene

  C(HETATM    1  C1  HET A   1)   0.12874958 +1  -0.67696061 +1  -0.00066305 +1
  C(HETATM    2  C2  HET A   1)   1.33951891 +1  -0.65055959 +1   0.00892288 +1
  N(HETATM    3  N1  HET B   2)  -0.51350052 +1   2.01385862 +1   0.04518208 +1
  N(HETATM    4  N2  HET B   2)   0.61388068 +1   2.04836467 +1   0.02868961 +1
  O(HETATM    5  O   HET B   2)   1.79364255 +1   2.00478082 +1   0.01291922 +1
  H(HETATM    6  H1  HET A   1)  -0.89950120 +1  -0.70399521 +1  -0.00622663 +1
  H(HETATM    7  H2  HET A   1)   2.36703093 +1  -0.65817122 +1   0.01515274 +1
 
 *+*+*+*+*+*+*+*+*+*+*+*+*+*+*+*+*+*+*+*+*+*+*+*+*+*+*+*+*+*+*+*+*+*+*+*+*+*+*+*+
            BAR SHORTENED BY       1.000 PERCENT
 GRADIENT CRITERION IN FLEPO =    10.000


          FOR POINT   59 FIRST  STRUCTURE
 DISTANCE A - B      1.026164
 HEAT               88.324698
 GRADIENT NORM      17.676343
 DIRECTION COSINE    0.677633
 html GEO-OK OPT XYZ
       Nitrous_oxide and acetylene

  C(HETATM    1  C1  HET A   1)   0.12950889 +1  -0.67123848 +1   0.00159311 +1
  C(HETATM    2  C2  HET A   1)   1.33864138 +1  -0.64703154 +1   0.00978148 +1
  N(HETATM    3  N1  HET B   2)  -0.51427819 +1   2.00928352 +1   0.04708982 +1
  N(HETATM    4  N2  HET B   2)   0.61567757 +1   2.05118269 +1   0.03032632 +1
  O(HETATM    5  O   HET B   2)   1.79341062 +1   1.99725889 +1   0.01250868 +1
  H(HETATM    6  H1  HET A   1)  -0.90059709 +1  -0.70755161 +1  -0.00684189 +1
  H(HETATM    7  H2  HET A   1)   2.36766486 +1  -0.65339863 +1   0.01480141 +1
 
 TIME=     0.02
  REACTANTS AND PRODUCTS SWAPPED AROUND
 *+*+*+*+*+*+*+*+*+*+*+*+*+*+*+*+*+*+*+*+*+*+*+*+*+*+*+*+*+*+*+*+*+*+*+*+*+*+*+*+
            BAR SHORTENED BY       0.000 PERCENT
 GRADIENT CRITERION IN FLEPO =    10.000


          FOR POINT   60 SECOND STRUCTURE
 DISTANCE A - B      1.026164
 HEAT               87.983745
 GRADIENT NORM     155.985134
 DIRECTION COSINE    0.978550
 html GEO-OK OPT XYZ
       Nitrous_oxide and acetylene

  C(HETATM    1  C1  HET A   1)   0.04945460 +1  -0.17418364 +1   0.00700398 +1
  C(HETATM    2  C2  HET A   1)   1.35878961 +1  -0.17737143 +1   0.00893901 +1
  N(HETATM    3  N1  HET B   2)  -0.41511142 +1   1.47192861 +1   0.02922828 +1
  N(HETATM    4  N2  HET B   2)   0.61660153 +1   2.12505445 +1   0.02674051 +1
  O(HETATM    5  O   HET B   2)   1.75006430 +1   1.48227403 +1   0.01637656 +1
  H(HETATM    6  H1  HET A   1)  -0.85323544 +1  -0.73481565 +1  -0.00620223 +1
  H(HETATM    7  H2  HET A   1)   2.30511846 +1  -0.64166257 +1   0.01160596 +1
 
 *+*+*+*+*+*+*+*+*+*+*+*+*+*+*+*+*+*+*+*+*+*+*+*+*+*+*+*+*+*+*+*+*+*+*+*+*+*+*+*+
            BAR SHORTENED BY       1.000 PERCENT
 GRADIENT CRITERION IN FLEPO =    10.000


          FOR POINT   61 SECOND STRUCTURE
 DISTANCE A - B      1.015903
 HEAT               89.518378
 GRADIENT NORM     155.364648
 DIRECTION COSINE    0.997767
 html GEO-OK OPT XYZ
       Nitrous_oxide and acetylene

  C(HETATM    1  C1  HET A   1)   0.05009732 +1  -0.18342288 +1   0.00478004 +1
  C(HETATM    2  C2  HET A   1)   1.35760134 +1  -0.17436583 +1   0.00868463 +1
  N(HETATM    3  N1  HET B   2)  -0.41566649 +1   1.48184756 +1   0.03318614 +1
  N(HETATM    4  N2  HET B   2)   0.61747186 +1   2.12633047 +1   0.03430555 +1
  O(HETATM    5  O   HET B   2)   1.74755551 +1   1.48570175 +1   0.01315158 +1
  H(HETATM    6  H1  HET A   1)  -0.85482949 +1  -0.73549484 +1  -0.00534095 +1
  H(HETATM    7  H2  HET A   1)   2.30856205 +1  -0.64563483 +1   0.01223301 +1
 
 TIME=     0.05
  REACTANTS AND PRODUCTS SWAPPED AROUND
 *+*+*+*+*+*+*+*+*+*+*+*+*+*+*+*+*+*+*+*+*+*+*+*+*+*+*+*+*+*+*+*+*+*+*+*+*+*+*+*+
            BAR SHORTENED BY       1.000 PERCENT
 GRADIENT CRITERION IN FLEPO =    10.000


          FOR POINT   62 FIRST  STRUCTURE
 DISTANCE A - B      1.005744
 HEAT               88.509008
 GRADIENT NORM      20.064673
 DIRECTION COSINE    0.946322
 html GEO-OK OPT XYZ
       Nitrous_oxide and acetylene

  C(HETATM    1  C1  HET A   1)   0.12871477 +1  -0.66636032 +1   0.00162498 +1
  C(HETATM    2  C2  HET A   1)   1.33883098 +1  -0.64230488 +1   0.00977051 +1
  N(HETATM    3  N1  HET B   2)  -0.51329208 +1   2.00400916 +1   0.04695078 +1
  N(HETATM    4  N2  HET B   2)   0.61569551 +1   2.05193417 +1   0.03036611 +1
  O(HETATM    5  O   HET B   2)   1.79295207 +1   1.99214332 +1   0.01251511 +1
  H(HETATM    6  H1  HET A   1)  -0.90013942 +1  -0.70783105 +1  -0.00682688 +1
  H(HETATM    7  H2  HET A   1)   2.36707383 +1  -0.65332099 +1   0.01477573 +1
 
 *+*+*+*+*+*+*+*+*+*+*+*+*+*+*+*+*+*+*+*+*+*+*+*+*+*+*+*+*+*+*+*+*+*+*+*+*+*+*+*+
            BAR SHORTENED BY       1.000 PERCENT
 GRADIENT CRITERION IN FLEPO =    10.000


          FOR POINT   63 FIRST  STRUCTURE
 DISTANCE A - B      0.995686
 HEAT               88.616088
 GRADIENT NORM      20.664225
 DIRECTION COSINE    0.975194
 html GEO-OK OPT XYZ
       Nitrous_oxide and acetylene

  C(HETATM    1  C1  HET A   1)   0.12800694 +1  -0.65545054 +1   0.00270609 +1
  C(HETATM    2  C2  HET A   1)   1.33826962 +1  -0.62845478 +1   0.01071502 +1
  N(HETATM    3  N1  HET B   2)  -0.51216440 +1   2.02449631 +1   0.04932221 +1
  N(HETATM    4  N2  HET B   2)   0.61695521 +1   2.05574524 +1   0.03812286 +1
  O(HETATM    5  O   HET B   2)   1.79404726 +1   1.97274419 +1   0.02281044 +1
  H(HETATM    6  H1  HET A   1)  -0.90036303 +1  -0.70354151 +1  -0.00766092 +1
  H(HETATM    7  H2  HET A   1)   2.36652231 +1  -0.61453418 +1   0.01409415 +1
 
 *+*+*+*+*+*+*+*+*+*+*+*+*+*+*+*+*+*+*+*+*+*+*+*+*+*+*+*+*+*+*+*+*+*+*+*+*+*+*+*+
            BAR SHORTENED BY       1.000 PERCENT
 GRADIENT CRITERION IN FLEPO =    10.000


          FOR POINT   64 FIRST  STRUCTURE
 DISTANCE A - B      0.985729
 HEAT               88.783315
 GRADIENT NORM      20.101847
 DIRECTION COSINE    0.981782
 html GEO-OK OPT XYZ
       Nitrous_oxide and acetylene

  C(HETATM    1  C1  HET A   1)   0.12792041 +1  -0.65407002 +1   0.00137117 +1
  C(HETATM    2  C2  HET A   1)   1.33753295 +1  -0.62023845 +1   0.01090790 +1
  N(HETATM    3  N1  HET B   2)  -0.51181458 +1   2.02193124 +1   0.04984867 +1
  N(HETATM    4  N2  HET B   2)   0.61790992 +1   2.05024407 +1   0.03780037 +1
  O(HETATM    5  O   HET B   2)   1.79540462 +1   1.96297114 +1   0.02269400 +1
  H(HETATM    6  H1  HET A   1)  -0.90071395 +1  -0.70235190 +1  -0.00615058 +1
  H(HETATM    7  H2  HET A   1)   2.36654123 +1  -0.61233246 +1   0.01664902 +1
 
 TIME=     0.06
  REACTANTS AND PRODUCTS SWAPPED AROUND
 *+*+*+*+*+*+*+*+*+*+*+*+*+*+*+*+*+*+*+*+*+*+*+*+*+*+*+*+*+*+*+*+*+*+*+*+*+*+*+*+
            BAR SHORTENED BY       0.000 PERCENT
 GRADIENT CRITERION IN FLEPO =    10.000


          FOR POINT   65 SECOND STRUCTURE
 DISTANCE A - B      0.985729
 HEAT               89.318296
 GRADIENT NORM     155.781538
 DIRECTION COSINE    0.974549
 html GEO-OK OPT XYZ
       Nitrous_oxide and acetylene

  C(HETATM    1  C1  HET A   1)   0.05470275 +1  -0.18545923 +1   0.00825360 +1
  C(HETATM    2  C2  HET A   1)   1.36189724 +1  -0.15507506 +1   0.01181908 +1
  N(HETATM    3  N1  HET B   2)  -0.42011372 +1   1.50374521 +1   0.03233219 +1
  N(HETATM    4  N2  HET B   2)   0.62318325 +1   2.13085638 +1   0.04150454 +1
  O(HETATM    5  O   HET B   2)   1.74690525 +1   1.47436195 +1   0.02301424 +1
  H(HETATM    6  H1  HET A   1)  -0.85737445 +1  -0.72666077 +1  -0.00451986 +1
  H(HETATM    7  H2  HET A   1)   2.31829871 +1  -0.60982721 +1   0.01249794 +1
 
 TIME=     0.03
  REACTANTS AND PRODUCTS SWAPPED AROUND
 *+*+*+*+*+*+*+*+*+*+*+*+*+*+*+*+*+*+*+*+*+*+*+*+*+*+*+*+*+*+*+*+*+*+*+*+*+*+*+*+
            BAR SHORTENED BY       1.000 PERCENT
 GRADIENT CRITERION IN FLEPO =    10.000


          FOR POINT   66 FIRST  STRUCTURE
 DISTANCE A - B      0.975872
 HEAT               88.984986
 GRADIENT NORM      23.512202
 DIRECTION COSINE    0.913225
 html GEO-OK OPT XYZ
       Nitrous_oxide and acetylene

  C(HETATM    1  C1  HET A   1)   0.12718824 +1  -0.64938391 +1   0.00144000 +1
  C(HETATM    2  C2  HET A   1)   1.33777660 +1  -0.61558682 +1   0.01091702 +1
  N(HETATM    3  N1  HET B   2)  -0.51089758 +1   2.01674938 +1   0.04967351 +1
  N(HETATM    4  N2  HET B   2)   0.61796265 +1   2.05105019 +1   0.03783741 +1
  O(HETATM    5  O   HET B   2)   1.79491963 +1   1.95808505 +1   0.02269720 +1
  H(HETATM    6  H1  HET A   1)  -0.90028055 +1  -0.70259499 +1  -0.00613428 +1
  H(HETATM    7  H2  HET A   1)   2.36605880 +1  -0.61230741 +1   0.01660751 +1
 
 *+*+*+*+*+*+*+*+*+*+*+*+*+*+*+*+*+*+*+*+*+*+*+*+*+*+*+*+*+*+*+*+*+*+*+*+*+*+*+*+
            BAR SHORTENED BY       1.000 PERCENT
 GRADIENT CRITERION IN FLEPO =    10.000


          FOR POINT   67 FIRST  STRUCTURE
 DISTANCE A - B      0.966113
 HEAT               89.171477
 GRADIENT NORM      21.585286
 DIRECTION COSINE    0.920755
 html GEO-OK OPT XYZ
       Nitrous_oxide and acetylene

  C(HETATM    1  C1  HET A   1)   0.12694817 +1  -0.63961090 +1   0.00300150 +1
  C(HETATM    2  C2  HET A   1)   1.33719026 +1  -0.60526614 +1   0.01147889 +1
  N(HETATM    3  N1  HET B   2)  -0.51018849 +1   2.02314718 +1   0.05075133 +1
  N(HETATM    4  N2  HET B   2)   0.61920847 +1   2.03154293 +1   0.03957779 +1
  O(HETATM    5  O   HET B   2)   1.79425877 +1   1.94550512 +1   0.03045072 +1
  H(HETATM    6  H1  HET A   1)  -0.90061351 +1  -0.69590632 +1  -0.00392599 +1
  H(HETATM    7  H2  HET A   1)   2.36599781 +1  -0.57683150 +1   0.01744276 +1
 
 *+*+*+*+*+*+*+*+*+*+*+*+*+*+*+*+*+*+*+*+*+*+*+*+*+*+*+*+*+*+*+*+*+*+*+*+*+*+*+*+
            BAR SHORTENED BY       1.000 PERCENT
 GRADIENT CRITERION IN FLEPO =    10.000


          FOR POINT   68 FIRST  STRUCTURE
 DISTANCE A - B      0.956452
 HEAT               89.338577
 GRADIENT NORM      23.057824
 DIRECTION COSINE    0.805739
 html GEO-OK OPT XYZ
       Nitrous_oxide and acetylene

  C(HETATM    1  C1  HET A   1)   0.12717424 +1  -0.64249475 +1   0.00374946 +1
  C(HETATM    2  C2  HET A   1)   1.33661858 +1  -0.59849267 +1   0.01210220 +1
  N(HETATM    3  N1  HET B   2)  -0.51017422 +1   2.01704666 +1   0.04989898 +1
  N(HETATM    4  N2  HET B   2)   0.61962497 +1   2.03701521 +1   0.04092173 +1
  O(HETATM    5  O   HET B   2)   1.79872167 +1   1.93693081 +1   0.02930230 +1
  H(HETATM    6  H1  HET A   1)  -0.90118351 +1  -0.69679268 +1  -0.00403188 +1
  H(HETATM    7  H2  HET A   1)   2.36604244 +1  -0.58041446 +1   0.01707060 +1
 
 TIME=     0.05
  REACTANTS AND PRODUCTS SWAPPED AROUND
 *+*+*+*+*+*+*+*+*+*+*+*+*+*+*+*+*+*+*+*+*+*+*+*+*+*+*+*+*+*+*+*+*+*+*+*+*+*+*+*+
            BAR SHORTENED BY       0.000 PERCENT
 GRADIENT CRITERION IN FLEPO =    10.000


          FOR POINT   69 SECOND STRUCTURE
 DISTANCE A - B      0.956452
 HEAT               89.318296
 GRADIENT NORM     155.781580
 DIRECTION COSINE    0.909555
 html GEO-OK OPT XYZ
       Nitrous_oxide and acetylene

  C(HETATM    1  C1  HET A   1)   0.05470275 +1  -0.18545923 +1   0.00825360 +1
  C(HETATM    2  C2  HET A   1)   1.36189724 +1  -0.15507506 +1   0.01181908 +1
  N(HETATM    3  N1  HET B   2)  -0.42011372 +1   1.50374521 +1   0.03233219 +1
  N(HETATM    4  N2  HET B   2)   0.62318325 +1   2.13085638 +1   0.04150454 +1
  O(HETATM    5  O   HET B   2)   1.74690525 +1   1.47436195 +1   0.02301424 +1
  H(HETATM    6  H1  HET A   1)  -0.85737445 +1  -0.72666077 +1  -0.00451986 +1
  H(HETATM    7  H2  HET A   1)   2.31829871 +1  -0.60982721 +1   0.01249794 +1
 
 *+*+*+*+*+*+*+*+*+*+*+*+*+*+*+*+*+*+*+*+*+*+*+*+*+*+*+*+*+*+*+*+*+*+*+*+*+*+*+*+
            BAR SHORTENED BY       1.000 PERCENT
 GRADIENT CRITERION IN FLEPO =    10.000


          FOR POINT   70 SECOND STRUCTURE
 DISTANCE A - B      0.946888
 HEAT               90.804285
 GRADIENT NORM     155.249258
 DIRECTION COSINE    0.999439
 html GEO-OK OPT XYZ
       Nitrous_oxide and acetylene

  C(HETATM    1  C1  HET A   1)   0.05542746 +1  -0.19002959 +1   0.00820855 +1
  C(HETATM    2  C2  HET A   1)   1.36164446 +1  -0.15950923 +1   0.01182191 +1
  N(HETATM    3  N1  HET B   2)  -0.42101433 +1   1.50887823 +1   0.03250786 +1
  N(HETATM    4  N2  HET B   2)   0.62314767 +1   2.12991797 +1   0.04149871 +1
  O(HETATM    5  O   HET B   2)   1.74742342 +1   1.47898764 +1   0.02307712 +1
  H(HETATM    6  H1  HET A   1)  -0.85781254 +1  -0.72636209 +1  -0.00451498 +1
  H(HETATM    7  H2  HET A   1)   2.31877615 +1  -0.60953308 +1   0.01254366 +1
 
 TIME=     0.03
  REACTANTS AND PRODUCTS SWAPPED AROUND
 *+*+*+*+*+*+*+*+*+*+*+*+*+*+*+*+*+*+*+*+*+*+*+*+*+*+*+*+*+*+*+*+*+*+*+*+*+*+*+*+
            BAR SHORTENED BY       1.000 PERCENT
 GRADIENT CRITERION IN FLEPO =    10.000


          FOR POINT   71 FIRST  STRUCTURE
 DISTANCE A - B      0.937419
 HEAT               89.527901
 GRADIENT NORM      21.938275
 DIRECTION COSINE    0.994685
 html GEO-OK OPT XYZ
       Nitrous_oxide and acetylene

  C(HETATM    1  C1  HET A   1)   0.12729877 +1  -0.63813614 +1   0.00427703 +1
  C(HETATM    2  C2  HET A   1)   1.33625107 +1  -0.59469105 +1   0.01153969 +1
  N(HETATM    3  N1  HET B   2)  -0.51014039 +1   2.01306688 +1   0.04957809 +1
  N(HETATM    4  N2  HET B   2)   0.62063096 +1   2.03710963 +1   0.04062052 +1
  O(HETATM    5  O   HET B   2)   1.79672913 +1   1.93000008 +1   0.02958629 +1
  H(HETATM    6  H1  HET A   1)  -0.90141607 +1  -0.69838473 +1  -0.00392077 +1
  H(HETATM    7  H2  HET A   1)   2.36595765 +1  -0.58008620 +1   0.01707743 +1
 
 *+*+*+*+*+*+*+*+*+*+*+*+*+*+*+*+*+*+*+*+*+*+*+*+*+*+*+*+*+*+*+*+*+*+*+*+*+*+*+*+
            BAR SHORTENED BY       1.000 PERCENT
 GRADIENT CRITERION IN FLEPO =    10.000


          FOR POINT   72 FIRST  STRUCTURE
 DISTANCE A - B      0.928045
 HEAT               89.741501
 GRADIENT NORM      24.230764
 DIRECTION COSINE    0.971255
 html GEO-OK OPT XYZ
       Nitrous_oxide and acetylene

  C(HETATM    1  C1  HET A   1)   0.12658006 +1  -0.63365508 +1   0.00431634 +1
  C(HETATM    2  C2  HET A   1)   1.33650500 +1  -0.59033923 +1   0.01154251 +1
  N(HETATM    3  N1  HET B   2)  -0.50924913 +1   2.00802499 +1   0.04940739 +1
  N(HETATM    4  N2  HET B   2)   0.62065613 +1   2.03803771 +1   0.04062930 +1
  O(HETATM    5  O   HET B   2)   1.79623607 +1   1.92548996 +1   0.02952120 +1
  H(HETATM    6  H1  HET A   1)  -0.90098003 +1  -0.69866451 +1  -0.00392671 +1
  H(HETATM    7  H2  HET A   1)   2.36548584 +1  -0.58038067 +1   0.01703209 +1
 
 *+*+*+*+*+*+*+*+*+*+*+*+*+*+*+*+*+*+*+*+*+*+*+*+*+*+*+*+*+*+*+*+*+*+*+*+*+*+*+*+
            BAR SHORTENED BY       1.000 PERCENT
 GRADIENT CRITERION IN FLEPO =    10.000


          FOR POINT   73 FIRST  STRUCTURE
 DISTANCE A - B      0.918764
 HEAT               89.961028
 GRADIENT NORM      25.658559
 DIRECTION COSINE    0.996276
 html GEO-OK OPT XYZ
       Nitrous_oxide and acetylene

  C(HETATM    1  C1  HET A   1)   0.12621130 +1  -0.62902244 +1   0.00458667 +1
  C(HETATM    2  C2  HET A   1)   1.33646968 +1  -0.58588100 +1   0.01170976 +1
  N(HETATM    3  N1  HET B   2)  -0.50864690 +1   2.00328553 +1   0.04919694 +1
  N(HETATM    4  N2  HET B   2)   0.62086101 +1   2.03781447 +1   0.04069274 +1
  O(HETATM    5  O   HET B   2)   1.79571386 +1   1.91954498 +1   0.02943064 +1
  H(HETATM    6  H1  HET A   1)  -0.90078552 +1  -0.69835811 +1  -0.00373586 +1
  H(HETATM    7  H2  HET A   1)   2.36519665 +1  -0.56699721 +1   0.01682203 +1
 
 TIME=     0.03
  REACTANTS AND PRODUCTS SWAPPED AROUND
 *+*+*+*+*+*+*+*+*+*+*+*+*+*+*+*+*+*+*+*+*+*+*+*+*+*+*+*+*+*+*+*+*+*+*+*+*+*+*+*+
            BAR SHORTENED BY       0.000 PERCENT
 GRADIENT CRITERION IN FLEPO =    10.000


          FOR POINT   74 SECOND STRUCTURE
 DISTANCE A - B      0.918764
 HEAT               90.804285
 GRADIENT NORM     155.249297
 DIRECTION COSINE    0.958810
 html GEO-OK OPT XYZ
       Nitrous_oxide and acetylene

  C(HETATM    1  C1  HET A   1)   0.05542746 +1  -0.19002959 +1   0.00820855 +1
  C(HETATM    2  C2  HET A   1)   1.36164446 +1  -0.15950923 +1   0.01182191 +1
  N(HETATM    3  N1  HET B   2)  -0.42101433 +1   1.50887823 +1   0.03250786 +1
  N(HETATM    4  N2  HET B   2)   0.62314767 +1   2.12991797 +1   0.04149871 +1
  O(HETATM    5  O   HET B   2)   1.74742342 +1   1.47898764 +1   0.02307712 +1
  H(HETATM    6  H1  HET A   1)  -0.85781254 +1  -0.72636209 +1  -0.00451498 +1
  H(HETATM    7  H2  HET A   1)   2.31877615 +1  -0.60953308 +1   0.01254366 +1
 
[...]

          FOR POINT  294 SECOND STRUCTURE
 DISTANCE A - B      0.112450
 HEAT              116.212104
 GRADIENT NORM      32.698663
 DIRECTION COSINE    0.794926
 html GEO-OK OPT XYZ
       Nitrous_oxide and acetylene

  C(HETATM    1  C1  HET A   1)   0.08942016 +1  -0.30074103 +1   0.02185183 +1
  C(HETATM    2  C2  HET A   1)   1.33819796 +1  -0.30898767 +1   0.02170463 +1
  N(HETATM    3  N1  HET B   2)  -0.42701914 +1   1.60038530 +1   0.02332836 +1
  N(HETATM    4  N2  HET B   2)   0.63578915 +1   2.11144893 +1   0.02834824 +1
  O(HETATM    5  O   HET B   2)   1.75807411 +1   1.60954288 +1   0.03169032 +1
  H(HETATM    6  H1  HET A   1)  -0.90049098 +1  -0.63353263 +1   0.01488454 +1
  H(HETATM    7  H2  HET A   1)   2.35247085 +1  -0.53151549 +1   0.01752981 +1
 
 TIME=     0.02
  REACTANTS AND PRODUCTS SWAPPED AROUND
 *+*+*+*+*+*+*+*+*+*+*+*+*+*+*+*+*+*+*+*+*+*+*+*+*+*+*+*+*+*+*+*+*+*+*+*+*+*+*+*+
            BAR SHORTENED BY       1.000 PERCENT
 GRADIENT CRITERION IN FLEPO =    10.000


          FOR POINT  295 FIRST  STRUCTURE
 DISTANCE A - B      0.111326
 HEAT              116.214986
 GRADIENT NORM      29.352960
 DIRECTION COSINE    0.790693
 html GEO-OK OPT XYZ
       Nitrous_oxide and acetylene

  C(HETATM    1  C1  HET A   1)   0.10080622 +1  -0.35257350 +1   0.02085320 +1
  C(HETATM    2  C2  HET A   1)   1.33323734 +1  -0.35604784 +1   0.02079376 +1
  N(HETATM    3  N1  HET B   2)  -0.44364394 +1   1.66186558 +1   0.02399734 +1
  N(HETATM    4  N2  HET B   2)   0.63661445 +1   2.08671713 +1   0.02785188 +1
  O(HETATM    5  O   HET B   2)   1.76715023 +1   1.65942182 +1   0.03277207 +1
  H(HETATM    6  H1  HET A   1)  -0.90221962 +1  -0.62656182 +1   0.01542957 +1
  H(HETATM    7  H2  HET A   1)   2.35530289 +1  -0.52559274 +1   0.01812988 +1
 
 TIME=     0.00
  REACTANTS AND PRODUCTS SWAPPED AROUND
 *+*+*+*+*+*+*+*+*+*+*+*+*+*+*+*+*+*+*+*+*+*+*+*+*+*+*+*+*+*+*+*+*+*+*+*+*+*+*+*+
            BAR SHORTENED BY       1.000 PERCENT
 GRADIENT CRITERION IN FLEPO =    10.000


          FOR POINT  296 SECOND STRUCTURE
 DISTANCE A - B      0.110212
 HEAT              116.246383
 GRADIENT NORM      32.079324
 DIRECTION COSINE    0.785341
 html GEO-OK OPT XYZ
       Nitrous_oxide and acetylene

  C(HETATM    1  C1  HET A   1)   0.08953402 +1  -0.30125935 +1   0.02184184 +1
  C(HETATM    2  C2  HET A   1)   1.33814836 +1  -0.30945827 +1   0.02169553 +1
  N(HETATM    3  N1  HET B   2)  -0.42718539 +1   1.60100010 +1   0.02333505 +1
  N(HETATM    4  N2  HET B   2)   0.63579740 +1   2.11120161 +1   0.02834327 +1
  O(HETATM    5  O   HET B   2)   1.75816487 +1   1.61004167 +1   0.03170113 +1
  H(HETATM    6  H1  HET A   1)  -0.90050827 +1  -0.63346292 +1   0.01488999 +1
  H(HETATM    7  H2  HET A   1)   2.35249917 +1  -0.53145626 +1   0.01753581 +1
 
 TIME=     0.00
  REACTANTS AND PRODUCTS SWAPPED AROUND
 *+*+*+*+*+*+*+*+*+*+*+*+*+*+*+*+*+*+*+*+*+*+*+*+*+*+*+*+*+*+*+*+*+*+*+*+*+*+*+*+
            BAR SHORTENED BY       1.000 PERCENT
 GRADIENT CRITERION IN FLEPO =    10.000


          FOR POINT  297 FIRST  STRUCTURE
 DISTANCE A - B      0.109110
 HEAT              116.244953
 GRADIENT NORM      28.953520
 DIRECTION COSINE    0.780945
 html GEO-OK OPT XYZ
       Nitrous_oxide and acetylene

  C(HETATM    1  C1  HET A   1)   0.10069350 +1  -0.35206036 +1   0.02086309 +1
  C(HETATM    2  C2  HET A   1)   1.33328645 +1  -0.35558194 +1   0.02080277 +1
  N(HETATM    3  N1  HET B   2)  -0.44347936 +1   1.66125693 +1   0.02399072 +1
  N(HETATM    4  N2  HET B   2)   0.63660628 +1   2.08696198 +1   0.02785680 +1
  O(HETATM    5  O   HET B   2)   1.76706037 +1   1.65892802 +1   0.03276136 +1
  H(HETATM    6  H1  HET A   1)  -0.90220250 +1  -0.62663083 +1   0.01542417 +1
  H(HETATM    7  H2  HET A   1)   2.35527485 +1  -0.52565138 +1   0.01812394 +1
 
 *+*+*+*+*+*+*+*+*+*+*+*+*+*+*+*+*+*+*+*+*+*+*+*+*+*+*+*+*+*+*+*+*+*+*+*+*+*+*+*+
            BAR SHORTENED BY       1.000 PERCENT
 GRADIENT CRITERION IN FLEPO =    10.000


          FOR POINT  298 FIRST  STRUCTURE
 DISTANCE A - B      0.108019
 HEAT              116.274128
 GRADIENT NORM      28.556776
 DIRECTION COSINE    0.999963
 html GEO-OK OPT XYZ
       Nitrous_oxide and acetylene

  C(HETATM    1  C1  HET A   1)   0.10058191 +1  -0.35155235 +1   0.02087288 +1
  C(HETATM    2  C2  HET A   1)   1.33333507 +1  -0.35512070 +1   0.02081170 +1
  N(HETATM    3  N1  HET B   2)  -0.44331642 +1   1.66065436 +1   0.02398416 +1
  N(HETATM    4  N2  HET B   2)   0.63659819 +1   2.08720437 +1   0.02786166 +1
  O(HETATM    5  O   HET B   2)   1.76697142 +1   1.65843916 +1   0.03275076 +1
  H(HETATM    6  H1  HET A   1)  -0.90218556 +1  -0.62669915 +1   0.01541883 +1
  H(HETATM    7  H2  HET A   1)   2.35524709 +1  -0.52570943 +1   0.01811806 +1
 
 TIME=     0.02
  REACTANTS AND PRODUCTS SWAPPED AROUND
 *+*+*+*+*+*+*+*+*+*+*+*+*+*+*+*+*+*+*+*+*+*+*+*+*+*+*+*+*+*+*+*+*+*+*+*+*+*+*+*+
            BAR SHORTENED BY       1.000 PERCENT
 GRADIENT CRITERION IN FLEPO =    10.000


          FOR POINT  299 SECOND STRUCTURE
 DISTANCE A - B      0.106939
 HEAT              116.278933
 GRADIENT NORM      31.481154
 DIRECTION COSINE    0.770847
 html GEO-OK OPT XYZ
       Nitrous_oxide and acetylene

  C(HETATM    1  C1  HET A   1)   0.08964450 +1  -0.30176228 +1   0.02183215 +1
  C(HETATM    2  C2  HET A   1)   1.33810022 +1  -0.30991489 +1   0.02168669 +1
  N(HETATM    3  N1  HET B   2)  -0.42734670 +1   1.60159665 +1   0.02334154 +1
  N(HETATM    4  N2  HET B   2)   0.63580541 +1   2.11096164 +1   0.02833846 +1
  O(HETATM    5  O   HET B   2)   1.75825294 +1   1.61052565 +1   0.03171163 +1
  H(HETATM    6  H1  HET A   1)  -0.90052504 +1  -0.63339528 +1   0.01489528 +1
  H(HETATM    7  H2  HET A   1)   2.35252665 +1  -0.53139879 +1   0.01754164 +1
 
 TIME=     0.02
  REACTANTS AND PRODUCTS SWAPPED AROUND
 *+*+*+*+*+*+*+*+*+*+*+*+*+*+*+*+*+*+*+*+*+*+*+*+*+*+*+*+*+*+*+*+*+*+*+*+*+*+*+*+
            BAR SHORTENED BY       1.000 PERCENT
 GRADIENT CRITERION IN FLEPO =    10.000


          FOR POINT  300 FIRST  STRUCTURE
 DISTANCE A - B      0.105869
 HEAT              116.302244
 GRADIENT NORM      28.166732
 DIRECTION COSINE    0.766141
 html GEO-OK OPT XYZ
       Nitrous_oxide and acetylene

  C(HETATM    1  C1  HET A   1)   0.10047253 +1  -0.35105445 +1   0.02088247 +1
  C(HETATM    2  C2  HET A   1)   1.33338272 +1  -0.35466864 +1   0.02082045 +1
  N(HETATM    3  N1  HET B   2)  -0.44315672 +1   1.66006378 +1   0.02397773 +1
  N(HETATM    4  N2  HET B   2)   0.63659026 +1   2.08744195 +1   0.02786643 +1
  O(HETATM    5  O   HET B   2)   1.76688423 +1   1.65796002 +1   0.03274037 +1
  H(HETATM    6  H1  HET A   1)  -0.90216895 +1  -0.62676612 +1   0.01541360 +1
  H(HETATM    7  H2  HET A   1)   2.35521989 +1  -0.52576632 +1   0.01811230 +1
 
 TIME=     0.02
  REACTANTS AND PRODUCTS SWAPPED AROUND
 *+*+*+*+*+*+*+*+*+*+*+*+*+*+*+*+*+*+*+*+*+*+*+*+*+*+*+*+*+*+*+*+*+*+*+*+*+*+*+*+
            BAR SHORTENED BY       1.000 PERCENT
 GRADIENT CRITERION IN FLEPO =    10.000


          FOR POINT  301 SECOND STRUCTURE
 DISTANCE A - B      0.104811
 HEAT              116.310157
 GRADIENT NORM      30.897673
 DIRECTION COSINE    0.760387
 html GEO-OK OPT XYZ
       Nitrous_oxide and acetylene

  C(HETATM    1  C1  HET A   1)   0.08975278 +1  -0.30225520 +1   0.02182265 +1
  C(HETATM    2  C2  HET A   1)   1.33805305 +1  -0.31036243 +1   0.02167802 +1
  N(HETATM    3  N1  HET B   2)  -0.42750480 +1   1.60218132 +1   0.02334791 +1
  N(HETATM    4  N2  HET B   2)   0.63581326 +1   2.11072645 +1   0.02833374 +1
  O(HETATM    5  O   HET B   2)   1.75833925 +1   1.61099999 +1   0.03172192 +1
  H(HETATM    6  H1  HET A   1)  -0.90054148 +1  -0.63332899 +1   0.01490046 +1
  H(HETATM    7  H2  HET A   1)   2.35255358 +1  -0.53134247 +1   0.01754734 +1
 
 TIME=     0.03
  REACTANTS AND PRODUCTS SWAPPED AROUND
 *+*+*+*+*+*+*+*+*+*+*+*+*+*+*+*+*+*+*+*+*+*+*+*+*+*+*+*+*+*+*+*+*+*+*+*+*+*+*+*+
            BAR SHORTENED BY       1.000 PERCENT
 GRADIENT CRITERION IN FLEPO =    10.000


          FOR POINT  302 FIRST  STRUCTURE
 DISTANCE A - B      0.103763
 HEAT              116.329339
 GRADIENT NORM      27.783370
 DIRECTION COSINE    0.755515
 html GEO-OK OPT XYZ
       Nitrous_oxide and acetylene

  C(HETATM    1  C1  HET A   1)   0.10036534 +1  -0.35056646 +1   0.02089187 +1
  C(HETATM    2  C2  HET A   1)   1.33342942 +1  -0.35422558 +1   0.02082903 +1
  N(HETATM    3  N1  HET B   2)  -0.44300020 +1   1.65948496 +1   0.02397143 +1
  N(HETATM    4  N2  HET B   2)   0.63658249 +1   2.08767479 +1   0.02787110 +1
  O(HETATM    5  O   HET B   2)   1.76679878 +1   1.65749042 +1   0.03273018 +1
  H(HETATM    6  H1  HET A   1)  -0.90215268 +1  -0.62683174 +1   0.01540847 +1
  H(HETATM    7  H2  HET A   1)   2.35519323 +1  -0.52582208 +1   0.01810665 +1
 
 TIME=     0.00
  REACTANTS AND PRODUCTS SWAPPED AROUND
 *+*+*+*+*+*+*+*+*+*+*+*+*+*+*+*+*+*+*+*+*+*+*+*+*+*+*+*+*+*+*+*+*+*+*+*+*+*+*+*+
            BAR SHORTENED BY       1.000 PERCENT
 GRADIENT CRITERION IN FLEPO =    10.000


          FOR POINT  303 SECOND STRUCTURE
 DISTANCE A - B      0.102725
 HEAT              116.340109
 GRADIENT NORM      30.328602
 DIRECTION COSINE    0.749563
 html GEO-OK OPT XYZ
       Nitrous_oxide and acetylene

  C(HETATM    1  C1  HET A   1)   0.08985891 +1  -0.30273831 +1   0.02181335 +1
  C(HETATM    2  C2  HET A   1)   1.33800681 +1  -0.31080106 +1   0.02166953 +1
  N(HETATM    3  N1  HET B   2)  -0.42765975 +1   1.60275435 +1   0.02335414 +1
  N(HETATM    4  N2  HET B   2)   0.63582095 +1   2.11049593 +1   0.02832911 +1
  O(HETATM    5  O   HET B   2)   1.75842385 +1   1.61146490 +1   0.03173200 +1
  H(HETATM    6  H1  HET A   1)  -0.90055759 +1  -0.63326402 +1   0.01490554 +1
  H(HETATM    7  H2  HET A   1)   2.35257998 +1  -0.53128726 +1   0.01755294 +1
 
 TIME=     0.02
  REACTANTS AND PRODUCTS SWAPPED AROUND
 *+*+*+*+*+*+*+*+*+*+*+*+*+*+*+*+*+*+*+*+*+*+*+*+*+*+*+*+*+*+*+*+*+*+*+*+*+*+*+*+
            BAR SHORTENED BY       1.000 PERCENT
 GRADIENT CRITERION IN FLEPO =    10.000


          FOR POINT  304 FIRST  STRUCTURE
 DISTANCE A - B      0.101698
 HEAT              116.355447
 GRADIENT NORM      27.406665
 DIRECTION COSINE    0.744525
 html GEO-OK OPT XYZ
       Nitrous_oxide and acetylene

  C(HETATM    1  C1  HET A   1)   0.10026027 +1  -0.35008818 +1   0.02090109 +1
  C(HETATM    2  C2  HET A   1)   1.33347520 +1  -0.35379134 +1   0.02083743 +1
  N(HETATM    3  N1  HET B   2)  -0.44284680 +1   1.65891765 +1   0.02396526 +1
  N(HETATM    4  N2  HET B   2)   0.63657488 +1   2.08790300 +1   0.02787568 +1
  O(HETATM    5  O   HET B   2)   1.76671503 +1   1.65703017 +1   0.03272020 +1
  H(HETATM    6  H1  HET A   1)  -0.90213673 +1  -0.62689607 +1   0.01540344 +1
  H(HETATM    7  H2  HET A   1)   2.35516709 +1  -0.52587674 +1   0.01810111 +1
 
 TIME=     0.02
  REACTANTS AND PRODUCTS SWAPPED AROUND
 *+*+*+*+*+*+*+*+*+*+*+*+*+*+*+*+*+*+*+*+*+*+*+*+*+*+*+*+*+*+*+*+*+*+*+*+*+*+*+*+
            BAR SHORTENED BY       1.000 PERCENT
 GRADIENT CRITERION IN FLEPO =    10.000


          FOR POINT  305 SECOND STRUCTURE
 DISTANCE A - B      0.100681
 HEAT              116.368840
 GRADIENT NORM      29.773667
 DIRECTION COSINE    0.738374
 html GEO-OK OPT XYZ
       Nitrous_oxide and acetylene

  C(HETATM    1  C1  HET A   1)   0.08996292 +1  -0.30321181 +1   0.02180422 +1
  C(HETATM    2  C2  HET A   1)   1.33796150 +1  -0.31123097 +1   0.02166121 +1
  N(HETATM    3  N1  HET B   2)  -0.42781162 +1   1.60331599 +1   0.02336025 +1
  N(HETATM    4  N2  HET B   2)   0.63582849 +1   2.11027000 +1   0.02832458 +1
  O(HETATM    5  O   HET B   2)   1.75850676 +1   1.61192055 +1   0.03174188 +1
  H(HETATM    6  H1  HET A   1)  -0.90057338 +1  -0.63320034 +1   0.01491052 +1
  H(HETATM    7  H2  HET A   1)   2.35260585 +1  -0.53123316 +1   0.01755842 +1
 
 TIME=     0.02
  REACTANTS AND PRODUCTS SWAPPED AROUND
 *+*+*+*+*+*+*+*+*+*+*+*+*+*+*+*+*+*+*+*+*+*+*+*+*+*+*+*+*+*+*+*+*+*+*+*+*+*+*+*+
            BAR SHORTENED BY       1.000 PERCENT
 AT END OF STEPWISE ASCENT OF REACTION BARRIER

 -------------------------------------------------------------------------------
 html GEO-OK OPT XYZ
       Nitrous_oxide and acetylene



     TRANSITION STATE LOCATED USING THE "SADDLE" TECHNIQUE    
     SCF FIELD WAS ACHIEVED                                   


                              PM7 CALCULATION
                                                       MOPAC2016 (Version: 21.153W)
                                                       Sat Jun  5 15:36:15 2021
                                                       No. of days remaining = 362




          FINAL H.O.F PLUS STRESS =        116.36884 KCAL/MOL =     486.88723 KJ/MOL
          FINAL STRESS            =          0.00000 KCAL/MOL =       0.00000 KJ/MOL
          FINAL HEAT OF FORMATION =        116.36884 KCAL/MOL =     486.88723 KJ/MOL
          TOTAL DISTORTION        =          0.00229 Angstroms
          AVERAGE DISTORTION      =          0.00033 Angstroms per atom (all atoms)
          RMS DISTORTION          =          0.00038 Angstroms per atom (all atoms)


          TOTAL ENERGY            =       -935.00130 EV
          ELECTRONIC ENERGY       =      -2765.47664 EV  POINT GROUP:     Cs  
          CORE-CORE REPULSION     =       1830.47534 EV
          COSMO AREA              =         98.69 SQUARE ANGSTROMS
          COSMO VOLUME            =         83.81 CUBIC ANGSTROMS

          GRADIENT NORM           =          8.95521 = 3.38475 PER ATOM
          IONIZATION POTENTIAL    =         11.315382 EV
          HOMO LUMO ENERGIES (EV) =        -11.315 -1.268
          NO. OF FILLED LEVELS    =         13
          MOLECULAR WEIGHT        =         70.0506

          MOLECULAR DIMENSIONS (Angstroms)

            Atom       Atom       Distance
            H     7    N     3     3.50574
            H     6    O     5     3.40057
            C     1    N     3     0.00739


          SCF CALCULATIONS        =       1174
 
          WALL-CLOCK TIME         =          4.242 SECONDS
          COMPUTATION TIME        =          2.625 SECONDS



       FINAL  POINT  AND  DERIVATIVES

   PARAMETER     ATOM    TYPE            VALUE        GRADIENT
      1          1  C    CARTESIAN X     0.090066      1.080790  KCAL/ANGSTROM
      2          1  C    CARTESIAN Y    -0.303681     -0.276352  KCAL/ANGSTROM
      3          1  C    CARTESIAN Z     0.021795      0.169390  KCAL/ANGSTROM
      4          2  C    CARTESIAN X     1.337917     -0.636357  KCAL/ANGSTROM
      5          2  C    CARTESIAN Y    -0.311657      2.416235  KCAL/ANGSTROM
      6          2  C    CARTESIAN Z     0.021653      0.134915  KCAL/ANGSTROM
      7          3  N    CARTESIAN X    -0.427962      4.182433  KCAL/ANGSTROM
      8          3  N    CARTESIAN Y     1.603872      3.308676  KCAL/ANGSTROM
      9          3  N    CARTESIAN Z     0.023366      0.476363  KCAL/ANGSTROM
     10          4  N    CARTESIAN X     0.635836     -4.220854  KCAL/ANGSTROM
     11          4  N    CARTESIAN Y     2.110046     -4.395749  KCAL/ANGSTROM
     12          4  N    CARTESIAN Z     0.028320      0.293319  KCAL/ANGSTROM
     13          5  O    CARTESIAN X     1.758589     -0.794150  KCAL/ANGSTROM
     14          5  O    CARTESIAN Y     1.612372     -2.118027  KCAL/ANGSTROM
     15          5  O    CARTESIAN Z     0.031752     -0.080100  KCAL/ANGSTROM
     16          6  H    CARTESIAN X    -0.900589      0.656881  KCAL/ANGSTROM
     17          6  H    CARTESIAN Y    -0.633137      0.117360  KCAL/ANGSTROM
     18          6  H    CARTESIAN Z     0.014915     -0.453725  KCAL/ANGSTROM
     19          7  H    CARTESIAN X     2.352631     -0.900577  KCAL/ANGSTROM
     20          7  H    CARTESIAN Y    -0.531180     -0.191341  KCAL/ANGSTROM
     21          7  H    CARTESIAN Z     0.017564     -0.384734  KCAL/ANGSTROM




   ATOM                 CHEMICAL                   X               Y               Z
  NUMBER                 SYMBOL               (ANGSTROMS)     (ANGSTROMS)     (ANGSTROMS)
 
     1       C(HETATM    1  C1  HET A   1)    0.09006589  *  -0.30368056  *   0.02179519  *
     2       C(HETATM    2  C2  HET A   1)    1.33791663  *  -0.31165655  *   0.02165298  *
     3       N(HETATM    3  N1  HET B   2)   -0.42796197  *   1.60387202  *   0.02336630  *
     4       N(HETATM    4  N2  HET B   2)    0.63583595  *   2.11004634  *   0.02832009  *
     5       O(HETATM    5  O   HET B   2)    1.75858884  *   1.61237166  *   0.03175167  *
     6       H(HETATM    6  H1  HET A   1)   -0.90058902  *  -0.63313730  *   0.01491545  *
     7       H(HETATM    7  H2  HET A   1)    2.35263146  *  -0.53117959  *   0.01756384  *

                             CARTESIAN COORDINATES

   1    C        0.090065894    -0.303680560     0.021795192
   2    C        1.337916633    -0.311656551     0.021652976
   3    N       -0.427961971     1.603872022     0.023366303
   4    N        0.635835952     2.110046335     0.028320088
   5    O        1.758588840     1.612371661     0.031751666
   6    H       -0.900589016    -0.633137296     0.014915451
   7    H        2.352631459    -0.531179592     0.017563845


           Empirical Formula: C2 H2 N2 O  =     7 atoms



      MOLECULAR POINT GROUP   :   Cs  


                  EIGENVALUES  
 -40.97584 -31.79873 -27.18107 -23.23418 -20.80251 -17.60267 -17.16747 -16.58821
 -15.71172 -12.02486 -11.55762 -11.44946 -11.31538  -1.26840   0.31660   0.63484
   0.74875   2.53213   4.58911   5.25613   5.66931   5.88761


              NET ATOMIC CHARGES AND DIPOLE CONTRIBUTIONS

  ATOM NO.                 TYPE                        CHARGE      No. of ELECS.   s-Pop       p-Pop       
    1          C(HETATM    1  C1  HET A   1)          -0.149165        4.1492     1.15033     2.99884
    2          C(HETATM    2  C2  HET A   1)          -0.086282        4.0863     1.15807     2.92821
    3          N(HETATM    3  N1  HET B   2)          -0.203683        5.2037     1.86123     3.34245
    4          N(HETATM    4  N2  HET B   2)           0.261464        4.7385     1.60276     3.13577
    5          O(HETATM    5  O   HET B   2)          -0.230315        6.2303     1.94133     4.28899
    6          H(HETATM    6  H1  HET A   1)           0.209279        0.7907     0.79072
    7          H(HETATM    7  H2  HET A   1)           0.198702        0.8013     0.80130

          NET CHARGE ON RESIDUES

      Residue         Charge  Anion or
                              Cation?
      HET A   1       +0.173
      HET B   2       -0.173
 


 DIPOLE           X         Y         Z       TOTAL
 POINT-CHG.    -0.007    -1.500    -0.015     1.500
 HYBRID         0.727    -0.326     0.002     0.797
 SUM            0.720    -1.825    -0.013     1.962


          ATOMIC ORBITAL ELECTRON POPULATIONS

                   Atom                  s        px        py        pz   
   C(HETATM    1  C1  HET A   1)   1.15033   1.03270   0.97320   0.99293
   C(HETATM    2  C2  HET A   1)   1.15807   1.03492   0.88133   1.01197
   N(HETATM    3  N1  HET B   2)   1.86123   1.17342   0.92692   1.24211
   N(HETATM    4  N2  HET B   2)   1.60276   0.96764   1.16677   1.00136
   O(HETATM    5  O   HET B   2)   1.94133   1.19197   1.34540   1.75161
   H(HETATM    6  H1  HET A   1)   0.79072
   H(HETATM    7  H2  HET A   1)   0.80130

 **********************
 *                    *
 * JOB ENDED NORMALLY *
 *                    *
 **********************



 TOTAL JOB TIME:             4.26 SECONDS

 == MOPAC DONE ==
