 *******************************************************************************
 ** Site#: 37037        For non-commercial use only           Version 21.158W **
 *******************************************************************************
 ** Cite this program as: MOPAC2016, Version: 21.158W, James J. P. Stewart,   **
 ** Stewart Computational Chemistry, web: HTTP://OpenMOPAC.net. Days left: 358**
 *******************************************************************************
 **                                                                           **
 **                                MOPAC2016                                  **
 **                                                                           **
 *******************************************************************************

                              PM7 CALCULATION RESULTS

 *******************************************************************************
 *  CALCULATION DONE:                                Mon Jun 14 12:31:06 2021  *
 *  SYMMETRY   - SYMMETRY CONDITIONS TO BE IMPOSED
 *  T=         - A TIME OF 172800.0 SECONDS REQUESTED
 *  DUMP=N     - RESTART FILE WRITTEN EVERY 7200.0 SECONDS REQUESTED
 *******************************************************************************



                    PARAMETER DEPENDENCE DATA

        REFERENCE ATOM      FUNCTION NO.    DEPENDENT ATOM(S)
            2                  1               3

             DESCRIPTIONS OF THE FUNCTIONS USED
   1      BOND LENGTH    IS SET EQUAL TO THE REFERENCE BOND LENGTH   
 
symmetry
 Transition state for 1-Methyl cyclopenta-2,4-diene <=> 1-Methyl cyclopenta-1,3-diene

  ATOM    CHEMICAL      BOND LENGTH      BOND ANGLE     TWIST ANGLE 
 NUMBER    SYMBOL       (ANGSTROMS)      (DEGREES)       (DEGREES) 
   (I)                     NA:I           NB:NA:I       NC:NB:NA:I       NA    NB    NC 
     1       C          0.00000000       0.0000000       0.0000000        0     0     0
     2       H          1.40000000  *    0.0000000       0.0000000        1     0     0
     3       C          1.40000000      62.7000270  *    0.0000000        2     1     0
     4       C          1.40000000  *  110.0999930  *  -97.5000130  *     3     2     1
     5       H          1.00000000  *  109.4000000  * -120.1999810  *     1     2     3
     6       H          2.20000000  *  119.6999940  * -118.8000330  *     1     2     5
     7       H          2.20000000  *  132.0999910  *   60.4999890  *     4     3     2
     8       H          1.00000000  *  125.0999900  *  179.9000130  *     4     3     7
     9       C          1.54000000  *  110.0999860  * -142.7000300  *     3     2     4
    10       C          1.00000000  *   31.6000100  *  -70.7999960  *     6     1     2
    11       C          1.00000000  *   31.2000030  *    1.1999850  *     7     4     3
    12       H          1.09000000  *  109.4707620  *   52.9333790  *     9     3     2
    13       H          1.09000000  *  109.4714480  * -119.9998620  *     9     3    12
    14       H          1.09000000  *  109.4714480  * -120.0002740  *     9     3    13
 


          CARTESIAN COORDINATES 

    NO.       ATOM           X           Y           Z

     1         C          0.0000      0.0000      0.0000
     2         H          1.4000      0.0000      0.0000
     3         C          0.7579      1.2441      0.0000
     4         C          0.6897      1.7503     -1.3035
     5         H         -0.3322     -0.4745      0.8152
     6         H         -1.0900     -0.9842     -1.6380
     7         H         -0.2555      0.9834     -3.1361
     8         H          1.0983      2.6106     -1.6083
     9         C          1.1538      2.0440      1.2550
    10         C         -0.5183     -0.2230     -1.3319
    11         C         -0.0642      0.8713     -2.1609
    12         H          2.2404      2.0907      1.3282
    13         H          0.7507      1.5532      2.1408
    14         H          0.7507      3.0542      1.1841

 General Reference for PM7:
 "Optimization of Parameters for Semiempirical Methods VI: More Modifications to the 
 NDDO Approximations and Re-optimization of Parameters", J. J. P. Stewart, J. Mol. Mod., 1:32, 19 (2013)
 https://link.springer.com/article/10.1007/s00894-012-1667-x

           Empirical Formula: C6 H8  =    14 atoms



      MOLECULAR POINT GROUP   :   C1  


      RHF CALCULATION, NO. OF DOUBLY OCCUPIED LEVELS = 16


          Geometry optimization using EF

          DIAGONAL MATRIX USED AS START HESSIAN

 CYCLE:     1 TIME:   0.000 TIME LEFT:  2.00D  GRAD.:   219.333 HEAT:  74.49248
 CYCLE:     2 TIME:   0.016 TIME LEFT:  2.00D  GRAD.:   213.426 HEAT:  72.13502
 CYCLE:     3 TIME:   0.016 TIME LEFT:  2.00D  GRAD.:    93.168 HEAT:  68.90121
 CYCLE:     4 TIME:   0.000 TIME LEFT:  2.00D  GRAD.:    67.256 HEAT:  66.28582
 CYCLE:     5 TIME:   0.000 TIME LEFT:  2.00D  GRAD.:    35.768 HEAT:  63.95292
 CYCLE:     6 TIME:   0.000 TIME LEFT:  2.00D  GRAD.:    24.880 HEAT:  63.69744
 CYCLE:     7 TIME:   0.016 TIME LEFT:  2.00D  GRAD.:    23.363 HEAT:  63.59251
 CYCLE:     8 TIME:   0.000 TIME LEFT:  2.00D  GRAD.:    19.306 HEAT:  63.51535
 CYCLE:     9 TIME:   0.000 TIME LEFT:  2.00D  GRAD.:    16.912 HEAT:  63.44353
 CYCLE:    10 TIME:   0.016 TIME LEFT:  2.00D  GRAD.:    14.197 HEAT:  63.38267
 CYCLE:    11 TIME:   0.000 TIME LEFT:  2.00D  GRAD.:    10.488 HEAT:  63.33636
 CYCLE:    12 TIME:   0.000 TIME LEFT:  2.00D  GRAD.:     3.576 HEAT:  63.31300
 CYCLE:    13 TIME:   0.000 TIME LEFT:  2.00D  GRAD.:     3.516 HEAT:  63.30237
 CYCLE:    14 TIME:   0.016 TIME LEFT:  2.00D  GRAD.:     2.661 HEAT:  63.29180
 CYCLE:    15 TIME:   0.000 TIME LEFT:  2.00D  GRAD.:     3.086 HEAT:  63.27872
 CYCLE:    16 TIME:   0.000 TIME LEFT:  2.00D  GRAD.:     3.612 HEAT:  63.26753
 CYCLE:    17 TIME:   0.000 TIME LEFT:  2.00D  GRAD.:     2.540 HEAT:  63.25929
 CYCLE:    18 TIME:   0.016 TIME LEFT:  2.00D  GRAD.:     6.282 HEAT:  63.24545
 CYCLE:    19 TIME:   0.000 TIME LEFT:  2.00D  GRAD.:     3.149 HEAT:  63.23048
 CYCLE:    20 TIME:   0.000 TIME LEFT:  2.00D  GRAD.:     2.329 HEAT:  63.20565
 CYCLE:    21 TIME:   0.000 TIME LEFT:  2.00D  GRAD.:     4.252 HEAT:  63.17911
 CYCLE:    22 TIME:   0.016 TIME LEFT:  2.00D  GRAD.:     2.834 HEAT:  63.13658
 CYCLE:    23 TIME:   0.000 TIME LEFT:  2.00D  GRAD.:     1.391 HEAT:  63.12945
 CYCLE:    24 TIME:   0.016 TIME LEFT:  2.00D  GRAD.:     4.143 HEAT:  63.12777
 CYCLE:    25 TIME:   0.000 TIME LEFT:  2.00D  GRAD.:     1.848 HEAT:  63.12059
 CYCLE:    26 TIME:   0.000 TIME LEFT:  2.00D  GRAD.:     1.225 HEAT:  63.11940
 CYCLE:    27 TIME:   0.000 TIME LEFT:  2.00D  GRAD.:     0.322 HEAT:  63.11696

     GRADIENT =  0.32173 IS LESS THAN CUTOFF =  1.00000



 -------------------------------------------------------------------------------
 symmetry
 Transition state for 1-Methyl cyclopenta-2,4-diene <=> 1-Methyl cyclopenta-1,3-diene



     GEOMETRY OPTIMISED USING EIGENVECTOR FOLLOWING (EF).     
     SCF FIELD WAS ACHIEVED                                   


                              PM7 CALCULATION
                                                       MOPAC2016 (Version: 21.158W)
                                                       Mon Jun 14 12:31:07 2021
                                                       No. of days remaining = 358




          FINAL HEAT OF FORMATION =         63.11696 KCAL/MOL =     264.08138 KJ/MOL


          TOTAL ENERGY            =       -842.47178 EV
          ELECTRONIC ENERGY       =      -3565.99123 EV  POINT GROUP:     C1  
          CORE-CORE REPULSION     =       2723.51945 EV
          COSMO AREA              =        126.90 SQUARE ANGSTROMS
          COSMO VOLUME            =        116.54 CUBIC ANGSTROMS

          GRADIENT NORM           =          0.32173 = 0.08598 PER ATOM
          IONIZATION POTENTIAL    =          8.781325 EV
          HOMO LUMO ENERGIES (EV) =         -8.781  0.731
          NO. OF FILLED LEVELS    =         16
          MOLECULAR WEIGHT        =         80.1292

          MOLECULAR DIMENSIONS (Angstroms)

            Atom       Atom       Distance
            H    12    H     6     5.50405
            H     7    H     5     4.20266
            H     2    H    14     2.69591


          SCF CALCULATIONS        =         34
 
          WALL-CLOCK TIME         =          0.156 SECONDS
          COMPUTATION TIME        =          0.578 SECONDS




  ATOM    CHEMICAL      BOND LENGTH      BOND ANGLE     TWIST ANGLE 
 NUMBER    SYMBOL       (ANGSTROMS)      (DEGREES)       (DEGREES) 
   (I)                     NA:I           NB:NA:I       NC:NB:NA:I       NA    NB    NC 
     1       C          0.00000000       0.0000000       0.0000000        0     0     0
     2       H          1.43322810  *    0.0000000       0.0000000        1     0     0
     3       C          1.43322810      62.6702354  *    0.0000000        2     1     0
     4       C          1.41643894  *  108.7014207  *  -98.2984281  *     3     2     1
     5       H          1.07004064  *  110.0331070  * -119.9572889  *     1     2     3
     6       H          2.21239592  *  118.6050401  * -118.6802437  *     1     2     5
     7       H          2.20432746  *  132.1910779  *   61.3091836  *     4     3     2
     8       H          1.06897211  *  125.1585556  *  179.6521061  *     4     3     7
     9       C          1.48091779  *  109.8986381  * -141.0331542  *     3     2     4
    10       C          1.06944871  *   31.6006440  *  -70.6090445  *     6     1     2
    11       C          1.07231794  *   31.4244330  *    0.6304003  *     7     4     3
    12       H          1.09963725  *  112.1910159  *   78.2402824  *     9     3     2
    13       H          1.09753950  *  113.1187437  * -122.2129589  *     9     3    12
    14       H          1.10430188  *  110.1900296  * -119.1136482  *     9     3    13

                             CARTESIAN COORDINATES

   1    C        0.000000000     0.000000000     0.000000000
   2    H        1.433228104     0.000000000     0.000000000
   3    C        0.775217143     1.273249533     0.000000000
   4    C        0.738731725     1.765619574    -1.327606801
   5    H       -0.366556400    -0.501999688     0.870987761
   6    H       -1.059226779    -1.010898255    -1.658559328
   7    H       -0.185638421     0.986241013    -3.170747715
   8    H        1.192648734     2.674676656    -1.659685009
   9    C        1.174796588     2.047122524     1.197737181
  10    C       -0.459784057    -0.189692857    -1.326880785
  11    C       -0.000154249     0.871396580    -2.120856222
  12    H        2.170140021     2.500992096     1.085951949
  13    H        1.181179961     1.446633396     2.116412866
  14    H        0.466209919     2.876511820     1.369495625


           Empirical Formula: C6 H8  =    14 atoms



      MOLECULAR POINT GROUP   :   C1  


                  EIGENVALUES  
 -31.23878 -26.55261 -24.10334 -22.47943 -18.74255 -18.18341 -16.74199 -15.54101
 -14.38930 -13.52783 -13.21680 -12.78054 -12.59932 -12.22575  -9.60210  -8.78133
   0.73064   1.38714   3.01719   3.75029   4.11241   4.75469   5.11027   5.42395
   5.47412   5.74335   6.03287   6.31032   6.53059   6.64401   6.69356   6.70997


              NET ATOMIC CHARGES AND DIPOLE CONTRIBUTIONS

  ATOM NO.   TYPE          CHARGE      No. of ELECS.   s-Pop       p-Pop       
    1          C          -0.254206        4.2542     1.07787     3.17634
    2          H           0.282519        0.7175     0.71748
    3          C          -0.066068        4.0661     1.05887     3.00719
    4          C          -0.237543        4.2375     1.08090     3.15665
    5          H           0.163288        0.8367     0.83671
    6          H           0.152197        0.8478     0.84780
    7          H           0.147819        0.8522     0.85218
    8          H           0.153134        0.8469     0.84687
    9          C          -0.439417        4.4394     1.04434     3.39507
   10          C          -0.217028        4.2170     1.07913     3.13790
   11          C          -0.160020        4.1600     1.08483     3.07519
   12          H           0.155348        0.8447     0.84465
   13          H           0.149390        0.8506     0.85061
   14          H           0.170587        0.8294     0.82941
 DIPOLE           X         Y         Z       TOTAL
 POINT-CHG.     1.388    -0.415     1.450     2.050
 HYBRID         0.359    -0.178     0.203     0.449
 SUM            1.747    -0.594     1.652     2.477


          ATOMIC ORBITAL ELECTRON POPULATIONS

     Atom    s        px        py        pz   
    1  C   1.07787   0.98232   1.11857   1.07544
    2  H   0.71748
    3  C   1.05887   1.11288   0.89823   0.99608
    4  C   1.08090   1.08862   1.07688   0.99114
    5  H   0.83671
    6  H   0.84780
    7  H   0.85218
    8  H   0.84687
    9  C   1.04434   1.17473   1.14849   1.07186
   10  C   1.07913   1.08160   1.06978   0.98652
   11  C   1.08483   1.01401   0.99532   1.06586
   12  H   0.84465
   13  H   0.85061
   14  H   0.82941
 *******************************************************************************
 ** Site#: 37037        For non-commercial use only           Version 21.158W **
 *******************************************************************************
 ** Cite this program as: MOPAC2016, Version: 21.158W, James J. P. Stewart,   **
 ** Stewart Computational Chemistry, web: HTTP://OpenMOPAC.net. Days left: 358**
 *******************************************************************************
 **                                                                           **
 **                                MOPAC2016                                  **
 **                                                                           **
 *******************************************************************************

                              PM7 CALCULATION RESULTS

 *******************************************************************************
 *  CALCULATION DONE:                                Mon Jun 14 12:31:07 2021  *
 *  OPT        - OPTIMIZE COORDINATES OF ALL ATOMS
 *  OLDGEO     - PREVIOUS GEOMETRY TO BE USED
 *  TS         - USE EF ROUTINE FOR TS SEARCH
 *  T=         - A TIME OF 172800.0 SECONDS REQUESTED
 *  DUMP=N     - RESTART FILE WRITTEN EVERY 7200.0 SECONDS REQUESTED
 *******************************************************************************
oldgeo ts opt
 Transition state for 1-Methyl cyclopenta-2,4-diene <=> 1-Methyl cyclopenta-1,3-diene

  ATOM    CHEMICAL      BOND LENGTH      BOND ANGLE     TWIST ANGLE 
 NUMBER    SYMBOL       (ANGSTROMS)      (DEGREES)       (DEGREES) 
   (I)                     NA:I           NB:NA:I       NC:NB:NA:I       NA    NB    NC 
     1       C          0.00000000       0.0000000       0.0000000        0     0     0
     2       H          1.43322810  *    0.0000000       0.0000000        1     0     0
     3       C          1.43322810  *   62.6702354  *    0.0000000        2     1     0
     4       C          1.41643894  *  108.7014207  *  -98.2984281  *     3     2     1
     5       H          1.07004064  *  110.0331070  * -119.9572889  *     1     2     3
     6       H          2.21239592  *  118.6050401  * -118.6802437  *     1     2     5
     7       H          2.20432746  *  132.1910779  *   61.3091836  *     4     3     2
     8       H          1.06897211  *  125.1585556  *  179.6521061  *     4     3     7
     9       C          1.48091779  *  109.8986381  * -141.0331542  *     3     2     4
    10       C          1.06944871  *   31.6006440  *  -70.6090445  *     6     1     2
    11       C          1.07231794  *   31.4244330  *    0.6304003  *     7     4     3
    12       H          1.09963725  *  112.1910159  *   78.2402824  *     9     3     2
    13       H          1.09753950  *  113.1187437  * -122.2129589  *     9     3    12
    14       H          1.10430188  *  110.1900296  * -119.1136482  *     9     3    13
 


          CARTESIAN COORDINATES 

    NO.       ATOM           X           Y           Z

     1         C          0.0000      0.0000      0.0000
     2         H          1.4332      0.0000      0.0000
     3         C          0.7752      1.2732      0.0000
     4         C          0.7387      1.7656     -1.3276
     5         H         -0.3666     -0.5020      0.8710
     6         H         -1.0592     -1.0109     -1.6586
     7         H         -0.1856      0.9862     -3.1707
     8         H          1.1926      2.6747     -1.6597
     9         C          1.1748      2.0471      1.1977
    10         C         -0.4598     -0.1897     -1.3269
    11         C         -0.0002      0.8714     -2.1209
    12         H          2.1701      2.5010      1.0860
    13         H          1.1812      1.4466      2.1164
    14         H          0.4662      2.8765      1.3695

 General Reference for PM7:
 "Optimization of Parameters for Semiempirical Methods VI: More Modifications to the 
 NDDO Approximations and Re-optimization of Parameters", J. J. P. Stewart, J. Mol. Mod., 1:32, 19 (2013)
 https://link.springer.com/article/10.1007/s00894-012-1667-x

           Empirical Formula: C6 H8  =    14 atoms



      MOLECULAR POINT GROUP   :   C1  


      RHF CALCULATION, NO. OF DOUBLY OCCUPIED LEVELS = 16


          Transition state refinement using EF

          HESSIAN CALCULATED NUMERICALLY

 CYCLE:     1 TIME:   0.109 TIME LEFT:  2.00D  GRAD.:     8.137 HEAT:  63.11696
 CYCLE:     2 TIME:   0.016 TIME LEFT:  2.00D  GRAD.:     0.524 HEAT:  63.18035

     GRADIENT =  0.52362 IS LESS THAN CUTOFF =  1.00000



 -------------------------------------------------------------------------------
 ts opt
 Transition state for 1-Methyl cyclopenta-2,4-diene <=> 1-Methyl cyclopenta-1,3-diene



     GEOMETRY OPTIMISED USING EIGENVECTOR FOLLOWING (TS).     
     SCF FIELD WAS ACHIEVED                                   


                              PM7 CALCULATION
                                                       MOPAC2016 (Version: 21.158W)
                                                       Mon Jun 14 12:31:07 2021
                                                       No. of days remaining = 358




          FINAL HEAT OF FORMATION =         63.18035 KCAL/MOL =     264.34659 KJ/MOL


          TOTAL ENERGY            =       -842.46904 EV
          ELECTRONIC ENERGY       =      -3566.03577 EV  POINT GROUP:     C1  
          CORE-CORE REPULSION     =       2723.56674 EV
          COSMO AREA              =        126.82 SQUARE ANGSTROMS
          COSMO VOLUME            =        116.50 CUBIC ANGSTROMS

          GRADIENT NORM           =          0.52362 = 0.13994 PER ATOM
          IONIZATION POTENTIAL    =          8.792164 EV
          HOMO LUMO ENERGIES (EV) =         -8.792  0.724
          NO. OF FILLED LEVELS    =         16
          MOLECULAR WEIGHT        =         80.1292

          MOLECULAR DIMENSIONS (Angstroms)

            Atom       Atom       Distance
            H    12    H     6     5.50735
            H     7    H     5     4.20491
            H     2    H    14     2.70033


          SCF CALCULATIONS        =         39
 
          WALL-CLOCK TIME         =          0.297 SECONDS
          COMPUTATION TIME        =          1.125 SECONDS




  ATOM    CHEMICAL      BOND LENGTH      BOND ANGLE     TWIST ANGLE 
 NUMBER    SYMBOL       (ANGSTROMS)      (DEGREES)       (DEGREES) 
   (I)                     NA:I           NB:NA:I       NC:NB:NA:I       NA    NB    NC 
     1       C          0.00000000       0.0000000       0.0000000        0     0     0
     2       H          1.44519770  *    0.0000000       0.0000000        1     0     0
     3       C          1.42188935  *   62.6444448  *    0.0000000        2     1     0
     4       C          1.42069117  *  108.8064982  *  -98.2759774  *     3     2     1
     5       H          1.06998077  *  109.4094042  * -120.2256132  *     1     2     3
     6       H          2.21046408  *  118.8181205  * -118.5463627  *     1     2     5
     7       H          2.20304862  *  132.1243101  *   61.7790729  *     4     3     2
     8       H          1.06891374  *  125.0038575  *  179.7893963  *     4     3     7
     9       C          1.48127265  *  110.2275886  * -141.1421119  *     3     2     4
    10       C          1.06969036  *   31.4369372  *  -70.3941756  *     6     1     2
    11       C          1.07237878  *   31.2678576  *    0.7325011  *     7     4     3
    12       H          1.09959311  *  112.1634126  *   79.0393786  *     9     3     2
    13       H          1.09743693  *  113.1252341  * -122.2265296  *     9     3    12
    14       H          1.10432912  *  110.1990056  * -119.1029328  *     9     3    13

                             CARTESIAN COORDINATES

   1    C        0.000000000     0.000000000     0.000000000
   2    H        1.445197703     0.000000000     0.000000000
   3    C        0.791823960     1.262882451     0.000000000
   4    C        0.753302512     1.758610171    -1.330839408
   5    H       -0.355571668    -0.508023377     0.871974705
   6    H       -1.065511753    -1.004076964    -1.656099514
   7    H       -0.184257400     0.986382540    -3.168791834
   8    H        1.214903247     2.664273232    -1.661408260
   9    C        1.184554390     2.042702083     1.196583815
  10    C       -0.461554117    -0.186874949    -1.321953593
  11    C        0.006033554     0.873022572    -2.119537278
  12    H        2.172724740     2.510875217     1.080660237
  13    H        1.202940259     1.442573647     2.115210850
  14    H        0.464637573     2.861723265     1.371131488


           Empirical Formula: C6 H8  =    14 atoms



      MOLECULAR POINT GROUP   :   C1  


                  EIGENVALUES  
 -31.23658 -26.54011 -24.12446 -22.46138 -18.74138 -18.19815 -16.74449 -15.53091
 -14.38255 -13.52085 -13.22289 -12.77856 -12.59059 -12.22117  -9.59488  -8.79216
   0.72376   1.38856   3.01972   3.75265   4.12212   4.75501   5.10617   5.43508
   5.48600   5.74455   6.02668   6.30576   6.52838   6.65175   6.69052   6.70400


              NET ATOMIC CHARGES AND DIPOLE CONTRIBUTIONS

  ATOM NO.   TYPE          CHARGE      No. of ELECS.   s-Pop       p-Pop       
    1          C          -0.246877        4.2469     1.07936     3.16751
    2          H           0.281646        0.7184     0.71835
    3          C          -0.073951        4.0740     1.05743     3.01652
    4          C          -0.232599        4.2326     1.08138     3.15122
    5          H           0.162299        0.8377     0.83770
    6          H           0.152349        0.8477     0.84765
    7          H           0.147855        0.8521     0.85214
    8          H           0.152917        0.8471     0.84708
    9          C          -0.437618        4.4376     1.04418     3.39344
   10          C          -0.219465        4.2195     1.07901     3.14045
   11          C          -0.160473        4.1605     1.08492     3.07556
   12          H           0.155100        0.8449     0.84490
   13          H           0.148880        0.8511     0.85112
   14          H           0.169937        0.8301     0.83006
 DIPOLE           X         Y         Z       TOTAL
 POINT-CHG.     1.387    -0.418     1.433     2.038
 HYBRID         0.350    -0.194     0.199     0.447
 SUM            1.737    -0.612     1.632     2.460


          ATOMIC ORBITAL ELECTRON POPULATIONS

     Atom    s        px        py        pz   
    1  C   1.07936   0.97591   1.11704   1.07457
    2  H   0.71835
    3  C   1.05743   1.11916   0.90038   0.99698
    4  C   1.08138   1.08487   1.07566   0.99068
    5  H   0.83770
    6  H   0.84765
    7  H   0.85214
    8  H   0.84708
    9  C   1.04418   1.17519   1.14709   1.07117
   10  C   1.07901   1.08260   1.07030   0.98756
   11  C   1.08492   1.01393   0.99568   1.06594
   12  H   0.84490
   13  H   0.85112
   14  H   0.83006
 *******************************************************************************
 ** Site#: 37037        For non-commercial use only           Version 21.158W **
 *******************************************************************************
 ** Cite this program as: MOPAC2016, Version: 21.158W, James J. P. Stewart,   **
 ** Stewart Computational Chemistry, web: HTTP://OpenMOPAC.net. Days left: 358**
 *******************************************************************************
 **                                                                           **
 **                                MOPAC2016                                  **
 **                                                                           **
 *******************************************************************************

                              PM7 CALCULATION RESULTS

 *******************************************************************************
 *  CALCULATION DONE:                                Mon Jun 14 12:31:07 2021  *
 *  OLDGEO     - PREVIOUS GEOMETRY TO BE USED
 *  FORCE      - FORCE CALCULATION SPECIFIED
 *  T=         - A TIME OF 172800.0 SECONDS REQUESTED
 *  DUMP=N     - RESTART FILE WRITTEN EVERY 7200.0 SECONDS REQUESTED
 *  ISOTOPE    - SAVE THE FORCE MATRIX FOR USE LATER
 *******************************************************************************
oldgeo force isotope
 Transition state for 1-Methyl cyclopenta-2,4-diene <=> 1-Methyl cyclopenta-1,3-diene

  ATOM    CHEMICAL      BOND LENGTH      BOND ANGLE     TWIST ANGLE 
 NUMBER    SYMBOL       (ANGSTROMS)      (DEGREES)       (DEGREES) 
   (I)                     NA:I           NB:NA:I       NC:NB:NA:I       NA    NB    NC 
     1       C          0.00000000       0.0000000       0.0000000        0     0     0
     2       H          1.44519770  *    0.0000000       0.0000000        1     0     0
     3       C          1.42188935  *   62.6444448  *    0.0000000        2     1     0
     4       C          1.42069117  *  108.8064982  *  -98.2759774  *     3     2     1
     5       H          1.06998077  *  109.4094042  * -120.2256132  *     1     2     3
     6       H          2.21046408  *  118.8181205  * -118.5463627  *     1     2     5
     7       H          2.20304862  *  132.1243101  *   61.7790729  *     4     3     2
     8       H          1.06891374  *  125.0038575  *  179.7893963  *     4     3     7
     9       C          1.48127265  *  110.2275886  * -141.1421119  *     3     2     4
    10       C          1.06969036  *   31.4369372  *  -70.3941756  *     6     1     2
    11       C          1.07237878  *   31.2678576  *    0.7325011  *     7     4     3
    12       H          1.09959311  *  112.1634126  *   79.0393786  *     9     3     2
    13       H          1.09743693  *  113.1252341  * -122.2265296  *     9     3    12
    14       H          1.10432912  *  110.1990056  * -119.1029328  *     9     3    13
 


          CARTESIAN COORDINATES 

    NO.       ATOM           X           Y           Z

     1         C          0.0000      0.0000      0.0000
     2         H          1.4452      0.0000      0.0000
     3         C          0.7918      1.2629      0.0000
     4         C          0.7533      1.7586     -1.3308
     5         H         -0.3556     -0.5080      0.8720
     6         H         -1.0655     -1.0041     -1.6561
     7         H         -0.1843      0.9864     -3.1688
     8         H          1.2149      2.6643     -1.6614
     9         C          1.1846      2.0427      1.1966
    10         C         -0.4616     -0.1869     -1.3220
    11         C          0.0060      0.8730     -2.1195
    12         H          2.1727      2.5109      1.0807
    13         H          1.2029      1.4426      2.1152
    14         H          0.4646      2.8617      1.3711

 General Reference for PM7:
 "Optimization of Parameters for Semiempirical Methods VI: More Modifications to the 
 NDDO Approximations and Re-optimization of Parameters", J. J. P. Stewart, J. Mol. Mod., 1:32, 19 (2013)
 https://link.springer.com/article/10.1007/s00894-012-1667-x

           Empirical Formula: C6 H8  =    14 atoms



      MOLECULAR POINT GROUP   :   C1  


      RHF CALCULATION, NO. OF DOUBLY OCCUPIED LEVELS = 16



          HEAT OF FORMATION =      63.196127 KCALS/MOLE


          CARTESIAN COORDINATE DERIVATIVES

   NUMBER  ATOM         X            Y            Z

     1       C      0.172491    -0.010077     0.228973
     2       H     -0.013638    -0.174332     0.028071
     3       C     -0.380359     0.163074    -0.162998
     4       C      0.245933     0.051843     0.118049
     5       H      0.019617     0.030474    -0.118664
     6       H      0.033897    -0.123415    -0.058445
     7       H     -0.201733     0.084148    -0.003298
     8       H     -0.003652    -0.011688    -0.019678
     9       C      0.069811     0.029493    -0.004648
    10       C     -0.064908     0.177593    -0.050691
    11       C      0.132230    -0.204103     0.025413
    12       H      0.018200    -0.006158     0.022502
    13       H     -0.003525    -0.002678     0.000510
    14       H     -0.024365    -0.004177    -0.005098
 


          GRADIENT NORM =   0.75994

          MOLECULAR WEIGHT =   80.13



          ROTATIONAL CONSTANTS IN CM(-1)

          A =    0.26573949   B =    0.11110847   C =    0.08119677



           PRINCIPAL MOMENTS OF INERTIA IN UNITS OF 10**(-40)*GRAM-CM**2

          A =      105.3392   B =      251.9410   C =      344.7523


          ORIENTATION OF MOLECULE IN FORCE CALCULATION

    NO.       ATOM         X         Y         Z

     1          C      -0.4025   -0.9746    0.5492
     2          H       1.0427   -0.9746    0.5492
     3          C       0.3894    0.2883    0.5492
     4          C       0.3508    0.7840   -0.7817
     5          H      -0.7580   -1.4826    1.4211
     6          H      -1.4680   -1.9787   -1.1069
     7          H      -0.5867    0.0118   -2.6196
     8          H       0.8124    1.6897   -1.1122
     9          C       0.7821    1.0681    1.7457
    10          C      -0.8640   -1.1614   -0.7728
    11          C      -0.3964   -0.1016   -1.5704
    12          H       1.7703    1.5363    1.6298
    13          H       0.8005    0.4680    2.6644
    14          H       0.0622    1.8871    1.9203


    FIRST DERIVATIVES WILL BE USED IN THE CALCULATION OF SECOND DERIVATIVES

          ESTIMATED TIME TO COMPLETE CALCULATION =        0.00 SECONDS

    FOR POINT-GROUP C1   THERE ARE   1 UNIQUE SYMMETRY FUNCTIONS.

 STEP:   1 TIME =     0.00 SECS, INTEGRAL =      0.00 TIME LEFT: 172800.00
 STEP:   2 TIME =     0.02 SECS, INTEGRAL =      0.02 TIME LEFT: 172799.98
 STEP:   3 TIME =     0.00 SECS, INTEGRAL =      0.02 TIME LEFT: 172799.98
 STEP:   4 TIME =     0.02 SECS, INTEGRAL =      0.03 TIME LEFT: 172799.97
 STEP:   5 TIME =     0.02 SECS, INTEGRAL =      0.05 TIME LEFT: 172799.95
 STEP:   6 TIME =     0.00 SECS, INTEGRAL =      0.05 TIME LEFT: 172799.95
 STEP:   7 TIME =     0.02 SECS, INTEGRAL =      0.06 TIME LEFT: 172799.94
 STEP:   8 TIME =     0.00 SECS, INTEGRAL =      0.06 TIME LEFT: 172799.94
 STEP:   9 TIME =     0.02 SECS, INTEGRAL =      0.08 TIME LEFT: 172799.92
 STEP:  10 TIME =     0.00 SECS, INTEGRAL =      0.08 TIME LEFT: 172799.92
 STEP:  11 TIME =     0.02 SECS, INTEGRAL =      0.09 TIME LEFT: 172799.91
 STEP:  12 TIME =     0.00 SECS, INTEGRAL =      0.09 TIME LEFT: 172799.91
 STEP:  13 TIME =     0.02 SECS, INTEGRAL =      0.11 TIME LEFT: 172799.89
 STEP:  14 TIME =     0.00 SECS, INTEGRAL =      0.11 TIME LEFT: 172799.89
 STEP:  15 TIME =     0.02 SECS, INTEGRAL =      0.12 TIME LEFT: 172799.88
 STEP:  16 TIME =     0.00 SECS, INTEGRAL =      0.12 TIME LEFT: 172799.88
 STEP:  17 TIME =     0.02 SECS, INTEGRAL =      0.14 TIME LEFT: 172799.86
 STEP:  18 TIME =     0.00 SECS, INTEGRAL =      0.14 TIME LEFT: 172799.86
 STEP:  19 TIME =     0.02 SECS, INTEGRAL =      0.16 TIME LEFT: 172799.84
 STEP:  20 TIME =     0.00 SECS, INTEGRAL =      0.16 TIME LEFT: 172799.84
 STEP:  21 TIME =     0.00 SECS, INTEGRAL =      0.16 TIME LEFT: 172799.84
 STEP:  22 TIME =     0.02 SECS, INTEGRAL =      0.17 TIME LEFT: 172799.83
 STEP:  23 TIME =     0.00 SECS, INTEGRAL =      0.17 TIME LEFT: 172799.83
 STEP:  24 TIME =     0.02 SECS, INTEGRAL =      0.19 TIME LEFT: 172799.81
 STEP:  25 TIME =     0.00 SECS, INTEGRAL =      0.19 TIME LEFT: 172799.81
 STEP:  26 TIME =     0.02 SECS, INTEGRAL =      0.20 TIME LEFT: 172799.80
 STEP:  27 TIME =     0.00 SECS, INTEGRAL =      0.20 TIME LEFT: 172799.80
 STEP:  28 TIME =     0.02 SECS, INTEGRAL =      0.22 TIME LEFT: 172799.78
 STEP:  29 TIME =     0.00 SECS, INTEGRAL =      0.22 TIME LEFT: 172799.78
 STEP:  30 TIME =     0.02 SECS, INTEGRAL =      0.23 TIME LEFT: 172799.77
 STEP:  31 TIME =     0.00 SECS, INTEGRAL =      0.23 TIME LEFT: 172799.77
 STEP:  32 TIME =     0.00 SECS, INTEGRAL =      0.23 TIME LEFT: 172799.77
 STEP:  33 TIME =     0.02 SECS, INTEGRAL =      0.25 TIME LEFT: 172799.75
 STEP:  34 TIME =     0.00 SECS, INTEGRAL =      0.25 TIME LEFT: 172799.75
 STEP:  35 TIME =     0.00 SECS, INTEGRAL =      0.25 TIME LEFT: 172799.75
 STEP:  36 TIME =     0.02 SECS, INTEGRAL =      0.27 TIME LEFT: 172799.73
 STEP:  37 TIME =     0.00 SECS, INTEGRAL =      0.27 TIME LEFT: 172799.73
 STEP:  38 TIME =     0.00 SECS, INTEGRAL =      0.27 TIME LEFT: 172799.73
 STEP:  39 TIME =     0.02 SECS, INTEGRAL =      0.28 TIME LEFT: 172799.72
 STEP:  40 TIME =     0.00 SECS, INTEGRAL =      0.28 TIME LEFT: 172799.72
 STEP:  41 TIME =     0.00 SECS, INTEGRAL =      0.28 TIME LEFT: 172799.72
 STEP:  42 TIME =     0.02 SECS, INTEGRAL =      0.30 TIME LEFT: 172799.70

(To convert to Hartree/Bohr^2, multiply by (10^(-21) x N x a0^2)/(4.184 x 627.51) =  0.0642)


           FORCE MATRIX IN MILLIDYNES/ANGSTROM


                  C  1       H  2       C  3       C  4       H  5       H  6
 ------------------------------------------------------------------------------
     C    1  12.959292
     H    2   2.389940   2.784320
     C    3   5.121000   2.420796  14.400302
     C    4   1.985189   1.256693   5.339013  14.909936
     H    5   3.570891   0.289899   0.574060   0.104368   4.406222
     H    6   0.684218   0.024332   0.059599   0.080537   0.016840   4.454167
     H    7   0.081365   0.013344   0.082362   0.675832   0.007407   0.019372
     H    8   0.063732   0.022761   0.675134   3.616276   0.011628   0.006228
     C    9   0.518400   0.414396   4.175096   0.634996   0.016004   0.013766
     C   10   5.660096   1.301310   2.014041   2.226195   0.653656   3.608837
     C   11   2.402794   0.997902   2.384059   6.100428   0.113833   0.671703
     H   12   0.053309   0.012275   0.733248   0.014073   0.002022   0.002408
     H   13   0.019766   0.020627   0.714471   0.046026   0.008856   0.002483
     H   14   0.030939   0.037168   0.741161   0.013198   0.004996   0.002339


                  H  7       H  8       C  9       C 10       C 11       H 12
 ------------------------------------------------------------------------------
     H    7   4.445055
     H    8   0.020101   4.459366
     C    9   0.009445   0.023659  11.769963
     C   10   0.670524   0.081483   0.138117  14.970526
     C   11   3.603701   0.676317   0.129678   5.883613  15.199808
     H   12   0.001718   0.008920   3.398034   0.016725   0.011653   4.206415
     H   13   0.001847   0.001774   3.418445   0.013590   0.012734   0.461658
     H   14   0.001723   0.007678   3.363089   0.019394   0.015568   0.459915


                  H 13       H 14
 ------------------------------
     H   13   4.222410
     H   14   0.459621   4.177260


          HEAT OF FORMATION =      63.196127 KCALS/MOLE

          ZERO POINT ENERGY      69.548 KCAL/MOL

         NOTE: SYSTEM IS NOT A GROUND STATE, THEREFORE ZERO POINT
         ENERGY IS NOT MEANINGFULL. ZERO POINT ENERGY PRINTED
         DOES NOT INCLUDE THE  1 IMAGINARY FREQUENCIES


           NORMAL COORDINATE ANALYSIS (Total motion = 1 Angstrom)


   Root No.       1         2         3         4         5         6         7         8

                 1 A       2 A       3 A       4 A       5 A       6 A       7 A       8 A   

               -1604.5      96.9     257.4     323.3     505.9     570.7     663.9     808.4
  
           1   -0.0713   -0.0126   -0.0441   -0.0094   -0.0319   -0.0219    0.0029   -0.0187
           2    0.0073    0.0069    0.0140   -0.0440    0.0280    0.0168    0.0188    0.0028
           3   -0.0176    0.0022    0.0022   -0.0100    0.0088    0.0185   -0.0508   -0.0553
           4    0.3412   -0.0128   -0.0330   -0.0159   -0.0318   -0.0372   -0.0105   -0.0201
           5    0.5242   -0.0109    0.0318   -0.0453   -0.0224   -0.1019   -0.0207    0.0050
           6   -0.0211    0.0070    0.0210    0.0295    0.0769    0.0196    0.0309   -0.1109
           7    0.0399    0.0021   -0.0483   -0.0084    0.0122    0.0675    0.0643    0.0184
           8   -0.0619   -0.0026    0.0170   -0.0427   -0.0017   -0.0430    0.0091    0.0273
           9    0.0164    0.0004    0.0150    0.0296   -0.0053   -0.0225    0.0334   -0.0213
          10   -0.0110    0.0154   -0.0416    0.0086    0.0261   -0.0341   -0.0313    0.0333
          11   -0.0036   -0.0082    0.0195   -0.0116   -0.0155    0.0333   -0.0426    0.0580
          12   -0.0278   -0.0019    0.0141    0.0421   -0.0118    0.0163    0.0108    0.0150
          13    0.0628   -0.0230   -0.0648   -0.0242   -0.1108   -0.1158   -0.0640    0.0499
          14   -0.0484    0.0155    0.0170   -0.0719    0.0896    0.1169    0.0484    0.0254
          15   -0.0029    0.0030   -0.0052   -0.0324    0.0125    0.0381   -0.0596   -0.0144
          16    0.0076   -0.0176    0.0749    0.0002    0.1709    0.0081   -0.0557    0.0206
          17   -0.0028    0.0130   -0.0498    0.0127   -0.1101    0.0057   -0.0132   -0.1047
          18   -0.0094    0.0015   -0.0362   -0.0544   -0.0382    0.0065   -0.0079   -0.0864
          19   -0.0028    0.0161    0.0787   -0.0080   -0.1642    0.0425   -0.0125    0.0969
          20   -0.0056   -0.0056   -0.0399    0.0721    0.0954   -0.0184    0.0113   -0.0293
          21   -0.0006   -0.0035   -0.0215    0.0192    0.0383    0.0006   -0.0312    0.0817
          22   -0.0036    0.0284   -0.0698    0.0222    0.0801   -0.1594   -0.1016    0.0624
          23    0.0059   -0.0157    0.0390   -0.0057   -0.0499    0.1122   -0.0129    0.0128
          24    0.0085   -0.0041    0.0280    0.0759   -0.0303    0.0562   -0.0149   -0.0620
          25   -0.0054   -0.0024    0.0538    0.0104   -0.0005   -0.0089    0.0299    0.0047
          26    0.0049    0.0002   -0.0063    0.0510   -0.0055   -0.0171    0.0494    0.0088
          27    0.0028   -0.0001   -0.0009   -0.0388    0.0025   -0.0295    0.0738   -0.0071
          28    0.0004   -0.0090    0.0285   -0.0016    0.0554    0.0094   -0.0255   -0.0614
          29   -0.0109    0.0070   -0.0233    0.0013   -0.0355    0.0038   -0.0195   -0.0757
          30    0.0290    0.0007   -0.0174   -0.0229   -0.0128    0.0087   -0.0454   -0.0199
          31    0.0142    0.0086    0.0303   -0.0020   -0.0553    0.0213   -0.0212    0.0083
          32    0.0237   -0.0029   -0.0173    0.0279    0.0319   -0.0030   -0.0301   -0.0138
          33   -0.0007   -0.0018   -0.0104    0.0133    0.0122    0.0059   -0.0342    0.1041
          34   -0.0045   -0.1204    0.0651    0.0023   -0.0022   -0.0270    0.0157    0.0012
          35    0.0016    0.2231   -0.0447    0.0533    0.0007    0.0303    0.0811    0.0235
          36   -0.0019   -0.1100   -0.0712   -0.1141    0.0160    0.0223    0.1179    0.0366
          37   -0.0017    0.2616    0.1013    0.0444   -0.0056   -0.0414    0.0072   -0.0173
          38    0.0071   -0.0544   -0.0166    0.1386   -0.0125    0.0120    0.0590   -0.0178
          39    0.0057   -0.0419   -0.0088    0.0150   -0.0016   -0.0104    0.0781   -0.0233
          40   -0.0031   -0.1570    0.1024    0.0080   -0.0072   -0.0672   -0.0064   -0.0104
          41    0.0004   -0.1681    0.0211    0.0628   -0.0115   -0.0479    0.0249   -0.0029
          42   -0.0038    0.1533    0.0621   -0.0979    0.0020   -0.1023    0.0329   -0.0058


   Root No.       9        10        11        12        13        14        15        16

                 9 A      10 A      11 A      12 A      13 A      14 A      15 A      16 A   

                 834.8     902.7     953.7     964.5    1006.5    1034.5    1064.7    1079.5
  
           1   -0.0027    0.0213   -0.0013    0.0439   -0.0160   -0.0064    0.0077   -0.0184
           2    0.0109   -0.0148    0.0603    0.0235    0.0293   -0.0133    0.0349    0.0005
           3    0.0100   -0.0087   -0.0059   -0.0243    0.0013    0.0011   -0.0202    0.0093
           4   -0.0106    0.0342    0.0108    0.0694   -0.0214   -0.0250   -0.0125   -0.0383
           5   -0.0397    0.0355   -0.0283    0.0427   -0.0224   -0.0233   -0.0057   -0.0850
           6   -0.0759    0.0536   -0.1691    0.0010    0.0246    0.0016    0.3533   -0.1036
           7    0.0130    0.0021   -0.0077   -0.0140   -0.0020   -0.0048    0.0192    0.0416
           8   -0.0102   -0.0052   -0.0070   -0.0085    0.0021   -0.0046    0.0011   -0.0185
           9    0.0061   -0.0001    0.0152    0.0115    0.0020   -0.0050   -0.0017   -0.0079
          10   -0.0233   -0.0403   -0.0152    0.0165    0.0302    0.0124   -0.0176   -0.0090
          11   -0.0037    0.0247   -0.0057   -0.0212   -0.0193    0.0321    0.0117    0.0094
          12    0.0079    0.0086    0.0258    0.0118   -0.0028   -0.0400    0.0108   -0.0029
          13    0.0690   -0.1427    0.1147   -0.0680    0.0889   -0.0097    0.0780    0.0531
          14   -0.0548    0.1324   -0.0117    0.1807   -0.0975   -0.0203   -0.1535   -0.0300
          15    0.0003    0.0115    0.0012    0.0256   -0.0292   -0.0024   -0.0970    0.0193
          16    0.1968   -0.1526   -0.0681    0.0648   -0.1580    0.0052    0.0195   -0.0189
          17   -0.1137    0.0955    0.0144   -0.0710    0.0882    0.0118   -0.0438    0.0268
          18   -0.0362    0.0399    0.0756    0.0329    0.0685   -0.0284    0.0566   -0.0214
          19    0.1714    0.0887   -0.0853    0.0747    0.2230   -0.0531   -0.0133   -0.0117
          20   -0.1045   -0.0567    0.0964   -0.0118   -0.1317   -0.0840    0.0287   -0.0173
          21   -0.0602   -0.0210    0.0262   -0.0131   -0.0539    0.0011    0.0155   -0.0023
          22    0.1167    0.2300    0.0710   -0.0706   -0.1103   -0.0260    0.0368    0.0273
          23   -0.0849   -0.1373   -0.0510    0.0407    0.0660    0.0285   -0.0353   -0.0212
          24   -0.0194   -0.0581    0.0279    0.0647    0.0374   -0.0948   -0.0412   -0.0374
          25    0.0052   -0.0002   -0.0029   -0.0246   -0.0002    0.0017   -0.0151   -0.0476
          26   -0.0023   -0.0044   -0.0220   -0.0165   -0.0061   -0.0286   -0.0184    0.0262
          27    0.0018   -0.0007   -0.0081   -0.0041   -0.0040    0.0522   -0.0131    0.0165
          28   -0.0132    0.0227    0.0131   -0.0225    0.0418    0.0017   -0.0150    0.0116
          29    0.0252   -0.0161   -0.0149    0.0038   -0.0281    0.0014    0.0046   -0.0032
          30    0.0045   -0.0041   -0.0108    0.0002   -0.0126    0.0059   -0.0009   -0.0014
          31   -0.0205   -0.0107    0.0144   -0.0127   -0.0542    0.0011    0.0087    0.0010
          32    0.0106    0.0096   -0.0162    0.0043    0.0302    0.0007   -0.0128    0.0003
          33   -0.0138    0.0044   -0.0054    0.0036    0.0138    0.0027    0.0075   -0.0024
          34   -0.0083   -0.0017   -0.0188   -0.0021   -0.0040   -0.0257   -0.0010    0.0254
          35    0.0261   -0.0026    0.0073   -0.0700    0.0019    0.0055   -0.0460   -0.1250
          36    0.0223   -0.0126   -0.0438   -0.1336   -0.0060   -0.1336   -0.0800   -0.1434
          37   -0.0123    0.0060    0.0018    0.0478   -0.0037    0.0794    0.0188    0.0808
          38    0.0229    0.0089    0.0569    0.0301    0.0068    0.2207    0.0010   -0.0361
          39    0.0171    0.0065    0.0377    0.0209    0.0038    0.1849   -0.0021   -0.0248
          40   -0.0282    0.0002   -0.0320    0.0448   -0.0097   -0.0141    0.0177    0.1311
          41   -0.0165   -0.0013   -0.0198    0.0342   -0.0085    0.0087    0.0041    0.1135
          42   -0.0435   -0.0121   -0.0846    0.0171   -0.0174   -0.1297    0.0037    0.1802


   Root No.      17        18        19        20        21        22        23        24

                17 A      18 A      19 A      20 A      21 A      22 A      23 A      24 A   

                1147.7    1167.2    1190.0    1279.6    1282.6    1285.4    1345.1    1390.2
  
           1   -0.0065   -0.0039   -0.0131   -0.0035    0.0031    0.0124   -0.0370    0.0006
           2   -0.0102    0.0021   -0.0267   -0.0035    0.0029    0.0118   -0.0545    0.0021
           3    0.0167   -0.0066    0.0116   -0.0034    0.0033    0.0216   -0.0060   -0.0055
           4   -0.0031   -0.0196   -0.0247   -0.0007    0.0008    0.0114   -0.0436   -0.0032
           5    0.0191   -0.0261   -0.0103   -0.0006    0.0111    0.0218    0.1178   -0.0169
           6    0.0731    0.1017    0.0182    0.0094   -0.0006   -0.0231   -0.0387   -0.0004
           7    0.0038   -0.0038   -0.0022   -0.0005   -0.0014    0.0113    0.0562   -0.0006
           8    0.0135   -0.0089   -0.0083   -0.0001    0.0063    0.0178    0.1039   -0.0028
           9   -0.0061   -0.0095   -0.0227    0.0017   -0.0024   -0.0169   -0.0043    0.0088
          10   -0.0103   -0.0009    0.0080    0.0016   -0.0018   -0.0097    0.0030   -0.0035
          11   -0.0196    0.0101    0.0237    0.0001   -0.0030   -0.0081   -0.0229   -0.0013
          12    0.0085   -0.0080   -0.0183    0.0053   -0.0027   -0.0209    0.0500   -0.0091
          13    0.1597    0.1719    0.0337    0.0162   -0.0198   -0.1012   -0.0084    0.0018
          14    0.1103    0.1003    0.0143    0.0112   -0.0203   -0.0912    0.0015    0.0019
          15    0.1513    0.1248    0.0549    0.0134   -0.0195   -0.0851    0.0228   -0.0039
          16   -0.0112   -0.0144   -0.0131    0.0009    0.0001   -0.0035    0.0027    0.0012
          17    0.0621    0.0184   -0.1402   -0.0101    0.0120    0.0551   -0.0345    0.0018
          18   -0.1545   -0.0805    0.2855    0.0283   -0.0314   -0.1564    0.0957   -0.0007
          19    0.1057   -0.0904    0.1283   -0.0170    0.0154    0.0875   -0.0531    0.0073
          20    0.1681   -0.1338    0.2184   -0.0260    0.0244    0.1385   -0.0749    0.0101
          21   -0.0032   -0.0159   -0.0266   -0.0012    0.0014    0.0017   -0.0086    0.0025
          22   -0.0576    0.1082    0.0482   -0.0074    0.0095    0.0640    0.0254   -0.0015
          23   -0.0433    0.0497    0.0383   -0.0027    0.0042    0.0293   -0.0034   -0.0013
          24   -0.1311    0.2515    0.0735   -0.0135    0.0320    0.1820    0.1033   -0.0044
          25   -0.0014    0.0054    0.0048   -0.0117   -0.0283   -0.0015   -0.0177   -0.0186
          26   -0.0108    0.0072    0.0106   -0.0278    0.0121   -0.0106   -0.0371   -0.0324
          27   -0.0003    0.0090    0.0204    0.0159    0.0037    0.0079   -0.0247   -0.0549
          28   -0.0022   -0.0105   -0.0137    0.0011   -0.0008   -0.0066    0.0099    0.0004
          29   -0.0044   -0.0173   -0.0208    0.0026   -0.0015   -0.0139    0.0151   -0.0016
          30   -0.0095   -0.0028   -0.0030   -0.0019    0.0030    0.0147   -0.0083    0.0059
          31    0.0006    0.0002   -0.0005    0.0011   -0.0019   -0.0094   -0.0083    0.0032
          32    0.0037    0.0051    0.0081    0.0023   -0.0035   -0.0168   -0.0061    0.0042
          33   -0.0013   -0.0177   -0.0261   -0.0017    0.0016    0.0032   -0.0131    0.0025
          34   -0.0056    0.0049    0.0042   -0.1358    0.0854   -0.0260   -0.0038   -0.0274
          35   -0.0011    0.0055    0.0055    0.2627   -0.1599    0.0342   -0.0389    0.0809
          36   -0.0226    0.0240    0.0139    0.0190    0.1833   -0.0551   -0.0922    0.2784
          37    0.0070    0.0033    0.0172    0.0563    0.3313   -0.0220    0.0199    0.0985
          38    0.0216    0.0075    0.0249   -0.1478   -0.0471    0.0235    0.0635    0.2455
          39    0.0169    0.0084    0.0243   -0.0813   -0.0405    0.0230    0.0345    0.1337
          40   -0.0042   -0.0016    0.0069    0.2287   -0.0528    0.0307   -0.0128    0.1427
          41   -0.0039   -0.0018    0.0098    0.2277    0.0173    0.0229   -0.0129    0.0553
          42   -0.0259    0.0108    0.0095   -0.1641   -0.2005   -0.0005   -0.0410    0.2192


   Root No.      25        26        27        28        29        30        31        32

                25 A      26 A      27 A      28 A      29 A      30 A      31 A      32 A   

                1450.9    1486.4    1547.3    1571.0    2145.9    2664.0    2677.0    2778.5
  
           1    0.0241   -0.0195   -0.0253   -0.0051   -0.0441    0.0003   -0.0006   -0.0026
           2    0.0144   -0.0059   -0.0098   -0.0178   -0.0138    0.0001   -0.0007   -0.0038
           3    0.1058   -0.0306   -0.0800    0.0053    0.0006   -0.0000    0.0004    0.0073
           4    0.1207    0.0398   -0.0145   -0.0431    0.6938   -0.0040    0.0021   -0.0024
           5    0.1386    0.0467   -0.0277   -0.0163   -0.4447    0.0036   -0.0017    0.0008
           6    0.0206    0.0111    0.0010    0.0025    0.0456    0.0007   -0.0001    0.0009
           7    0.0013   -0.0231   -0.0055    0.0269   -0.0074    0.0024    0.0016   -0.0017
           8   -0.0177   -0.0287   -0.0140    0.0088    0.0486   -0.0022    0.0027   -0.0034
           9   -0.0120   -0.0840    0.0309    0.1453    0.0029   -0.0005   -0.0015   -0.0047
          10    0.0490   -0.0093    0.0648   -0.0053   -0.0025    0.0001   -0.0002    0.0007
          11    0.0597   -0.0180    0.0834    0.0344    0.0016    0.0001   -0.0006    0.0015
          12    0.0544    0.0123    0.0573   -0.1052   -0.0042   -0.0000    0.0006   -0.0001
          13   -0.0487    0.0585    0.0276    0.0475   -0.0114   -0.0005    0.0028    0.0364
          14   -0.0543    0.0513    0.0377    0.0545   -0.0048   -0.0002    0.0036    0.0524
          15    0.0244    0.0172   -0.0218    0.0702    0.0014    0.0008   -0.0068   -0.0905
          16   -0.0338    0.0490    0.0223    0.0067   -0.0039    0.0006   -0.0005    0.0041
          17   -0.0281    0.0490    0.0791    0.0022   -0.0075    0.0007   -0.0006    0.0056
          18   -0.0480    0.0729   -0.1149    0.0333    0.0083    0.0003   -0.0002    0.0023
          19   -0.0519    0.0394    0.0538    0.0459   -0.0002    0.0001   -0.0001    0.0001
          20   -0.0682    0.0316    0.1158    0.0640    0.0001   -0.0000   -0.0000    0.0001
          21   -0.0418    0.0764   -0.0683    0.0224   -0.0031    0.0007   -0.0002   -0.0002
          22    0.0083    0.0211    0.0205    0.0467    0.0046   -0.0007    0.0031   -0.0088
          23    0.0315   -0.0154    0.0544    0.0576    0.0074   -0.0007    0.0061   -0.0173
          24   -0.0589    0.0940   -0.0581    0.0674    0.0089    0.0002   -0.0018    0.0059
          25   -0.0037    0.0091    0.0008   -0.0092   -0.0001    0.0415    0.0228   -0.0057
          26   -0.0025    0.0158    0.0021   -0.0152   -0.0008   -0.0247    0.0342   -0.0102
          27   -0.0066    0.0286   -0.0109   -0.0356    0.0003    0.0034   -0.0301   -0.0170
          28   -0.0311    0.0545    0.0315    0.0134   -0.0023   -0.0000    0.0000   -0.0004
          29   -0.0057    0.0989    0.0050    0.0415    0.0011   -0.0000   -0.0000   -0.0008
          30   -0.1016   -0.0364    0.1069   -0.0561   -0.0033   -0.0001    0.0001    0.0005
          31   -0.0418   -0.0321   -0.0747   -0.0255   -0.0003   -0.0000    0.0001    0.0002
          32   -0.0524   -0.0826   -0.0868   -0.0561    0.0004   -0.0001    0.0001    0.0004
          33   -0.0371    0.0784   -0.0818    0.0393   -0.0004   -0.0001    0.0000   -0.0002
          34   -0.0028   -0.0019    0.0021    0.0054    0.0042   -0.2369   -0.3691    0.2470
          35    0.0022    0.0194    0.0032   -0.0190   -0.0036   -0.1379   -0.1669    0.1171
          36    0.0289    0.0371    0.0122   -0.0330   -0.0054    0.0249    0.0192   -0.0293
          37    0.0130    0.0156   -0.0090   -0.0255    0.0026    0.0167    0.0235    0.0049
          38    0.0213    0.0490   -0.0193   -0.0782    0.0042    0.0843   -0.2300   -0.1567
          39    0.0094    0.0364   -0.0191   -0.0504   -0.0019   -0.1546    0.3822    0.2393
          40    0.0221    0.0215   -0.0036   -0.0253   -0.0131   -0.3022    0.0564   -0.1688
          41    0.0069    0.0117   -0.0029   -0.0120    0.0062    0.3696   -0.0356    0.1926
          42    0.0306    0.0319    0.0020   -0.0288   -0.0054    0.0947   -0.0281    0.0409


   Root No.      33        34        35        36

                33 A      34 A      35 A      36 A   

                2781.8    2790.3    2796.1    2805.2
  
           1    0.0114    0.0017   -0.0013    0.0036
           2    0.0174    0.0021   -0.0017    0.0057
           3   -0.0322   -0.0005    0.0008   -0.0075
           4    0.0092    0.0010    0.0007    0.0007
           5    0.0028   -0.0007    0.0013    0.0007
           6   -0.0021    0.0002    0.0004   -0.0020
           7    0.0010   -0.0005   -0.0002   -0.0012
           8    0.0015   -0.0011   -0.0009   -0.0016
           9   -0.0029    0.0011    0.0011   -0.0011
          10    0.0031   -0.0059   -0.0130   -0.0104
          11    0.0057   -0.0105   -0.0258   -0.0209
          12   -0.0010    0.0013    0.0097    0.0081
          13   -0.1631   -0.0095    0.0077   -0.0358
          14   -0.2344   -0.0141    0.0109   -0.0520
          15    0.4029    0.0248   -0.0185    0.0891
          16    0.0585   -0.1208    0.2441   -0.1338
          17    0.0782   -0.1633    0.3297   -0.1808
          18    0.0325   -0.0671    0.1348   -0.0742
          19    0.0068    0.0880    0.0111   -0.0361
          20   -0.0045   -0.0523   -0.0066    0.0214
          21    0.0388    0.4846    0.0610   -0.1986
          22   -0.0394    0.0675    0.1717    0.1277
          23   -0.0771    0.1321    0.3365    0.2507
          24    0.0287   -0.0486   -0.1228   -0.0917
          25   -0.0012   -0.0003   -0.0003   -0.0005
          26   -0.0020   -0.0005   -0.0004   -0.0012
          27   -0.0046   -0.0006    0.0000   -0.0015
          28   -0.0040    0.0093   -0.0191    0.0115
          29   -0.0048    0.0134   -0.0253    0.0153
          30   -0.0044    0.0026   -0.0114    0.0061
          31   -0.0010   -0.0069   -0.0029    0.0029
          32   -0.0007    0.0043   -0.0027   -0.0022
          33   -0.0025   -0.0376   -0.0049    0.0172
          34    0.0557    0.0101    0.0053    0.0237
          35    0.0262    0.0049    0.0027    0.0117
          36   -0.0069   -0.0012   -0.0006   -0.0024
          37    0.0014    0.0001   -0.0001    0.0005
          38   -0.0408   -0.0055   -0.0003   -0.0132
          39    0.0636    0.0082   -0.0001    0.0209
          40   -0.0398   -0.0064   -0.0021   -0.0160
          41    0.0453    0.0074    0.0025    0.0187
          42    0.0098    0.0014    0.0004    0.0042


           MASS-WEIGHTED COORDINATE ANALYSIS (NORMAL COORDINATES)


   Root No.       1         2         3         4         5         6         7         8

                 1 A       2 A       3 A       4 A       5 A       6 A       7 A       8 A   

               -1604.5      96.9     257.4     323.3     505.9     570.7     663.9     808.4
  
           1   -0.3281   -0.0895   -0.3200   -0.0686   -0.2159   -0.1497    0.0168   -0.0987
           2    0.0335    0.0486    0.1015   -0.3198    0.1895    0.1152    0.1075    0.0147
           3   -0.0809    0.0159    0.0156   -0.0724    0.0597    0.1270   -0.2906   -0.2913
           4    0.4546   -0.0263   -0.0694   -0.0334   -0.0624   -0.0737   -0.0175   -0.0307
           5    0.6984   -0.0224    0.0668   -0.0952   -0.0439   -0.2021   -0.0344    0.0077
           6   -0.0281    0.0143    0.0441    0.0620    0.1509    0.0389    0.0513   -0.1692
           7    0.1834    0.0151   -0.3505   -0.0613    0.0824    0.4623    0.3679    0.0968
           8   -0.2848   -0.0187    0.1232   -0.3105   -0.0113   -0.2946    0.0518    0.1438
           9    0.0756    0.0029    0.1092    0.2148   -0.0361   -0.1544    0.1912   -0.1124
          10   -0.0504    0.1088   -0.3021    0.0625    0.1765   -0.2334   -0.1792    0.1754
          11   -0.0165   -0.0582    0.1414   -0.0843   -0.1050    0.2282   -0.2439    0.3052
          12   -0.1280   -0.0134    0.1026    0.3057   -0.0798    0.1115    0.0620    0.0792
          13    0.0837   -0.0471   -0.1362   -0.0508   -0.2173   -0.2297   -0.1061    0.0761
          14   -0.0644    0.0317    0.0358   -0.1514    0.1756    0.2318    0.0802    0.0387
          15   -0.0038    0.0062   -0.0109   -0.0682    0.0245    0.0756   -0.0987   -0.0219
          16    0.0101   -0.0361    0.1575    0.0005    0.3352    0.0161   -0.0924    0.0315
          17   -0.0037    0.0267   -0.1047    0.0267   -0.2158    0.0114   -0.0219   -0.1596
          18   -0.0125    0.0032   -0.0762   -0.1144   -0.0750    0.0129   -0.0131   -0.1318
          19   -0.0038    0.0330    0.1654   -0.0169   -0.3219    0.0842   -0.0206    0.1478
          20   -0.0075   -0.0116   -0.0840    0.1517    0.1870   -0.0365    0.0187   -0.0447
          21   -0.0008   -0.0071   -0.0452    0.0404    0.0751    0.0012   -0.0517    0.1245
          22   -0.0049    0.0583   -0.1468    0.0468    0.1571   -0.3161   -0.1684    0.0952
          23    0.0079   -0.0322    0.0821   -0.0119   -0.0979    0.2225   -0.0214    0.0195
          24    0.0113   -0.0084    0.0589    0.1598   -0.0594    0.1114   -0.0246   -0.0945
          25   -0.0247   -0.0169    0.3905    0.0755   -0.0031   -0.0611    0.1713    0.0248
          26    0.0226    0.0011   -0.0455    0.3703   -0.0369   -0.1172    0.2828    0.0465
          27    0.0129   -0.0010   -0.0063   -0.2818    0.0171   -0.2018    0.4225   -0.0375
          28    0.0016   -0.0639    0.2070   -0.0114    0.3749    0.0645   -0.1461   -0.3230
          29   -0.0501    0.0495   -0.1695    0.0093   -0.2401    0.0263   -0.1116   -0.3984
          30    0.1333    0.0053   -0.1263   -0.1661   -0.0865    0.0595   -0.2599   -0.1046
          31    0.0654    0.0611    0.2200   -0.0145   -0.3745    0.1457   -0.1214    0.0436
          32    0.1092   -0.0204   -0.1255    0.2029    0.2156   -0.0206   -0.1721   -0.0729
          33   -0.0031   -0.0128   -0.0753    0.0969    0.0827    0.0406   -0.1955    0.5481
          34   -0.0059   -0.2469    0.1369    0.0048   -0.0044   -0.0536    0.0261    0.0019
          35    0.0021    0.4574   -0.0940    0.1121    0.0013    0.0601    0.1345    0.0359
          36   -0.0025   -0.2255   -0.1498   -0.2401    0.0315    0.0442    0.1954    0.0558
          37   -0.0023    0.5364    0.2130    0.0935   -0.0109   -0.0821    0.0119   -0.0264
          38    0.0094   -0.1114   -0.0350    0.2918   -0.0244    0.0238    0.0978   -0.0271
          39    0.0076   -0.0859   -0.0185    0.0315   -0.0032   -0.0207    0.1296   -0.0355
          40   -0.0042   -0.3219    0.2153    0.0168   -0.0142   -0.1333   -0.0106   -0.0158
          41    0.0005   -0.3446    0.0444    0.1322   -0.0225   -0.0950    0.0414   -0.0044
          42   -0.0051    0.3144    0.1305   -0.2061    0.0039   -0.2029    0.0546   -0.0089


   Root No.       9        10        11        12        13        14        15        16

                 9 A      10 A      11 A      12 A      13 A      14 A      15 A      16 A   

                 834.8     902.7     953.7     964.5    1006.5    1034.5    1064.7    1079.5
  
           1   -0.0223    0.1592   -0.0107    0.3648   -0.1093   -0.0461    0.0554   -0.1391
           2    0.0913   -0.1104    0.5020    0.1953    0.2004   -0.0960    0.2505    0.0035
           3    0.0831   -0.0652   -0.0489   -0.2022    0.0089    0.0081   -0.1453    0.0701
           4   -0.0257    0.0740    0.0260    0.1672   -0.0424   -0.0525   -0.0261   -0.0839
           5   -0.0959    0.0768   -0.0683    0.1028   -0.0443   -0.0489   -0.0118   -0.1860
           6   -0.1835    0.1161   -0.4076    0.0025    0.0487    0.0033    0.7354   -0.2267
           7    0.1084    0.0157   -0.0637   -0.1166   -0.0138   -0.0348    0.1382    0.3143
           8   -0.0849   -0.0386   -0.0584   -0.0708    0.0142   -0.0335    0.0081   -0.1398
           9    0.0509   -0.0006    0.1268    0.0956    0.0136   -0.0362   -0.0119   -0.0594
          10   -0.1947   -0.3014   -0.1261    0.1370    0.2061    0.0896   -0.1264   -0.0681
          11   -0.0310    0.1842   -0.0471   -0.1767   -0.1318    0.2321    0.0838    0.0713
          12    0.0659    0.0641    0.2145    0.0980   -0.0190   -0.2897    0.0775   -0.0221
          13    0.1669   -0.3087    0.2764   -0.1637    0.1759   -0.0203    0.1623    0.1161
          14   -0.1325    0.2865   -0.0281    0.4355   -0.1929   -0.0426   -0.3195   -0.0657
          15    0.0007    0.0249    0.0028    0.0618   -0.0577   -0.0050   -0.2018    0.0421
          16    0.4756   -0.3302   -0.1641    0.1563   -0.3125    0.0110    0.0407   -0.0414
          17   -0.2748    0.2067    0.0346   -0.1710    0.1744    0.0247   -0.0913    0.0586
          18   -0.0876    0.0864    0.1822    0.0792    0.1356   -0.0596    0.1179   -0.0468
          19    0.4143    0.1919   -0.2055    0.1800    0.4412   -0.1114   -0.0277   -0.0255
          20   -0.2524   -0.1226    0.2324   -0.0284   -0.2605   -0.1762    0.0598   -0.0378
          21   -0.1456   -0.0454    0.0631   -0.0316   -0.1066    0.0023    0.0322   -0.0049
          22    0.2821    0.4976    0.1711   -0.1700   -0.2181   -0.0545    0.0767    0.0598
          23   -0.2051   -0.2970   -0.1230    0.0980    0.1306    0.0598   -0.0735   -0.0463
          24   -0.0470   -0.1257    0.0673    0.1558    0.0740   -0.1988   -0.0858   -0.0818
          25    0.0434   -0.0016   -0.0238   -0.2049   -0.0012    0.0126   -0.1087   -0.3598
          26   -0.0188   -0.0331   -0.1827   -0.1372   -0.0418   -0.2074   -0.1323    0.1976
          27    0.0148   -0.0056   -0.0672   -0.0341   -0.0274    0.3781   -0.0939    0.1246
          28   -0.1100    0.1694    0.1088   -0.1874    0.2854    0.0124   -0.1078    0.0875
          29    0.2101   -0.1201   -0.1236    0.0314   -0.1917    0.0098    0.0328   -0.0242
          30    0.0375   -0.0303   -0.0902    0.0020   -0.0863    0.0428   -0.0064   -0.0105
          31   -0.1709   -0.0803    0.1196   -0.1053   -0.3700    0.0082    0.0625    0.0075
          32    0.0887    0.0714   -0.1350    0.0356    0.2064    0.0052   -0.0919    0.0022
          33   -0.1152    0.0326   -0.0450    0.0299    0.0944    0.0192    0.0540   -0.0181
          34   -0.0200   -0.0036   -0.0453   -0.0050   -0.0078   -0.0539   -0.0021    0.0556
          35    0.0632   -0.0057    0.0176   -0.1688    0.0038    0.0115   -0.0958   -0.2736
          36    0.0540   -0.0273   -0.1055   -0.3220   -0.0118   -0.2802   -0.1665   -0.3138
          37   -0.0297    0.0130    0.0044    0.1153   -0.0073    0.1666    0.0390    0.1768
          38    0.0554    0.0192    0.1372    0.0725    0.0134    0.4630    0.0022   -0.0791
          39    0.0414    0.0140    0.0909    0.0503    0.0076    0.3878   -0.0043   -0.0543
          40   -0.0683    0.0005   -0.0772    0.1080   -0.0193   -0.0296    0.0368    0.2869
          41   -0.0398   -0.0028   -0.0477    0.0824   -0.0168    0.0183    0.0085    0.2483
          42   -0.1051   -0.0262   -0.2040    0.0413   -0.0344   -0.2720    0.0077    0.3944


   Root No.      17        18        19        20        21        22        23        24

                17 A      18 A      19 A      20 A      21 A      22 A      23 A      24 A   

                1147.7    1167.2    1190.0    1279.6    1282.6    1285.4    1345.1    1390.2
  
           1   -0.0539   -0.0303   -0.0932   -0.0230    0.0219    0.1056   -0.2139    0.0040
           2   -0.0844    0.0165   -0.1896   -0.0232    0.0203    0.1003   -0.3152    0.0135
           3    0.1376   -0.0517    0.0824   -0.0226    0.0229    0.1837   -0.0349   -0.0344
           4   -0.0073   -0.0445   -0.0508   -0.0013    0.0016    0.0281   -0.0731   -0.0059
           5    0.0455   -0.0592   -0.0213   -0.0011    0.0227    0.0539    0.1975   -0.0308
           6    0.1745    0.2309    0.0375    0.0182   -0.0013   -0.0571   -0.0648   -0.0007
           7    0.0312   -0.0301   -0.0157   -0.0033   -0.0102    0.0961    0.3252   -0.0036
           8    0.1109   -0.0696   -0.0591   -0.0005    0.0444    0.1520    0.6013   -0.0174
           9   -0.0501   -0.0746   -0.1611    0.0115   -0.0168   -0.1444   -0.0246    0.0553
          10   -0.0849   -0.0073    0.0565    0.0107   -0.0124   -0.0824    0.0175   -0.0221
          11   -0.1615    0.0794    0.1681    0.0007   -0.0212   -0.0686   -0.1327   -0.0079
          12    0.0700   -0.0629   -0.1297    0.0350   -0.0192   -0.1783    0.2893   -0.0575
          13    0.3812    0.3900    0.0693    0.0312   -0.0403   -0.2497   -0.0141    0.0033
          14    0.2633    0.2277    0.0295    0.0217   -0.0415   -0.2250    0.0026    0.0034
          15    0.3612    0.2831    0.1130    0.0258   -0.0397   -0.2099    0.0382   -0.0072
          16   -0.0266   -0.0326   -0.0270    0.0017    0.0003   -0.0086    0.0044    0.0022
          17    0.1482    0.0417   -0.2883   -0.0195    0.0244    0.1359   -0.0579    0.0033
          18   -0.3689   -0.1828    0.5873    0.0546   -0.0639   -0.3860    0.1604   -0.0013
          19    0.2522   -0.2053    0.2639   -0.0329    0.0314    0.2160   -0.0890    0.0133
          20    0.4012   -0.3037    0.4493   -0.0501    0.0498    0.3418   -0.1256    0.0184
          21   -0.0077   -0.0360   -0.0547   -0.0023    0.0028    0.0043   -0.0145    0.0045
          22   -0.1375    0.2456    0.0992   -0.0142    0.0194    0.1579    0.0426   -0.0027
          23   -0.1035    0.1128    0.0787   -0.0052    0.0086    0.0723   -0.0056   -0.0023
          24   -0.3129    0.5708    0.1512   -0.0260    0.0651    0.4493    0.1732   -0.0080
          25   -0.0112    0.0420    0.0338   -0.0778   -0.1989   -0.0126   -0.1023   -0.1170
          26   -0.0886    0.0566    0.0754   -0.1856    0.0853   -0.0900   -0.2146   -0.2038
          27   -0.0021    0.0704    0.1451    0.1062    0.0259    0.0672   -0.1427   -0.3459
          28   -0.0183   -0.0822   -0.0973    0.0074   -0.0057   -0.0559    0.0575    0.0023
          29   -0.0366   -0.1356   -0.1478    0.0170   -0.0108   -0.1181    0.0875   -0.0103
          30   -0.0781   -0.0221   -0.0215   -0.0125    0.0208    0.1257   -0.0483    0.0369
          31    0.0053    0.0012   -0.0038    0.0071   -0.0131   -0.0801   -0.0482    0.0204
          32    0.0301    0.0397    0.0573    0.0156   -0.0245   -0.1430   -0.0351    0.0265
          33   -0.0109   -0.1383   -0.1852   -0.0113    0.0112    0.0271   -0.0755    0.0159
          34   -0.0135    0.0111    0.0087   -0.2621    0.1740   -0.0641   -0.0063   -0.0499
          35   -0.0026    0.0124    0.0113    0.5073   -0.3260    0.0844   -0.0652    0.1475
          36   -0.0540    0.0545    0.0286    0.0366    0.3736   -0.1361   -0.1545    0.5077
          37    0.0166    0.0076    0.0354    0.1087    0.6752   -0.0543    0.0334    0.1797
          38    0.0516    0.0171    0.0511   -0.2854   -0.0960    0.0579    0.1064    0.4479
          39    0.0403    0.0190    0.0500   -0.1571   -0.0825    0.0569    0.0579    0.2438
          40   -0.0099   -0.0037    0.0143    0.4415   -0.1076    0.0758   -0.0214    0.2603
          41   -0.0094   -0.0040    0.0201    0.4397    0.0352    0.0566   -0.0216    0.1008
          42   -0.0618    0.0245    0.0195   -0.3168   -0.4087   -0.0011   -0.0687    0.3997


   Root No.      25        26        27        28        29        30        31        32

                25 A      26 A      27 A      28 A      29 A      30 A      31 A      32 A   

                1450.9    1486.4    1547.3    1571.0    2145.9    2664.0    2677.0    2778.5
  
           1    0.1151   -0.0938   -0.1037   -0.0227   -0.1774    0.0019   -0.0035   -0.0180
           2    0.0690   -0.0282   -0.0403   -0.0797   -0.0554    0.0003   -0.0038   -0.0267
           3    0.5060   -0.1471   -0.3278    0.0238    0.0025   -0.0000    0.0019    0.0509
           4    0.1672    0.0553   -0.0172   -0.0558    0.8082   -0.0065    0.0034   -0.0049
           5    0.1920    0.0649   -0.0329   -0.0210   -0.5180    0.0059   -0.0028    0.0017
           6    0.0285    0.0155    0.0011    0.0033    0.0531    0.0012   -0.0001    0.0017
           7    0.0060   -0.1107   -0.0224    0.1200   -0.0299    0.0134    0.0086   -0.0118
           8   -0.0846   -0.1380   -0.0573    0.0394    0.1956   -0.0122    0.0145   -0.0237
           9   -0.0576   -0.4031    0.1268    0.6491    0.0115   -0.0031   -0.0081   -0.0327
          10    0.2341   -0.0445    0.2656   -0.0238   -0.0101    0.0004   -0.0013    0.0052
          11    0.2855   -0.0863    0.3419    0.1536    0.0065    0.0004   -0.0032    0.0104
          12    0.2602    0.0592    0.2348   -0.4698   -0.0169   -0.0001    0.0032   -0.0007
          13   -0.0675    0.0813    0.0328    0.0614   -0.0133   -0.0008    0.0044    0.0736
          14   -0.0752    0.0714    0.0447    0.0705   -0.0056   -0.0004    0.0057    0.1060
          15    0.0337    0.0240   -0.0259    0.0908    0.0016    0.0012   -0.0108   -0.1832
          16   -0.0468    0.0681    0.0264    0.0087   -0.0046    0.0009   -0.0008    0.0082
          17   -0.0390    0.0681    0.0940    0.0028   -0.0087    0.0012   -0.0009    0.0113
          18   -0.0664    0.1014   -0.1364    0.0430    0.0096    0.0004   -0.0002    0.0046
          19   -0.0718    0.0548    0.0638    0.0593   -0.0002    0.0002   -0.0001    0.0001
          20   -0.0944    0.0440    0.1374    0.0828    0.0002   -0.0001   -0.0001    0.0002
          21   -0.0579    0.1063   -0.0810    0.0291   -0.0036    0.0011   -0.0003   -0.0004
          22    0.0115    0.0294    0.0243    0.0605    0.0053   -0.0011    0.0049   -0.0178
          23    0.0436   -0.0214    0.0645    0.0745    0.0086   -0.0011    0.0096   -0.0351
          24   -0.0815    0.1308   -0.0690    0.0872    0.0104    0.0004   -0.0029    0.0120
          25   -0.0176    0.0436    0.0034   -0.0411   -0.0006    0.2349    0.1246   -0.0399
          26   -0.0121    0.0760    0.0085   -0.0679   -0.0032   -0.1395    0.1867   -0.0712
          27   -0.0314    0.1373   -0.0447   -0.1591    0.0011    0.0194   -0.1643   -0.1190
          28   -0.1487    0.2616    0.1291    0.0597   -0.0091   -0.0001    0.0001   -0.0029
          29   -0.0271    0.4750    0.0203    0.1855    0.0043   -0.0002   -0.0001   -0.0055
          30   -0.4857   -0.1747    0.4382   -0.2508   -0.0132   -0.0004    0.0006    0.0034
          31   -0.1997   -0.1541   -0.3062   -0.1139   -0.0012   -0.0002    0.0003    0.0015
          32   -0.2507   -0.3966   -0.3557   -0.2507    0.0015   -0.0004    0.0005    0.0026
          33   -0.1775    0.3764   -0.3354    0.1754   -0.0015   -0.0004    0.0001   -0.0012
          34   -0.0039   -0.0026    0.0025    0.0069    0.0049   -0.3885   -0.5832    0.5002
          35    0.0030    0.0270    0.0038   -0.0246   -0.0042   -0.2262   -0.2637    0.2371
          36    0.0400    0.0516    0.0145   -0.0427   -0.0063    0.0407    0.0304   -0.0593
          37    0.0180    0.0218   -0.0107   -0.0330    0.0030    0.0273    0.0372    0.0100
          38    0.0296    0.0681   -0.0229   -0.1012    0.0049    0.1382   -0.3634   -0.3174
          39    0.0130    0.0506   -0.0227   -0.0652   -0.0023   -0.2534    0.6039    0.4846
          40    0.0306    0.0299   -0.0043   -0.0327   -0.0153   -0.4954    0.0891   -0.3419
          41    0.0096    0.0163   -0.0035   -0.0156    0.0072    0.6059   -0.0562    0.3899
          42    0.0423    0.0443    0.0024   -0.0372   -0.0063    0.1553   -0.0443    0.0828


   Root No.      33        34        35        36

                33 A      34 A      35 A      36 A   

                2781.8    2790.3    2796.1    2805.2
  
           1    0.0721    0.0098   -0.0071    0.0264
           2    0.1101    0.0126   -0.0094    0.0423
           3   -0.2037   -0.0031    0.0047   -0.0556
           4    0.0169    0.0017    0.0011    0.0015
           5    0.0051   -0.0013    0.0021    0.0016
           6   -0.0038    0.0003    0.0006   -0.0044
           7    0.0063   -0.0028   -0.0013   -0.0087
           8    0.0096   -0.0065   -0.0051   -0.0117
           9   -0.0182    0.0063    0.0064   -0.0078
          10    0.0197   -0.0351   -0.0734   -0.0774
          11    0.0360   -0.0624   -0.1456   -0.1551
          12   -0.0061    0.0076    0.0547    0.0600
          13   -0.2993   -0.0162    0.0126   -0.0770
          14   -0.4302   -0.0243    0.0179   -0.1119
          15    0.7393    0.0426   -0.0302    0.1918
          16    0.1074   -0.2073    0.3992   -0.2881
          17    0.1436   -0.2802    0.5393   -0.3891
          18    0.0596   -0.1152    0.2204   -0.1596
          19    0.0125    0.1510    0.0182   -0.0776
          20   -0.0082   -0.0897   -0.0108    0.0460
          21    0.0712    0.8317    0.0998   -0.4276
          22   -0.0722    0.1158    0.2808    0.2750
          23   -0.1415    0.2268    0.5503    0.5397
          24    0.0527   -0.0834   -0.2008   -0.1973
          25   -0.0074   -0.0016   -0.0015   -0.0039
          26   -0.0124   -0.0032   -0.0023   -0.0087
          27   -0.0293   -0.0033    0.0001   -0.0109
          28   -0.0256    0.0554   -0.1079    0.0851
          29   -0.0305    0.0796   -0.1429    0.1139
          30   -0.0281    0.0155   -0.0641    0.0452
          31   -0.0063   -0.0406   -0.0165    0.0215
          32   -0.0042    0.0253   -0.0153   -0.0164
          33   -0.0161   -0.2230   -0.0277    0.1279
          34    0.1021    0.0173    0.0087    0.0511
          35    0.0481    0.0085    0.0045    0.0251
          36   -0.0127   -0.0021   -0.0010   -0.0051
          37    0.0026    0.0002   -0.0002    0.0010
          38   -0.0749   -0.0094   -0.0005   -0.0284
          39    0.1167    0.0141   -0.0002    0.0450
          40   -0.0730   -0.0110   -0.0034   -0.0345
          41    0.0832    0.0126    0.0041    0.0403
          42    0.0180    0.0024    0.0007    0.0090


          DESCRIPTION OF VIBRATIONS


 VIBRATION          1    1A           ATOM PAIR      ENERGY CONTRIBUTION    RADIAL
 FREQUENCY         -1604.45         H  2 -- C  3         -60.9% (-76.9%)     53.3%
 TRANSITION DIPOLE   0.4471         C  1 -- H  2         -60.3% (-76.5%)     57.9%
 TRAVEL (Ang.)       0.2245         C  3 -- C  4          -3.0% (-17.1%)     50.3%
 REDUCED MASS        0.8340         C  1 -- C 10          -2.9% (-16.7%)     54.6%
 EFFECTIVE MASS      2.4894
 FORCE CONSTANT     -1.2650

 VIBRATION          2    2A           ATOM PAIR      ENERGY CONTRIBUTION    RADIAL
 FREQUENCY            96.87         C  9 -- H 12         +32.2% (561.0%)      0.0%
 TRANSITION DIPOLE   0.0383         C  9 -- H 14         +32.0% (559.0%)      0.0%
 TRAVEL (Ang.)       0.0000         C  9 -- H 13         +31.5% (554.4%)      0.0%
 REDUCED MASS        0.3082         C  4 -- C 10          +0.8% ( 86.0%)      0.0%
 EFFECTIVE MASS      4.0852
 FORCE CONSTANT      0.0017

 VIBRATION          3    3A           ATOM PAIR      ENERGY CONTRIBUTION    RADIAL
 FREQUENCY           257.37         C  3 -- C  9         +16.5% (176.9%)      0.0%
 TRANSITION DIPOLE   0.2274         C  9 -- H 14         +10.6% (141.8%)     71.3%
 TRAVEL (Ang.)       0.4988         C  9 -- H 13         +10.2% (139.2%)      1.1%
 REDUCED MASS        1.0529         C  9 -- H 12          +9.6% (134.7%)     62.4%
 EFFECTIVE MASS     34.9718
 FORCE CONSTANT      0.0411

 VIBRATION          4    4A           ATOM PAIR      ENERGY CONTRIBUTION    RADIAL
 FREQUENCY           323.26         C  3 -- C  9         +14.4% (194.7%)      0.0%
 TRANSITION DIPOLE   0.1299         C  9 -- H 12          +6.8% (134.4%)     43.1%
 TRAVEL (Ang.)       0.4181         C  9 -- H 14          +6.8% (134.1%)     24.3%
 REDUCED MASS        1.1934         C  9 -- H 13          +6.7% (133.2%)     89.2%
 EFFECTIVE MASS     29.3359
 FORCE CONSTANT      0.0735

 VIBRATION          5    5A           ATOM PAIR      ENERGY CONTRIBUTION    RADIAL
 FREQUENCY           505.88         C 10 -- C 11         +20.7% ( 87.5%)      0.0%
 TRANSITION DIPOLE   0.2054         C  1 -- C 10         +12.9% ( 69.2%)      0.0%
 TRAVEL (Ang.)       0.3430         C  4 -- C 11         +11.8% ( 66.0%)      0.0%
 REDUCED MASS        1.1328         C  4 -- C 10          +9.5% ( 59.4%)      0.2%
 EFFECTIVE MASS     10.8055
 FORCE CONSTANT      0.1708

 VIBRATION          6    6A           ATOM PAIR      ENERGY CONTRIBUTION    RADIAL
 FREQUENCY           570.72         C  3 -- C  4         +15.2% ( 78.2%)      0.3%
 TRANSITION DIPOLE   0.4516         H  2 -- C  3         +12.7% ( 71.7%)     32.4%
 TRAVEL (Ang.)       0.2752         C  9 -- H 14          +8.8% ( 59.7%)     70.4%
 REDUCED MASS        1.5599         C  3 -- C  9          +8.4% ( 58.2%)      2.3%
 EFFECTIVE MASS      8.3946
 FORCE CONSTANT      0.2994

 VIBRATION          7    7A           ATOM PAIR      ENERGY CONTRIBUTION    RADIAL
 FREQUENCY           663.89         C  3 -- C 11          +8.3% ( 88.6%)     72.2%
 TRANSITION DIPOLE   0.4247         C  3 -- C  9          +7.7% ( 85.0%)     45.2%
 TRAVEL (Ang.)       0.2380         C  9 -- H 12          +7.5% ( 84.1%)     30.4%
 REDUCED MASS        1.7932         C  3 -- C  4          +7.3% ( 82.8%)      0.3%
 EFFECTIVE MASS     14.5319
 FORCE CONSTANT      0.4657

 VIBRATION          8    8A           ATOM PAIR      ENERGY CONTRIBUTION    RADIAL
 FREQUENCY           808.39         C 10 -- C 11         +13.7% (106.8%)      0.0%
 TRANSITION DIPOLE   0.3384         C  4 -- C 10         +13.3% (105.3%)     95.2%
 TRAVEL (Ang.)       0.1873         C  1 -- C 11         +12.7% (102.7%)     89.4%
 REDUCED MASS        2.3772         C  3 -- C 11         +10.2% ( 92.0%)     63.4%
 EFFECTIVE MASS     14.0433
 FORCE CONSTANT      0.9153

 VIBRATION          9    9A           ATOM PAIR      ENERGY CONTRIBUTION    RADIAL
 FREQUENCY           834.84         H  6 -- C 10         +22.3% ( 65.5%)      1.0%
 TRANSITION DIPOLE   0.7924         H  7 -- C 11         +19.7% ( 61.5%)      2.6%
 TRAVEL (Ang.)       0.5332         C  4 -- H  8         +10.7% ( 45.2%)      3.2%
 REDUCED MASS        0.2841         C  4 -- C 10          +6.0% ( 33.9%)     94.1%
[...]
 TRAVEL (Ang.)       0.2865         C  9 -- H 14         +26.7% ( 54.9%)      1.2%
 REDUCED MASS        0.5909         C  3 -- C  9          +9.9% ( 33.4%)     98.1%
 EFFECTIVE MASS      2.6405
 FORCE CONSTANT      0.6729

 VIBRATION         25   25A           ATOM PAIR      ENERGY CONTRIBUTION    RADIAL
 FREQUENCY          1450.88         C  1 -- C 10         +18.9% ( 73.1%)     99.3%
 TRANSITION DIPOLE   0.2737         C  4 -- C 11         +12.6% ( 59.6%)     99.9%
 TRAVEL (Ang.)       0.1383         C  4 -- C 10         +10.0% ( 53.2%)     27.0%
 REDUCED MASS        2.4290         C  1 -- C 11          +8.8% ( 49.8%)     38.8%
 EFFECTIVE MASS     10.3721
 FORCE CONSTANT      3.0126

 VIBRATION         26   26A           ATOM PAIR      ENERGY CONTRIBUTION    RADIAL
 FREQUENCY          1486.45         C 10 -- C 11         +21.0% ( 81.5%)     99.2%
 TRANSITION DIPOLE   0.3393         C  3 -- C 11         +11.7% ( 60.7%)     64.7%
 TRAVEL (Ang.)       0.1232         C  1 -- C 11          +8.1% ( 50.6%)     94.3%
 REDUCED MASS        2.9907         C  1 -- C 10          +8.0% ( 50.3%)      6.5%
 EFFECTIVE MASS     11.2884
 FORCE CONSTANT      3.8933

 VIBRATION         27   27A           ATOM PAIR      ENERGY CONTRIBUTION    RADIAL
 FREQUENCY          1547.30         C  4 -- C 11         +18.9% ( 74.1%)     99.9%
 TRANSITION DIPOLE   0.3303         C 10 -- C 11         +12.5% ( 60.1%)      0.0%
 TRAVEL (Ang.)       0.1261         C  4 -- C 10         +10.2% ( 54.3%)     73.2%
 REDUCED MASS        2.7415         C  1 -- C 11          +9.9% ( 53.6%)      9.2%
 EFFECTIVE MASS     11.2885
 FORCE CONSTANT      3.8671

 VIBRATION         28   28A           ATOM PAIR      ENERGY CONTRIBUTION    RADIAL
 FREQUENCY          1570.95         C  3 -- C  4         +20.2% ( 77.7%)     92.7%
 TRANSITION DIPOLE   0.5156         C  3 -- C 11         +12.3% ( 60.5%)     88.5%
 TRAVEL (Ang.)       0.1142         C  3 -- C  9         +11.9% ( 59.6%)     81.9%
 REDUCED MASS        3.2897         H  2 -- C  3         +10.2% ( 55.1%)      0.2%
 EFFECTIVE MASS     11.1228         C  1 -- C  3         +10.0% ( 54.7%)      7.3%
 FORCE CONSTANT      4.7834

 VIBRATION         29   29A           ATOM PAIR      ENERGY CONTRIBUTION    RADIAL
 FREQUENCY          2145.85         H  2 -- C  3         +48.8% ( 96.5%)     85.6%
 TRANSITION DIPOLE   0.6266         C  1 -- H  2         +48.4% ( 96.2%)     81.8%
 TRAVEL (Ang.)       0.1875         C  1 -- C  3          +1.1% ( 14.5%)     99.8%
 REDUCED MASS        0.8941         C  3 -- C  4          +0.3% (  8.0%)      4.3%
 EFFECTIVE MASS      1.5021
 FORCE CONSTANT      2.4257

 VIBRATION         30   30A           ATOM PAIR      ENERGY CONTRIBUTION    RADIAL
 FREQUENCY          2664.04         C  9 -- H 14         +67.3% ( 84.6%)     99.6%
 TRANSITION DIPOLE   0.7134         C  9 -- H 12         +22.2% ( 48.6%)     90.6%
 TRAVEL (Ang.)       0.2195         C  9 -- H 13          +9.6% ( 31.9%)     75.6%
 REDUCED MASS        0.5252         C  3 -- C  9          +0.8% (  9.4%)      0.1%
 EFFECTIVE MASS      1.4343
 FORCE CONSTANT      2.1961

 VIBRATION         31   31A           ATOM PAIR      ENERGY CONTRIBUTION    RADIAL
 FREQUENCY          2677.00         C  9 -- H 13         +53.3% ( 75.3%)     98.6%
 TRANSITION DIPOLE   0.5763         C  9 -- H 12         +43.7% ( 68.2%)     97.0%
 TRAVEL (Ang.)       0.2262         C  9 -- H 14          +2.0% ( 14.7%)     25.5%
 REDUCED MASS        0.4922         C  3 -- C  9          +0.9% (  9.8%)      0.0%
 EFFECTIVE MASS      1.4511
 FORCE CONSTANT      2.0784

 VIBRATION         32   32A           ATOM PAIR      ENERGY CONTRIBUTION    RADIAL
 FREQUENCY          2778.47         C  9 -- H 13         +34.2% ( 56.5%)     96.0%
 TRANSITION DIPOLE   0.4668         C  9 -- H 12         +31.4% ( 54.1%)     95.4%
 TRAVEL (Ang.)       0.2868         C  9 -- H 14         +27.6% ( 50.7%)     94.5%
 REDUCED MASS        0.2950         C  1 -- H  5          +5.8% ( 23.2%)    100.0%
 EFFECTIVE MASS      1.1575
 FORCE CONSTANT      1.3419

 VIBRATION         33   33A           ATOM PAIR      ENERGY CONTRIBUTION    RADIAL
 FREQUENCY          2781.79         C  1 -- H  5         +84.4% ( 93.8%)    100.0%
 TRANSITION DIPOLE   1.0483         H  6 -- C 10          +3.7% ( 19.6%)     99.6%
 TRAVEL (Ang.)       0.1830         C  4 -- H  8          +2.9% ( 17.3%)     99.9%
 REDUCED MASS        0.7241         C  9 -- H 13          +1.8% ( 13.6%)     96.8%
 EFFECTIVE MASS      1.3915
 FORCE CONSTANT      3.3016

 VIBRATION         34   34A           ATOM PAIR      ENERGY CONTRIBUTION    RADIAL
 FREQUENCY          2790.26         H  7 -- C 11         +73.8% ( 88.1%)    100.0%
 TRANSITION DIPOLE   0.5035         H  6 -- C 10         +13.8% ( 38.1%)     99.9%
 TRAVEL (Ang.)       0.2035         C  4 -- H  8          +7.3% ( 27.8%)     99.8%
 REDUCED MASS        0.5837         C 10 -- C 11          +1.0% ( 10.5%)      5.6%
 EFFECTIVE MASS      1.4059
 FORCE CONSTANT      2.6777

 VIBRATION         35   35A           ATOM PAIR      ENERGY CONTRIBUTION    RADIAL
 FREQUENCY          2796.12         H  6 -- C 10         +51.5% ( 73.1%)    100.0%
 TRANSITION DIPOLE   1.1328         C  4 -- H  8         +43.5% ( 67.3%)    100.0%
 TRAVEL (Ang.)       0.2298         C  4 -- C 10          +1.2% ( 11.1%)      1.6%
 REDUCED MASS        0.4566         H  7 -- C 11          +1.1% ( 10.6%)     97.3%
 EFFECTIVE MASS      1.4087
 FORCE CONSTANT      2.1034

 VIBRATION         36   36A           ATOM PAIR      ENERGY CONTRIBUTION    RADIAL
 FREQUENCY          2805.22         C  4 -- H  8         +41.6% ( 66.1%)    100.0%
 TRANSITION DIPOLE   0.5259         H  6 -- C 10         +26.7% ( 52.9%)    100.0%
 TRAVEL (Ang.)       0.2843         H  7 -- C 11         +19.6% ( 45.4%)    100.0%
 REDUCED MASS        0.2974         C  1 -- H  5          +5.7% ( 24.4%)     99.9%
 EFFECTIVE MASS      1.5315
 FORCE CONSTANT      1.3787

           FORCE CONSTANT IN INTERNAL COORDINATES (Millidynes/A)

    ATOM   CHEMICAL  BOND LENGTH      BOND ANGLE     TWIST ANGLE
   NUMBER   SYMBOL  FORCE CONSTANT  FORCE CONSTANT  FORCE CONSTANT

      1       C        0.000000        0.000000        0.000000
      2       H        2.629067        0.000000        0.000000
      3       C        4.873683       27.242689        0.000000
      4       C       13.451429       10.676601       31.382352
      5       H        4.319707        0.637656       13.616116
      6       H        8.856196        4.105252       13.467604
      7       H        9.115680       18.871529        2.334822
      8       H        4.369906        0.923715        0.285481
      9       C        6.641739        0.869102        0.780766
     10       C       11.495580       10.640771        0.727077
     11       C       11.575067       10.996225        0.726089
     12       H        4.098626        0.907987        0.017649
     13       H        4.112788        0.923651        0.571955
     14       H        4.069450        0.903360        0.587583
 *******************************************************************************
 ** Site#: 37037        For non-commercial use only           Version 21.158W **
 *******************************************************************************
 ** Cite this program as: MOPAC2016, Version: 21.158W, James J. P. Stewart,   **
 ** Stewart Computational Chemistry, web: HTTP://OpenMOPAC.net. Days left: 358**
 *******************************************************************************
 **                                                                           **
 **                                MOPAC2016                                  **
 **                                                                           **
 *******************************************************************************

                              PM7 CALCULATION RESULTS

 *******************************************************************************
 *  CALCULATION DONE:                                Mon Jun 14 12:31:07 2021  *
 *  IRC=N      - INTRINSIC REACTION COORDINATE  1 DEFINED
 *  OLDGEO     - PREVIOUS GEOMETRY TO BE USED
 *  RESTART    - CALCULATION RESTARTED
 *  T=         - A TIME OF 172800.0 SECONDS REQUESTED
 *  DUMP=N     - RESTART FILE WRITTEN EVERY 7200.0 SECONDS REQUESTED
 *  HTML       - WRITE HTML SCRIPT TO GENERATE ANIMATION USING JSMOL
 *             - TO DISPLAY IN PDB FORMAT, ADD "PDBOUT"
 *  X-PRIOR    - GEOMETRY CHANGES TAKE PRIORITY IN DRC
 *******************************************************************************
oldgeo irc=1* x-priority=0.15 restart HTML
 Transition state for 1-Methyl cyclopenta-2,4-diene <=> 1-Methyl cyclopenta-1,3-diene

  ATOM    CHEMICAL      BOND LENGTH      BOND ANGLE     TWIST ANGLE 
 NUMBER    SYMBOL       (ANGSTROMS)      (DEGREES)       (DEGREES) 
   (I)                     NA:I           NB:NA:I       NC:NB:NA:I       NA    NB    NC 
     1       C          0.00000000       0.0000000       0.0000000        0     0     0
     2       H          1.44519770  *    0.0000000       0.0000000        1     0     0
     3       C          1.42188935  *   62.6444448  *    0.0000000        2     1     0
     4       C          1.42069117  *  108.8064982  *  -98.2759774  *     3     2     1
     5       H          1.06998077  *  109.4094042  * -120.2256132  *     1     2     3
     6       H          2.21046408  *  118.8181205  * -118.5463627  *     1     2     5
     7       H          2.20304862  *  132.1243101  *   61.7790729  *     4     3     2
     8       H          1.06891374  *  125.0038575  *  179.7893963  *     4     3     7
     9       C          1.48127265  *  110.2275886  * -141.1421119  *     3     2     4
    10       C          1.06969036  *   31.4369372  *  -70.3941756  *     6     1     2
    11       C          1.07237878  *   31.2678576  *    0.7325011  *     7     4     3
    12       H          1.09959311  *  112.1634126  *   79.0393786  *     9     3     2
    13       H          1.09743693  *  113.1252341  * -122.2265296  *     9     3    12
    14       H          1.10432912  *  110.1990056  * -119.1029328  *     9     3    13
 


          CARTESIAN COORDINATES 

    NO.       ATOM           X           Y           Z

     1         C          0.0000      0.0000      0.0000
     2         H          1.4452      0.0000      0.0000
     3         C          0.7918      1.2629      0.0000
     4         C          0.7533      1.7586     -1.3308
     5         H         -0.3556     -0.5080      0.8720
     6         H         -1.0655     -1.0041     -1.6561
     7         H         -0.1843      0.9864     -3.1688
     8         H          1.2149      2.6643     -1.6614
     9         C          1.1846      2.0427      1.1966
    10         C         -0.4616     -0.1869     -1.3220
    11         C          0.0060      0.8730     -2.1195
    12         H          2.1727      2.5109      1.0807
    13         H          1.2029      1.4426      2.1152
    14         H          0.4646      2.8617      1.3711

 General Reference for PM7:
 "Optimization of Parameters for Semiempirical Methods VI: More Modifications to the 
 NDDO Approximations and Re-optimization of Parameters", J. J. P. Stewart, J. Mol. Mod., 1:32, 19 (2013)
 https://link.springer.com/article/10.1007/s00894-012-1667-x

           Empirical Formula: C6 H8  =    14 atoms



      MOLECULAR POINT GROUP   :   C1  


      RHF CALCULATION, NO. OF DOUBLY OCCUPIED LEVELS = 16


          MOLECULAR WEIGHT =   80.13


          ESTIMATED TIME TO COMPLETE CALCULATION =        0.00 SECONDS

          TIME USED UP TO RESTART =                  0.30

    FOR POINT-GROUP C1   THERE ARE   1 UNIQUE SYMMETRY FUNCTIONS.

           INITIAL VELOCITY IN DRC (Angstroms/Femtosecond)
        -0.07135         0.00729        -0.01759
         0.34124         0.52419        -0.02111
         0.03989        -0.06193         0.01644
        -0.01096        -0.00358        -0.02783
         0.06285        -0.04836        -0.00286
         0.00760        -0.00281        -0.00940
        -0.00283        -0.00559        -0.00057
        -0.00364         0.00589         0.00848
        -0.00536         0.00491         0.00280
         0.00035        -0.01090         0.02898
         0.01421         0.02374        -0.00067
        -0.00445         0.00155        -0.00185
        -0.00172         0.00707         0.00571
        -0.00315         0.00037        -0.00380

 GEOMETRY PRIORITY, STEP = 0.1500 ANGSTROMS



     POINT   POTENTIAL  +  ENERGY LOST   =   TOTAL      ERROR    REF%   MOVEMENT
       1      63.19614      0.00000         63.19614   0.00000     1   %  0.0000
      51      61.83764      1.22286         63.06051  -0.05736     2   %  0.1500
     115      58.32886      4.71870         63.04757  -0.07030     3   %  0.2999
     156      53.70906      9.33063         63.03968  -0.07819     4   %  0.4496
     174      48.91777     14.12429         63.04206  -0.07581     5   %  0.5991
     215      44.58590     18.46438         63.05028  -0.06759     6   %  0.7483
     263      41.04136     22.01845         63.05980  -0.05807     7   %  0.8967
     310      38.41607     24.65281         63.06887  -0.04900     8   %  1.0407
     353      36.47518     26.60246         63.07765  -0.04022     9   %  1.1874
     388      35.17077     27.91366         63.08443  -0.03344    10   %  1.3220
     414      34.24167     28.84771         63.08937  -0.02850    11   %  1.4435
     433      33.52352     29.56956         63.09308  -0.02479    12   %  1.5574
     449      32.92777     30.16835         63.09612  -0.02175    13   %  1.6702
     463      32.40941     30.68937         63.09879  -0.01908    14   %  1.7838
     475      31.95460     31.14658         63.10119  -0.01668    15   %  1.8958
     486      31.54626     31.55716         63.10341  -0.01446    16   %  2.0066
     497      31.17235     31.93318         63.10553  -0.01234    17   %  2.1177
     508      30.82550     32.28206         63.10756  -0.01031    18   %  2.2315
     518      30.50131     32.60823         63.10954  -0.00833    19   %  2.3504
     527      30.19712     32.91435         63.11148  -0.00639    20   %  2.4740
     537      29.91123     33.20215         63.11338  -0.00449    21   %  2.6006
     547      29.64256     33.47270         63.11526  -0.00261    22   %  2.7290
     556      29.39038     33.72674         63.11712  -0.00075    23   %  2.8586
     565      29.15409     33.96487         63.11896   0.00109    24   %  2.9892
     575      28.93319     34.18759         63.12078   0.00291    25   %  3.1210
     584      28.72738     34.39520         63.12258   0.00471    26   %  3.2548
     593      28.53629     34.58808         63.12437   0.00650    27   %  3.3918
     602      28.35962     34.76651         63.12613   0.00826    28   %  3.5319
     611      28.19712     34.93076         63.12788   0.01001    29   %  3.6737
     620      28.04855     35.08107         63.12961   0.01174    30   %  3.8161
     628      27.91374     35.21759         63.13133   0.01346    31   %  3.9587
     640      27.79241     35.34207         63.13448   0.01661    32   %  4.1013
     654      27.68432     35.45263         63.13696   0.01909    33   %  4.2439
     666      27.58963     35.55021         63.13984   0.02197    34   %  4.3861
     679      27.50877     35.63502         63.14379   0.02592    35   %  4.5269
     700      27.43871     35.71282         63.15153   0.03366    36   %  4.6699
     724      27.38240     35.78390         63.16630   0.04843    37   %  4.8113
     753      27.33877     35.85209         63.19086   0.07299    38   %  4.9517
     795      27.30764     35.93801         63.24564   0.12777    39   %  5.0907
     867      27.28863     36.05575         63.34438   0.22651    40   %  5.2282


 IRC CALCULATION COMPLETE 
           INITIAL VELOCITY IN DRC (Angstroms/Femtosecond)
         0.07135        -0.00729         0.01759
        -0.34124        -0.52419         0.02111
        -0.03989         0.06193        -0.01644
         0.01096         0.00358         0.02783
        -0.06285         0.04836         0.00286
        -0.00760         0.00281         0.00940
         0.00283         0.00559         0.00057
         0.00364        -0.00589        -0.00848
         0.00536        -0.00491        -0.00280
        -0.00035         0.01090        -0.02898
        -0.01421        -0.02374         0.00067
         0.00445        -0.00155         0.00185
         0.00172        -0.00707        -0.00571
         0.00315        -0.00037         0.00380

 GEOMETRY PRIORITY, STEP = 0.1500 ANGSTROMS



     POINT   POTENTIAL  +  ENERGY LOST   =   TOTAL      ERROR    REF%   MOVEMENT
       1      63.19614      0.00000         63.19614   0.00000     1   %  0.0000
      53      61.86634      1.20434         63.07069  -0.05719     2   %  0.1500
     123      58.21494      4.84155         63.05650  -0.07138     3   %  0.2999
     174      53.20274      9.84364         63.04637  -0.08151     4   %  0.4496
     199      47.83949     15.20278         63.04227  -0.08561     5   %  0.5973
     221      42.55048     20.49725         63.04773  -0.08015     6   %  0.7489
     256      37.91372     25.14114         63.05486  -0.07302     7   %  0.8982
     296      34.00762     29.05541         63.06303  -0.06485     8   %  1.0471
     336      30.85789     32.21312         63.07101  -0.05687     9   %  1.1953
     376      28.41622     34.66257         63.07879  -0.04909    10   %  1.3424
     413      26.59988     36.48628         63.08616  -0.04172    11   %  1.4875
     448      25.31262     37.78037         63.09299  -0.03489    12   %  1.6288
     480      24.44772     38.65140         63.09912  -0.02876    13   %  1.7635
     507      23.88688     39.21740         63.10429  -0.02359    14   %  1.8872
     527      23.51326     39.59494         63.10820  -0.01968    15   %  1.9921
     543      23.22901     39.88213         63.11114  -0.01674    16   %  2.0844
     556      22.99000     40.12360         63.11360  -0.01428    17   %  2.1832
     567      22.78619     40.32956         63.11575  -0.01212    18   %  2.2905
     577      22.61527     40.50238         63.11765  -0.01023    19   %  2.3996
     586      22.47070     40.64866         63.11935  -0.00853    20   %  2.5089
     594      22.34748     40.77346         63.12094  -0.00694    21   %  2.6185
     602      22.24339     40.87923         63.12262  -0.00526    22   %  2.7288
     614      22.15870     40.96650         63.12521  -0.00267    23   %  2.8379
     633      22.08409     41.04832         63.13241   0.00453    24   %  2.9594
     649      22.02922     41.10914         63.13836   0.01048    25   %  3.0779
     677      21.99008     41.17087         63.16095   0.03307    26   %  3.1982
     722      21.96619     41.26281         63.22900   0.10113    27   %  3.3173
     808      21.95461     41.41202         63.36663   0.23875    28   %  3.4216
     942      21.94672     41.68734         63.63406   0.50618    29   %  3.4915
    1081      21.93852     41.91094         63.84946   0.72158    30   %  3.5533
    1218      21.92858     42.11247         64.04105   0.91317    31   %  3.6283
    1350      21.92541     42.31554         64.24095   1.11307    32   %  3.7091
    1492      21.91280     42.50986         64.42266   1.29478    33   %  3.8011


 IRC CALCULATION COMPLETE 

 **********************
 *                    *
 * JOB ENDED NORMALLY *
 *                    *
 **********************



 TOTAL JOB TIME:            10.22 SECONDS

 == MOPAC DONE ==
