 *******************************************************************************
 ** Site#: 37037        For non-commercial use only           Version 21.158W **
 *******************************************************************************
 ** Cite this program as: MOPAC2016, Version: 21.158W, James J. P. Stewart,   **
 ** Stewart Computational Chemistry, web: HTTP://OpenMOPAC.net. Days left: 358**
 *******************************************************************************
 **                                                                           **
 **                                MOPAC2016                                  **
 **                                                                           **
 *******************************************************************************

                              PM7 CALCULATION RESULTS

 *******************************************************************************
 *  CALCULATION DONE:                                Mon Jun 14 12:33:28 2021  *
 *  SYMMETRY   - SYMMETRY CONDITIONS TO BE IMPOSED
 *  T=         - A TIME OF 172800.0 SECONDS REQUESTED
 *  DUMP=N     - RESTART FILE WRITTEN EVERY 7200.0 SECONDS REQUESTED
 *******************************************************************************



                    PARAMETER DEPENDENCE DATA

        REFERENCE ATOM      FUNCTION NO.    DEPENDENT ATOM(S)
            2                  1               3

             DESCRIPTIONS OF THE FUNCTIONS USED
   1      BOND LENGTH    IS SET EQUAL TO THE REFERENCE BOND LENGTH   
 
symmetry
 Transition state for 1-Methyl cyclopenta-2,4-diene <=> 1-Methyl cyclopenta-1,3-diene

  ATOM    CHEMICAL      BOND LENGTH      BOND ANGLE     TWIST ANGLE 
 NUMBER    SYMBOL       (ANGSTROMS)      (DEGREES)       (DEGREES) 
   (I)                     NA:I           NB:NA:I       NC:NB:NA:I       NA    NB    NC 
     1       C          0.00000000       0.0000000       0.0000000        0     0     0
     2       H          1.40000000  *    0.0000000       0.0000000        1     0     0
     3       C          1.40000000      62.7000270  *    0.0000000        2     1     0
     4       C          1.40000000  *  110.0999930  *  -97.5000130  *     3     2     1
     5       H          1.00000000  *  109.4000000  * -120.1999810  *     1     2     3
     6       H          2.20000000  *  119.6999940  * -118.8000330  *     1     2     5
     7       H          2.20000000  *  132.0999910  *   60.4999890  *     4     3     2
     8       H          1.00000000  *  125.0999900  *  179.9000130  *     4     3     7
     9       C          1.54000000  *  110.0999860  * -142.7000300  *     3     2     4
    10       C          1.00000000  *   31.6000100  *  -70.7999960  *     6     1     2
    11       C          1.00000000  *   31.2000030  *    1.1999850  *     7     4     3
    12       H          1.09000000  *  109.4707620  *   52.9333790  *     9     3     2
    13       H          1.09000000  *  109.4714480  * -119.9998620  *     9     3    12
    14       H          1.09000000  *  109.4714480  * -120.0002740  *     9     3    13
 


          CARTESIAN COORDINATES 

    NO.       ATOM           X           Y           Z

     1         C          0.0000      0.0000      0.0000
     2         H          1.4000      0.0000      0.0000
     3         C          0.7579      1.2441      0.0000
     4         C          0.6897      1.7503     -1.3035
     5         H         -0.3322     -0.4745      0.8152
     6         H         -1.0900     -0.9842     -1.6380
     7         H         -0.2555      0.9834     -3.1361
     8         H          1.0983      2.6106     -1.6083
     9         C          1.1538      2.0440      1.2550
    10         C         -0.5183     -0.2230     -1.3319
    11         C         -0.0642      0.8713     -2.1609
    12         H          2.2404      2.0907      1.3282
    13         H          0.7507      1.5532      2.1408
    14         H          0.7507      3.0542      1.1841

 General Reference for PM7:
 "Optimization of Parameters for Semiempirical Methods VI: More Modifications to the 
 NDDO Approximations and Re-optimization of Parameters", J. J. P. Stewart, J. Mol. Mod., 1:32, 19 (2013)
 https://link.springer.com/article/10.1007/s00894-012-1667-x

           Empirical Formula: C6 H8  =    14 atoms



      MOLECULAR POINT GROUP   :   C1  


      RHF CALCULATION, NO. OF DOUBLY OCCUPIED LEVELS = 16


          Geometry optimization using EF

          DIAGONAL MATRIX USED AS START HESSIAN

 CYCLE:     1 TIME:   0.000 TIME LEFT:  2.00D  GRAD.:   219.333 HEAT:  74.49248
 CYCLE:     2 TIME:   0.016 TIME LEFT:  2.00D  GRAD.:   213.426 HEAT:  72.13502
 CYCLE:     3 TIME:   0.016 TIME LEFT:  2.00D  GRAD.:    93.168 HEAT:  68.90121
 CYCLE:     4 TIME:   0.000 TIME LEFT:  2.00D  GRAD.:    67.256 HEAT:  66.28582
 CYCLE:     5 TIME:   0.000 TIME LEFT:  2.00D  GRAD.:    35.768 HEAT:  63.95292
 CYCLE:     6 TIME:   0.016 TIME LEFT:  2.00D  GRAD.:    24.880 HEAT:  63.69744
 CYCLE:     7 TIME:   0.000 TIME LEFT:  2.00D  GRAD.:    23.363 HEAT:  63.59251
 CYCLE:     8 TIME:   0.016 TIME LEFT:  2.00D  GRAD.:    19.306 HEAT:  63.51535
 CYCLE:     9 TIME:   0.000 TIME LEFT:  2.00D  GRAD.:    16.912 HEAT:  63.44353
 CYCLE:    10 TIME:   0.000 TIME LEFT:  2.00D  GRAD.:    14.197 HEAT:  63.38267
 CYCLE:    11 TIME:   0.016 TIME LEFT:  2.00D  GRAD.:    10.488 HEAT:  63.33636
 CYCLE:    12 TIME:   0.000 TIME LEFT:  2.00D  GRAD.:     3.576 HEAT:  63.31300
 CYCLE:    13 TIME:   0.000 TIME LEFT:  2.00D  GRAD.:     3.516 HEAT:  63.30237
 CYCLE:    14 TIME:   0.016 TIME LEFT:  2.00D  GRAD.:     2.661 HEAT:  63.29180
 CYCLE:    15 TIME:   0.000 TIME LEFT:  2.00D  GRAD.:     3.086 HEAT:  63.27872
 CYCLE:    16 TIME:   0.000 TIME LEFT:  2.00D  GRAD.:     3.612 HEAT:  63.26753
 CYCLE:    17 TIME:   0.016 TIME LEFT:  2.00D  GRAD.:     2.540 HEAT:  63.25929
 CYCLE:    18 TIME:   0.000 TIME LEFT:  2.00D  GRAD.:     6.282 HEAT:  63.24545
 CYCLE:    19 TIME:   0.000 TIME LEFT:  2.00D  GRAD.:     3.149 HEAT:  63.23048
 CYCLE:    20 TIME:   0.016 TIME LEFT:  2.00D  GRAD.:     2.329 HEAT:  63.20565
 CYCLE:    21 TIME:   0.000 TIME LEFT:  2.00D  GRAD.:     4.252 HEAT:  63.17911
 CYCLE:    22 TIME:   0.000 TIME LEFT:  2.00D  GRAD.:     2.834 HEAT:  63.13658
 CYCLE:    23 TIME:   0.016 TIME LEFT:  2.00D  GRAD.:     1.391 HEAT:  63.12945
 CYCLE:    24 TIME:   0.031 TIME LEFT:  2.00D  GRAD.:     4.143 HEAT:  63.12777
 CYCLE:    25 TIME:   0.000 TIME LEFT:  2.00D  GRAD.:     1.848 HEAT:  63.12059
 CYCLE:    26 TIME:   0.016 TIME LEFT:  2.00D  GRAD.:     1.225 HEAT:  63.11940
 CYCLE:    27 TIME:   0.000 TIME LEFT:  2.00D  GRAD.:     0.322 HEAT:  63.11696

     GRADIENT =  0.32173 IS LESS THAN CUTOFF =  1.00000



 -------------------------------------------------------------------------------
 symmetry
 Transition state for 1-Methyl cyclopenta-2,4-diene <=> 1-Methyl cyclopenta-1,3-diene



     GEOMETRY OPTIMISED USING EIGENVECTOR FOLLOWING (EF).     
     SCF FIELD WAS ACHIEVED                                   


                              PM7 CALCULATION
                                                       MOPAC2016 (Version: 21.158W)
                                                       Mon Jun 14 12:33:28 2021
                                                       No. of days remaining = 358




          FINAL HEAT OF FORMATION =         63.11696 KCAL/MOL =     264.08138 KJ/MOL


          TOTAL ENERGY            =       -842.47178 EV
          ELECTRONIC ENERGY       =      -3565.99123 EV  POINT GROUP:     C1  
          CORE-CORE REPULSION     =       2723.51945 EV
          COSMO AREA              =        126.90 SQUARE ANGSTROMS
          COSMO VOLUME            =        116.54 CUBIC ANGSTROMS

          GRADIENT NORM           =          0.32173 = 0.08598 PER ATOM
          IONIZATION POTENTIAL    =          8.781325 EV
          HOMO LUMO ENERGIES (EV) =         -8.781  0.731
          NO. OF FILLED LEVELS    =         16
          MOLECULAR WEIGHT        =         80.1292

          MOLECULAR DIMENSIONS (Angstroms)

            Atom       Atom       Distance
            H    12    H     6     5.50405
            H     7    H     5     4.20266
            H     2    H    14     2.69591


          SCF CALCULATIONS        =         34
 
          WALL-CLOCK TIME         =          0.219 SECONDS
          COMPUTATION TIME        =          0.781 SECONDS




  ATOM    CHEMICAL      BOND LENGTH      BOND ANGLE     TWIST ANGLE 
 NUMBER    SYMBOL       (ANGSTROMS)      (DEGREES)       (DEGREES) 
   (I)                     NA:I           NB:NA:I       NC:NB:NA:I       NA    NB    NC 
     1       C          0.00000000       0.0000000       0.0000000        0     0     0
     2       H          1.43322810  *    0.0000000       0.0000000        1     0     0
     3       C          1.43322810      62.6702354  *    0.0000000        2     1     0
     4       C          1.41643894  *  108.7014207  *  -98.2984281  *     3     2     1
     5       H          1.07004064  *  110.0331070  * -119.9572889  *     1     2     3
     6       H          2.21239592  *  118.6050401  * -118.6802437  *     1     2     5
     7       H          2.20432746  *  132.1910779  *   61.3091836  *     4     3     2
     8       H          1.06897211  *  125.1585556  *  179.6521061  *     4     3     7
     9       C          1.48091779  *  109.8986381  * -141.0331542  *     3     2     4
    10       C          1.06944871  *   31.6006440  *  -70.6090445  *     6     1     2
    11       C          1.07231794  *   31.4244330  *    0.6304003  *     7     4     3
    12       H          1.09963725  *  112.1910159  *   78.2402824  *     9     3     2
    13       H          1.09753950  *  113.1187437  * -122.2129589  *     9     3    12
    14       H          1.10430188  *  110.1900296  * -119.1136482  *     9     3    13

                             CARTESIAN COORDINATES

   1    C        0.000000000     0.000000000     0.000000000
   2    H        1.433228104     0.000000000     0.000000000
   3    C        0.775217143     1.273249533     0.000000000
   4    C        0.738731725     1.765619574    -1.327606801
   5    H       -0.366556400    -0.501999688     0.870987761
   6    H       -1.059226779    -1.010898255    -1.658559328
   7    H       -0.185638421     0.986241013    -3.170747715
   8    H        1.192648734     2.674676656    -1.659685009
   9    C        1.174796588     2.047122524     1.197737181
  10    C       -0.459784057    -0.189692857    -1.326880785
  11    C       -0.000154249     0.871396580    -2.120856222
  12    H        2.170140021     2.500992096     1.085951949
  13    H        1.181179961     1.446633396     2.116412866
  14    H        0.466209919     2.876511820     1.369495625


           Empirical Formula: C6 H8  =    14 atoms



      MOLECULAR POINT GROUP   :   C1  


                  EIGENVALUES  
 -31.23878 -26.55261 -24.10334 -22.47943 -18.74255 -18.18341 -16.74199 -15.54101
 -14.38930 -13.52783 -13.21680 -12.78054 -12.59932 -12.22575  -9.60210  -8.78133
   0.73064   1.38714   3.01719   3.75029   4.11241   4.75469   5.11027   5.42395
   5.47412   5.74335   6.03287   6.31032   6.53059   6.64401   6.69356   6.70997


              NET ATOMIC CHARGES AND DIPOLE CONTRIBUTIONS

  ATOM NO.   TYPE          CHARGE      No. of ELECS.   s-Pop       p-Pop       
    1          C          -0.254206        4.2542     1.07787     3.17634
    2          H           0.282519        0.7175     0.71748
    3          C          -0.066068        4.0661     1.05887     3.00719
    4          C          -0.237543        4.2375     1.08090     3.15665
    5          H           0.163288        0.8367     0.83671
    6          H           0.152197        0.8478     0.84780
    7          H           0.147819        0.8522     0.85218
    8          H           0.153134        0.8469     0.84687
    9          C          -0.439417        4.4394     1.04434     3.39507
   10          C          -0.217028        4.2170     1.07913     3.13790
   11          C          -0.160020        4.1600     1.08483     3.07519
   12          H           0.155348        0.8447     0.84465
   13          H           0.149390        0.8506     0.85061
   14          H           0.170587        0.8294     0.82941
 DIPOLE           X         Y         Z       TOTAL
 POINT-CHG.     1.388    -0.415     1.450     2.050
 HYBRID         0.359    -0.178     0.203     0.449
 SUM            1.747    -0.594     1.652     2.477


          ATOMIC ORBITAL ELECTRON POPULATIONS

     Atom    s        px        py        pz   
    1  C   1.07787   0.98232   1.11857   1.07544
    2  H   0.71748
    3  C   1.05887   1.11288   0.89823   0.99608
    4  C   1.08090   1.08862   1.07688   0.99114
    5  H   0.83671
    6  H   0.84780
    7  H   0.85218
    8  H   0.84687
    9  C   1.04434   1.17473   1.14849   1.07186
   10  C   1.07913   1.08160   1.06978   0.98652
   11  C   1.08483   1.01401   0.99532   1.06586
   12  H   0.84465
   13  H   0.85061
   14  H   0.82941
 *******************************************************************************
 ** Site#: 37037        For non-commercial use only           Version 21.158W **
 *******************************************************************************
 ** Cite this program as: MOPAC2016, Version: 21.158W, James J. P. Stewart,   **
 ** Stewart Computational Chemistry, web: HTTP://OpenMOPAC.net. Days left: 358**
 *******************************************************************************
 **                                                                           **
 **                                MOPAC2016                                  **
 **                                                                           **
 *******************************************************************************

                              PM7 CALCULATION RESULTS

 *******************************************************************************
 *  CALCULATION DONE:                                Mon Jun 14 12:33:28 2021  *
 *  OPT        - OPTIMIZE COORDINATES OF ALL ATOMS
 *  OLDGEO     - PREVIOUS GEOMETRY TO BE USED
 *  TS         - USE EF ROUTINE FOR TS SEARCH
 *  T=         - A TIME OF 172800.0 SECONDS REQUESTED
 *  DUMP=N     - RESTART FILE WRITTEN EVERY 7200.0 SECONDS REQUESTED
 *******************************************************************************
oldgeo ts opt
 Transition state for 1-Methyl cyclopenta-2,4-diene <=> 1-Methyl cyclopenta-1,3-diene

  ATOM    CHEMICAL      BOND LENGTH      BOND ANGLE     TWIST ANGLE 
 NUMBER    SYMBOL       (ANGSTROMS)      (DEGREES)       (DEGREES) 
   (I)                     NA:I           NB:NA:I       NC:NB:NA:I       NA    NB    NC 
     1       C          0.00000000       0.0000000       0.0000000        0     0     0
     2       H          1.43322810  *    0.0000000       0.0000000        1     0     0
     3       C          1.43322810  *   62.6702354  *    0.0000000        2     1     0
     4       C          1.41643894  *  108.7014207  *  -98.2984281  *     3     2     1
     5       H          1.07004064  *  110.0331070  * -119.9572889  *     1     2     3
     6       H          2.21239592  *  118.6050401  * -118.6802437  *     1     2     5
     7       H          2.20432746  *  132.1910779  *   61.3091836  *     4     3     2
     8       H          1.06897211  *  125.1585556  *  179.6521061  *     4     3     7
     9       C          1.48091779  *  109.8986381  * -141.0331542  *     3     2     4
    10       C          1.06944871  *   31.6006440  *  -70.6090445  *     6     1     2
    11       C          1.07231794  *   31.4244330  *    0.6304003  *     7     4     3
    12       H          1.09963725  *  112.1910159  *   78.2402824  *     9     3     2
    13       H          1.09753950  *  113.1187437  * -122.2129589  *     9     3    12
    14       H          1.10430188  *  110.1900296  * -119.1136482  *     9     3    13
 


          CARTESIAN COORDINATES 

    NO.       ATOM           X           Y           Z

     1         C          0.0000      0.0000      0.0000
     2         H          1.4332      0.0000      0.0000
     3         C          0.7752      1.2732      0.0000
     4         C          0.7387      1.7656     -1.3276
     5         H         -0.3666     -0.5020      0.8710
     6         H         -1.0592     -1.0109     -1.6586
     7         H         -0.1856      0.9862     -3.1707
     8         H          1.1926      2.6747     -1.6597
     9         C          1.1748      2.0471      1.1977
    10         C         -0.4598     -0.1897     -1.3269
    11         C         -0.0002      0.8714     -2.1209
    12         H          2.1701      2.5010      1.0860
    13         H          1.1812      1.4466      2.1164
    14         H          0.4662      2.8765      1.3695

 General Reference for PM7:
 "Optimization of Parameters for Semiempirical Methods VI: More Modifications to the 
 NDDO Approximations and Re-optimization of Parameters", J. J. P. Stewart, J. Mol. Mod., 1:32, 19 (2013)
 https://link.springer.com/article/10.1007/s00894-012-1667-x

           Empirical Formula: C6 H8  =    14 atoms



      MOLECULAR POINT GROUP   :   C1  


      RHF CALCULATION, NO. OF DOUBLY OCCUPIED LEVELS = 16


          Transition state refinement using EF

          HESSIAN CALCULATED NUMERICALLY

 CYCLE:     1 TIME:   0.141 TIME LEFT:  2.00D  GRAD.:     8.137 HEAT:  63.11696
 CYCLE:     2 TIME:   0.016 TIME LEFT:  2.00D  GRAD.:     0.524 HEAT:  63.18035

     GRADIENT =  0.52362 IS LESS THAN CUTOFF =  1.00000



 -------------------------------------------------------------------------------
 ts opt
 Transition state for 1-Methyl cyclopenta-2,4-diene <=> 1-Methyl cyclopenta-1,3-diene



     GEOMETRY OPTIMISED USING EIGENVECTOR FOLLOWING (TS).     
     SCF FIELD WAS ACHIEVED                                   


                              PM7 CALCULATION
                                                       MOPAC2016 (Version: 21.158W)
                                                       Mon Jun 14 12:33:28 2021
                                                       No. of days remaining = 358




          FINAL HEAT OF FORMATION =         63.18035 KCAL/MOL =     264.34659 KJ/MOL


          TOTAL ENERGY            =       -842.46904 EV
          ELECTRONIC ENERGY       =      -3566.03577 EV  POINT GROUP:     C1  
          CORE-CORE REPULSION     =       2723.56674 EV
          COSMO AREA              =        126.82 SQUARE ANGSTROMS
          COSMO VOLUME            =        116.50 CUBIC ANGSTROMS

          GRADIENT NORM           =          0.52362 = 0.13994 PER ATOM
          IONIZATION POTENTIAL    =          8.792164 EV
          HOMO LUMO ENERGIES (EV) =         -8.792  0.724
          NO. OF FILLED LEVELS    =         16
          MOLECULAR WEIGHT        =         80.1292

          MOLECULAR DIMENSIONS (Angstroms)

            Atom       Atom       Distance
            H    12    H     6     5.50735
            H     7    H     5     4.20491
            H     2    H    14     2.70033


          SCF CALCULATIONS        =         39
 
          WALL-CLOCK TIME         =          0.391 SECONDS
          COMPUTATION TIME        =          1.469 SECONDS




  ATOM    CHEMICAL      BOND LENGTH      BOND ANGLE     TWIST ANGLE 
 NUMBER    SYMBOL       (ANGSTROMS)      (DEGREES)       (DEGREES) 
   (I)                     NA:I           NB:NA:I       NC:NB:NA:I       NA    NB    NC 
     1       C          0.00000000       0.0000000       0.0000000        0     0     0
     2       H          1.44519770  *    0.0000000       0.0000000        1     0     0
     3       C          1.42188935  *   62.6444448  *    0.0000000        2     1     0
     4       C          1.42069117  *  108.8064982  *  -98.2759774  *     3     2     1
     5       H          1.06998077  *  109.4094042  * -120.2256132  *     1     2     3
     6       H          2.21046408  *  118.8181205  * -118.5463627  *     1     2     5
     7       H          2.20304862  *  132.1243101  *   61.7790729  *     4     3     2
     8       H          1.06891374  *  125.0038575  *  179.7893963  *     4     3     7
     9       C          1.48127265  *  110.2275886  * -141.1421119  *     3     2     4
    10       C          1.06969036  *   31.4369372  *  -70.3941756  *     6     1     2
    11       C          1.07237878  *   31.2678576  *    0.7325011  *     7     4     3
    12       H          1.09959311  *  112.1634126  *   79.0393786  *     9     3     2
    13       H          1.09743693  *  113.1252341  * -122.2265296  *     9     3    12
    14       H          1.10432912  *  110.1990056  * -119.1029328  *     9     3    13

                             CARTESIAN COORDINATES

   1    C        0.000000000     0.000000000     0.000000000
   2    H        1.445197703     0.000000000     0.000000000
   3    C        0.791823960     1.262882451     0.000000000
   4    C        0.753302512     1.758610171    -1.330839408
   5    H       -0.355571668    -0.508023377     0.871974705
   6    H       -1.065511753    -1.004076964    -1.656099514
   7    H       -0.184257400     0.986382540    -3.168791834
   8    H        1.214903247     2.664273232    -1.661408260
   9    C        1.184554390     2.042702083     1.196583815
  10    C       -0.461554117    -0.186874949    -1.321953593
  11    C        0.006033554     0.873022572    -2.119537278
  12    H        2.172724740     2.510875217     1.080660237
  13    H        1.202940259     1.442573647     2.115210850
  14    H        0.464637573     2.861723265     1.371131488


           Empirical Formula: C6 H8  =    14 atoms



      MOLECULAR POINT GROUP   :   C1  


                  EIGENVALUES  
 -31.23658 -26.54011 -24.12446 -22.46138 -18.74138 -18.19815 -16.74449 -15.53091
 -14.38255 -13.52085 -13.22289 -12.77856 -12.59059 -12.22117  -9.59488  -8.79216
   0.72376   1.38856   3.01972   3.75265   4.12212   4.75501   5.10617   5.43508
   5.48600   5.74455   6.02668   6.30576   6.52838   6.65175   6.69052   6.70400


              NET ATOMIC CHARGES AND DIPOLE CONTRIBUTIONS

  ATOM NO.   TYPE          CHARGE      No. of ELECS.   s-Pop       p-Pop       
    1          C          -0.246877        4.2469     1.07936     3.16751
    2          H           0.281646        0.7184     0.71835
    3          C          -0.073951        4.0740     1.05743     3.01652
    4          C          -0.232599        4.2326     1.08138     3.15122
    5          H           0.162299        0.8377     0.83770
    6          H           0.152349        0.8477     0.84765
    7          H           0.147855        0.8521     0.85214
    8          H           0.152917        0.8471     0.84708
    9          C          -0.437618        4.4376     1.04418     3.39344
   10          C          -0.219465        4.2195     1.07901     3.14045
   11          C          -0.160473        4.1605     1.08492     3.07556
   12          H           0.155100        0.8449     0.84490
   13          H           0.148880        0.8511     0.85112
   14          H           0.169937        0.8301     0.83006
 DIPOLE           X         Y         Z       TOTAL
 POINT-CHG.     1.387    -0.418     1.433     2.038
 HYBRID         0.350    -0.194     0.199     0.447
 SUM            1.737    -0.612     1.632     2.460


          ATOMIC ORBITAL ELECTRON POPULATIONS

     Atom    s        px        py        pz   
    1  C   1.07936   0.97591   1.11704   1.07457
    2  H   0.71835
    3  C   1.05743   1.11916   0.90038   0.99698
    4  C   1.08138   1.08487   1.07566   0.99068
    5  H   0.83770
    6  H   0.84765
    7  H   0.85214
    8  H   0.84708
    9  C   1.04418   1.17519   1.14709   1.07117
   10  C   1.07901   1.08260   1.07030   0.98756
   11  C   1.08492   1.01393   0.99568   1.06594
   12  H   0.84490
   13  H   0.85112
   14  H   0.83006
 *******************************************************************************
 ** Site#: 37037        For non-commercial use only           Version 21.158W **
 *******************************************************************************
 ** Cite this program as: MOPAC2016, Version: 21.158W, James J. P. Stewart,   **
 ** Stewart Computational Chemistry, web: HTTP://OpenMOPAC.net. Days left: 358**
 *******************************************************************************
 **                                                                           **
 **                                MOPAC2016                                  **
 **                                                                           **
 *******************************************************************************

                              PM7 CALCULATION RESULTS

 *******************************************************************************
 *  CALCULATION DONE:                                Mon Jun 14 12:33:28 2021  *
 *  OLDGEO     - PREVIOUS GEOMETRY TO BE USED
 *  FORCE      - FORCE CALCULATION SPECIFIED
 *  T=         - A TIME OF 172800.0 SECONDS REQUESTED
 *  DUMP=N     - RESTART FILE WRITTEN EVERY 7200.0 SECONDS REQUESTED
 *  ISOTOPE    - SAVE THE FORCE MATRIX FOR USE LATER
 *******************************************************************************
oldgeo force isotope
 Transition state for 1-Methyl cyclopenta-2,4-diene <=> 1-Methyl cyclopenta-1,3-diene

  ATOM    CHEMICAL      BOND LENGTH      BOND ANGLE     TWIST ANGLE 
 NUMBER    SYMBOL       (ANGSTROMS)      (DEGREES)       (DEGREES) 
   (I)                     NA:I           NB:NA:I       NC:NB:NA:I       NA    NB    NC 
     1       C          0.00000000       0.0000000       0.0000000        0     0     0
     2       H          1.44519770  *    0.0000000       0.0000000        1     0     0
     3       C          1.42188935  *   62.6444448  *    0.0000000        2     1     0
     4       C          1.42069117  *  108.8064982  *  -98.2759774  *     3     2     1
     5       H          1.06998077  *  109.4094042  * -120.2256132  *     1     2     3
     6       H          2.21046408  *  118.8181205  * -118.5463627  *     1     2     5
     7       H          2.20304862  *  132.1243101  *   61.7790729  *     4     3     2
     8       H          1.06891374  *  125.0038575  *  179.7893963  *     4     3     7
     9       C          1.48127265  *  110.2275886  * -141.1421119  *     3     2     4
    10       C          1.06969036  *   31.4369372  *  -70.3941756  *     6     1     2
    11       C          1.07237878  *   31.2678576  *    0.7325011  *     7     4     3
    12       H          1.09959311  *  112.1634126  *   79.0393786  *     9     3     2
    13       H          1.09743693  *  113.1252341  * -122.2265296  *     9     3    12
    14       H          1.10432912  *  110.1990056  * -119.1029328  *     9     3    13
 


          CARTESIAN COORDINATES 

    NO.       ATOM           X           Y           Z

     1         C          0.0000      0.0000      0.0000
     2         H          1.4452      0.0000      0.0000
     3         C          0.7918      1.2629      0.0000
     4         C          0.7533      1.7586     -1.3308
     5         H         -0.3556     -0.5080      0.8720
     6         H         -1.0655     -1.0041     -1.6561
     7         H         -0.1843      0.9864     -3.1688
     8         H          1.2149      2.6643     -1.6614
     9         C          1.1846      2.0427      1.1966
    10         C         -0.4616     -0.1869     -1.3220
    11         C          0.0060      0.8730     -2.1195
    12         H          2.1727      2.5109      1.0807
    13         H          1.2029      1.4426      2.1152
    14         H          0.4646      2.8617      1.3711

 General Reference for PM7:
 "Optimization of Parameters for Semiempirical Methods VI: More Modifications to the 
 NDDO Approximations and Re-optimization of Parameters", J. J. P. Stewart, J. Mol. Mod., 1:32, 19 (2013)
 https://link.springer.com/article/10.1007/s00894-012-1667-x

           Empirical Formula: C6 H8  =    14 atoms



      MOLECULAR POINT GROUP   :   C1  


      RHF CALCULATION, NO. OF DOUBLY OCCUPIED LEVELS = 16



          HEAT OF FORMATION =      63.196127 KCALS/MOLE


          CARTESIAN COORDINATE DERIVATIVES

   NUMBER  ATOM         X            Y            Z

     1       C      0.172491    -0.010077     0.228973
     2       H     -0.013638    -0.174332     0.028071
     3       C     -0.380359     0.163074    -0.162998
     4       C      0.245933     0.051843     0.118049
     5       H      0.019617     0.030474    -0.118664
     6       H      0.033897    -0.123415    -0.058445
     7       H     -0.201733     0.084148    -0.003298
     8       H     -0.003652    -0.011688    -0.019678
     9       C      0.069811     0.029493    -0.004648
    10       C     -0.064908     0.177593    -0.050691
    11       C      0.132230    -0.204103     0.025413
    12       H      0.018200    -0.006158     0.022502
    13       H     -0.003525    -0.002678     0.000510
    14       H     -0.024365    -0.004177    -0.005098
 


          GRADIENT NORM =   0.75994


          TIME FOR SCF CALCULATION =    0.02

          TIME FOR DERIVATIVES     =    0.00

          MOLECULAR WEIGHT =   80.13



          ROTATIONAL CONSTANTS IN CM(-1)

          A =    0.26573949   B =    0.11110847   C =    0.08119677



           PRINCIPAL MOMENTS OF INERTIA IN UNITS OF 10**(-40)*GRAM-CM**2

          A =      105.3392   B =      251.9410   C =      344.7523


          ORIENTATION OF MOLECULE IN FORCE CALCULATION

    NO.       ATOM         X         Y         Z

     1          C      -0.4025   -0.9746    0.5492
     2          H       1.0427   -0.9746    0.5492
     3          C       0.3894    0.2883    0.5492
     4          C       0.3508    0.7840   -0.7817
     5          H      -0.7580   -1.4826    1.4211
     6          H      -1.4680   -1.9787   -1.1069
     7          H      -0.5867    0.0118   -2.6196
     8          H       0.8124    1.6897   -1.1122
     9          C       0.7821    1.0681    1.7457
    10          C      -0.8640   -1.1614   -0.7728
    11          C      -0.3964   -0.1016   -1.5704
    12          H       1.7703    1.5363    1.6298
    13          H       0.8005    0.4680    2.6644
    14          H       0.0622    1.8871    1.9203


    FIRST DERIVATIVES WILL BE USED IN THE CALCULATION OF SECOND DERIVATIVES

          ESTIMATED TIME TO COMPLETE CALCULATION =        1.31 SECONDS

    FOR POINT-GROUP C1   THERE ARE   1 UNIQUE SYMMETRY FUNCTIONS.

 STEP:   1 TIME =     0.02 SECS, INTEGRAL =      0.02 TIME LEFT: 172799.97
 STEP:   2 TIME =     0.00 SECS, INTEGRAL =      0.02 TIME LEFT: 172799.97
 STEP:   3 TIME =     0.02 SECS, INTEGRAL =      0.03 TIME LEFT: 172799.95
 STEP:   4 TIME =     0.02 SECS, INTEGRAL =      0.05 TIME LEFT: 172799.94
 STEP:   5 TIME =     0.00 SECS, INTEGRAL =      0.05 TIME LEFT: 172799.94
 STEP:   6 TIME =     0.02 SECS, INTEGRAL =      0.06 TIME LEFT: 172799.92
 STEP:   7 TIME =     0.02 SECS, INTEGRAL =      0.08 TIME LEFT: 172799.91
 STEP:   8 TIME =     0.00 SECS, INTEGRAL =      0.08 TIME LEFT: 172799.91
 STEP:   9 TIME =     0.02 SECS, INTEGRAL =      0.09 TIME LEFT: 172799.89
 STEP:  10 TIME =     0.02 SECS, INTEGRAL =      0.11 TIME LEFT: 172799.88
 STEP:  11 TIME =     0.00 SECS, INTEGRAL =      0.11 TIME LEFT: 172799.88
 STEP:  12 TIME =     0.02 SECS, INTEGRAL =      0.12 TIME LEFT: 172799.86
 STEP:  13 TIME =     0.00 SECS, INTEGRAL =      0.12 TIME LEFT: 172799.86
 STEP:  14 TIME =     0.02 SECS, INTEGRAL =      0.14 TIME LEFT: 172799.84
 STEP:  15 TIME =     0.00 SECS, INTEGRAL =      0.14 TIME LEFT: 172799.84
 STEP:  16 TIME =     0.02 SECS, INTEGRAL =      0.16 TIME LEFT: 172799.83
 STEP:  17 TIME =     0.00 SECS, INTEGRAL =      0.16 TIME LEFT: 172799.83
 STEP:  18 TIME =     0.02 SECS, INTEGRAL =      0.17 TIME LEFT: 172799.81
 STEP:  19 TIME =     0.00 SECS, INTEGRAL =      0.17 TIME LEFT: 172799.81
 STEP:  20 TIME =     0.02 SECS, INTEGRAL =      0.19 TIME LEFT: 172799.80
 STEP:  21 TIME =     0.00 SECS, INTEGRAL =      0.19 TIME LEFT: 172799.80
 STEP:  22 TIME =     0.02 SECS, INTEGRAL =      0.20 TIME LEFT: 172799.78
 STEP:  23 TIME =     0.00 SECS, INTEGRAL =      0.20 TIME LEFT: 172799.78
 STEP:  24 TIME =     0.00 SECS, INTEGRAL =      0.20 TIME LEFT: 172799.78
 STEP:  25 TIME =     0.02 SECS, INTEGRAL =      0.22 TIME LEFT: 172799.77
 STEP:  26 TIME =     0.00 SECS, INTEGRAL =      0.22 TIME LEFT: 172799.77
 STEP:  27 TIME =     0.02 SECS, INTEGRAL =      0.23 TIME LEFT: 172799.75
 STEP:  28 TIME =     0.00 SECS, INTEGRAL =      0.23 TIME LEFT: 172799.75
 STEP:  29 TIME =     0.02 SECS, INTEGRAL =      0.25 TIME LEFT: 172799.73
 STEP:  30 TIME =     0.02 SECS, INTEGRAL =      0.27 TIME LEFT: 172799.72
 STEP:  31 TIME =     0.02 SECS, INTEGRAL =      0.28 TIME LEFT: 172799.70
 STEP:  32 TIME =     0.02 SECS, INTEGRAL =      0.30 TIME LEFT: 172799.69
 STEP:  33 TIME =     0.00 SECS, INTEGRAL =      0.30 TIME LEFT: 172799.69
 STEP:  34 TIME =     0.02 SECS, INTEGRAL =      0.31 TIME LEFT: 172799.67
 STEP:  35 TIME =     0.00 SECS, INTEGRAL =      0.31 TIME LEFT: 172799.67
 STEP:  36 TIME =     0.00 SECS, INTEGRAL =      0.31 TIME LEFT: 172799.67
 STEP:  37 TIME =     0.02 SECS, INTEGRAL =      0.33 TIME LEFT: 172799.66
 STEP:  38 TIME =     0.02 SECS, INTEGRAL =      0.34 TIME LEFT: 172799.64
 STEP:  39 TIME =     0.00 SECS, INTEGRAL =      0.34 TIME LEFT: 172799.64
 STEP:  40 TIME =     0.00 SECS, INTEGRAL =      0.34 TIME LEFT: 172799.64
 STEP:  41 TIME =     0.02 SECS, INTEGRAL =      0.36 TIME LEFT: 172799.62
 STEP:  42 TIME =     0.00 SECS, INTEGRAL =      0.36 TIME LEFT: 172799.62

(To convert to Hartree/Bohr^2, multiply by (10^(-21) x N x a0^2)/(4.184 x 627.51) =  0.0642)


           FORCE MATRIX IN MILLIDYNES/ANGSTROM


                  C  1       H  2       C  3       C  4       H  5       H  6
 ------------------------------------------------------------------------------
     C    1  12.959292
     H    2   2.389940   2.784320
     C    3   5.121000   2.420796  14.400302
     C    4   1.985189   1.256693   5.339013  14.909936
     H    5   3.570891   0.289899   0.574060   0.104368   4.406222
     H    6   0.684218   0.024332   0.059599   0.080537   0.016840   4.454167
     H    7   0.081365   0.013344   0.082362   0.675832   0.007407   0.019372
     H    8   0.063732   0.022761   0.675134   3.616276   0.011628   0.006228
     C    9   0.518400   0.414396   4.175096   0.634996   0.016004   0.013766
     C   10   5.660096   1.301310   2.014041   2.226195   0.653656   3.608837
     C   11   2.402794   0.997902   2.384059   6.100428   0.113833   0.671703
     H   12   0.053309   0.012275   0.733248   0.014073   0.002022   0.002408
     H   13   0.019766   0.020627   0.714471   0.046026   0.008856   0.002483
     H   14   0.030939   0.037168   0.741161   0.013198   0.004996   0.002339


                  H  7       H  8       C  9       C 10       C 11       H 12
 ------------------------------------------------------------------------------
     H    7   4.445055
     H    8   0.020101   4.459366
     C    9   0.009445   0.023659  11.769963
     C   10   0.670524   0.081483   0.138117  14.970526
     C   11   3.603701   0.676317   0.129678   5.883613  15.199808
     H   12   0.001718   0.008920   3.398034   0.016725   0.011653   4.206415
     H   13   0.001847   0.001774   3.418445   0.013590   0.012734   0.461658
     H   14   0.001723   0.007678   3.363089   0.019394   0.015568   0.459915


                  H 13       H 14
 ------------------------------
     H   13   4.222410
     H   14   0.459621   4.177260


          HEAT OF FORMATION =      63.196127 KCALS/MOLE

          ZERO POINT ENERGY      69.548 KCAL/MOL

         NOTE: SYSTEM IS NOT A GROUND STATE, THEREFORE ZERO POINT
         ENERGY IS NOT MEANINGFULL. ZERO POINT ENERGY PRINTED
         DOES NOT INCLUDE THE  1 IMAGINARY FREQUENCIES


           NORMAL COORDINATE ANALYSIS (Total motion = 1 Angstrom)


   Root No.       1         2         3         4         5         6         7         8

                 1 A       2 A       3 A       4 A       5 A       6 A       7 A       8 A   

               -1604.5      96.9     257.4     323.3     505.9     570.7     663.9     808.4
  
           1   -0.0713   -0.0126   -0.0441   -0.0094   -0.0319   -0.0219    0.0029   -0.0187
           2    0.0073    0.0069    0.0140   -0.0440    0.0280    0.0168    0.0188    0.0028
           3   -0.0176    0.0022    0.0022   -0.0100    0.0088    0.0185   -0.0508   -0.0553
           4    0.3412   -0.0128   -0.0330   -0.0159   -0.0318   -0.0372   -0.0105   -0.0201
           5    0.5242   -0.0109    0.0318   -0.0453   -0.0224   -0.1019   -0.0207    0.0050
           6   -0.0211    0.0070    0.0210    0.0295    0.0769    0.0196    0.0309   -0.1109
           7    0.0399    0.0021   -0.0483   -0.0084    0.0122    0.0675    0.0643    0.0184
           8   -0.0619   -0.0026    0.0170   -0.0427   -0.0017   -0.0430    0.0091    0.0273
           9    0.0164    0.0004    0.0150    0.0296   -0.0053   -0.0225    0.0334   -0.0213
          10   -0.0110    0.0154   -0.0416    0.0086    0.0261   -0.0341   -0.0313    0.0333
          11   -0.0036   -0.0082    0.0195   -0.0116   -0.0155    0.0333   -0.0426    0.0580
          12   -0.0278   -0.0019    0.0141    0.0421   -0.0118    0.0163    0.0108    0.0150
          13    0.0628   -0.0230   -0.0648   -0.0242   -0.1108   -0.1158   -0.0640    0.0499
          14   -0.0484    0.0155    0.0170   -0.0719    0.0896    0.1169    0.0484    0.0254
          15   -0.0029    0.0030   -0.0052   -0.0324    0.0125    0.0381   -0.0596   -0.0144
          16    0.0076   -0.0176    0.0749    0.0002    0.1709    0.0081   -0.0557    0.0206
          17   -0.0028    0.0130   -0.0498    0.0127   -0.1101    0.0057   -0.0132   -0.1047
          18   -0.0094    0.0015   -0.0362   -0.0544   -0.0382    0.0065   -0.0079   -0.0864
          19   -0.0028    0.0161    0.0787   -0.0080   -0.1642    0.0425   -0.0125    0.0969
          20   -0.0056   -0.0056   -0.0399    0.0721    0.0954   -0.0184    0.0113   -0.0293
          21   -0.0006   -0.0035   -0.0215    0.0192    0.0383    0.0006   -0.0312    0.0817
          22   -0.0036    0.0284   -0.0698    0.0222    0.0801   -0.1594   -0.1016    0.0624
          23    0.0059   -0.0157    0.0390   -0.0057   -0.0499    0.1122   -0.0129    0.0128
          24    0.0085   -0.0041    0.0280    0.0759   -0.0303    0.0562   -0.0149   -0.0620
          25   -0.0054   -0.0024    0.0538    0.0104   -0.0005   -0.0089    0.0299    0.0047
          26    0.0049    0.0002   -0.0063    0.0510   -0.0055   -0.0171    0.0494    0.0088
          27    0.0028   -0.0001   -0.0009   -0.0388    0.0025   -0.0295    0.0738   -0.0071
          28    0.0004   -0.0090    0.0285   -0.0016    0.0554    0.0094   -0.0255   -0.0614
          29   -0.0109    0.0070   -0.0233    0.0013   -0.0355    0.0038   -0.0195   -0.0757
          30    0.0290    0.0007   -0.0174   -0.0229   -0.0128    0.0087   -0.0454   -0.0199
          31    0.0142    0.0086    0.0303   -0.0020   -0.0553    0.0213   -0.0212    0.0083
          32    0.0237   -0.0029   -0.0173    0.0279    0.0319   -0.0030   -0.0301   -0.0138
          33   -0.0007   -0.0018   -0.0104    0.0133    0.0122    0.0059   -0.0342    0.1041
          34   -0.0045   -0.1204    0.0651    0.0023   -0.0022   -0.0270    0.0157    0.0012
          35    0.0016    0.2231   -0.0447    0.0533    0.0007    0.0303    0.0811    0.0235
          36   -0.0019   -0.1100   -0.0712   -0.1141    0.0160    0.0223    0.1179    0.0366
          37   -0.0017    0.2616    0.1013    0.0444   -0.0056   -0.0414    0.0072   -0.0173
          38    0.0071   -0.0544   -0.0166    0.1386   -0.0125    0.0120    0.0590   -0.0178
          39    0.0057   -0.0419   -0.0088    0.0150   -0.0016   -0.0104    0.0781   -0.0233
          40   -0.0031   -0.1570    0.1024    0.0080   -0.0072   -0.0672   -0.0064   -0.0104
          41    0.0004   -0.1681    0.0211    0.0628   -0.0115   -0.0479    0.0249   -0.0029
          42   -0.0038    0.1533    0.0621   -0.0979    0.0020   -0.1023    0.0329   -0.0058


   Root No.       9        10        11        12        13        14        15        16

                 9 A      10 A      11 A      12 A      13 A      14 A      15 A      16 A   

                 834.8     902.7     953.7     964.5    1006.5    1034.5    1064.7    1079.5
  
           1   -0.0027    0.0213   -0.0013    0.0439   -0.0160   -0.0064    0.0077   -0.0184
           2    0.0109   -0.0148    0.0603    0.0235    0.0293   -0.0133    0.0349    0.0005
           3    0.0100   -0.0087   -0.0059   -0.0243    0.0013    0.0011   -0.0202    0.0093
           4   -0.0106    0.0342    0.0108    0.0694   -0.0214   -0.0250   -0.0125   -0.0383
           5   -0.0397    0.0355   -0.0283    0.0427   -0.0224   -0.0233   -0.0057   -0.0850
           6   -0.0759    0.0536   -0.1691    0.0010    0.0246    0.0016    0.3533   -0.1036
           7    0.0130    0.0021   -0.0077   -0.0140   -0.0020   -0.0048    0.0192    0.0416
           8   -0.0102   -0.0052   -0.0070   -0.0085    0.0021   -0.0046    0.0011   -0.0185
           9    0.0061   -0.0001    0.0152    0.0115    0.0020   -0.0050   -0.0017   -0.0079
          10   -0.0233   -0.0403   -0.0152    0.0165    0.0302    0.0124   -0.0176   -0.0090
          11   -0.0037    0.0247   -0.0057   -0.0212   -0.0193    0.0321    0.0117    0.0094
          12    0.0079    0.0086    0.0258    0.0118   -0.0028   -0.0400    0.0108   -0.0029
          13    0.0690   -0.1427    0.1147   -0.0680    0.0889   -0.0097    0.0780    0.0531
          14   -0.0548    0.1324   -0.0117    0.1807   -0.0975   -0.0203   -0.1535   -0.0300
          15    0.0003    0.0115    0.0012    0.0256   -0.0292   -0.0024   -0.0970    0.0193
          16    0.1968   -0.1526   -0.0681    0.0648   -0.1580    0.0052    0.0195   -0.0189
          17   -0.1137    0.0955    0.0144   -0.0710    0.0882    0.0118   -0.0438    0.0268
          18   -0.0362    0.0399    0.0756    0.0329    0.0685   -0.0284    0.0566   -0.0214
          19    0.1714    0.0887   -0.0853    0.0747    0.2230   -0.0531   -0.0133   -0.0117
          20   -0.1045   -0.0567    0.0964   -0.0118   -0.1317   -0.0840    0.0287   -0.0173
          21   -0.0602   -0.0210    0.0262   -0.0131   -0.0539    0.0011    0.0155   -0.0023
          22    0.1167    0.2300    0.0710   -0.0706   -0.1103   -0.0260    0.0368    0.0273
          23   -0.0849   -0.1373   -0.0510    0.0407    0.0660    0.0285   -0.0353   -0.0212
          24   -0.0194   -0.0581    0.0279    0.0647    0.0374   -0.0948   -0.0412   -0.0374
          25    0.0052   -0.0002   -0.0029   -0.0246   -0.0002    0.0017   -0.0151   -0.0476
          26   -0.0023   -0.0044   -0.0220   -0.0165   -0.0061   -0.0286   -0.0184    0.0262
          27    0.0018   -0.0007   -0.0081   -0.0041   -0.0040    0.0522   -0.0131    0.0165
          28   -0.0132    0.0227    0.0131   -0.0225    0.0418    0.0017   -0.0150    0.0116
          29    0.0252   -0.0161   -0.0149    0.0038   -0.0281    0.0014    0.0046   -0.0032
          30    0.0045   -0.0041   -0.0108    0.0002   -0.0126    0.0059   -0.0009   -0.0014
          31   -0.0205   -0.0107    0.0144   -0.0127   -0.0542    0.0011    0.0087    0.0010
          32    0.0106    0.0096   -0.0162    0.0043    0.0302    0.0007   -0.0128    0.0003
          33   -0.0138    0.0044   -0.0054    0.0036    0.0138    0.0027    0.0075   -0.0024
          34   -0.0083   -0.0017   -0.0188   -0.0021   -0.0040   -0.0257   -0.0010    0.0254
          35    0.0261   -0.0026    0.0073   -0.0700    0.0019    0.0055   -0.0460   -0.1250
          36    0.0223   -0.0126   -0.0438   -0.1336   -0.0060   -0.1336   -0.0800   -0.1434
          37   -0.0123    0.0060    0.0018    0.0478   -0.0037    0.0794    0.0188    0.0808
          38    0.0229    0.0089    0.0569    0.0301    0.0068    0.2207    0.0010   -0.0361
          39    0.0171    0.0065    0.0377    0.0209    0.0038    0.1849   -0.0021   -0.0248
          40   -0.0282    0.0002   -0.0320    0.0448   -0.0097   -0.0141    0.0177    0.1311
          41   -0.0165   -0.0013   -0.0198    0.0342   -0.0085    0.0087    0.0041    0.1135
          42   -0.0435   -0.0121   -0.0846    0.0171   -0.0174   -0.1297    0.0037    0.1802


   Root No.      17        18        19        20        21        22        23        24

                17 A      18 A      19 A      20 A      21 A      22 A      23 A      24 A   

                1147.7    1167.2    1190.0    1279.6    1282.6    1285.4    1345.1    1390.2
  
           1   -0.0065   -0.0039   -0.0131   -0.0035    0.0031    0.0124   -0.0370    0.0006
           2   -0.0102    0.0021   -0.0267   -0.0035    0.0029    0.0118   -0.0545    0.0021
           3    0.0167   -0.0066    0.0116   -0.0034    0.0033    0.0216   -0.0060   -0.0055
           4   -0.0031   -0.0196   -0.0247   -0.0007    0.0008    0.0114   -0.0436   -0.0032
           5    0.0191   -0.0261   -0.0103   -0.0006    0.0111    0.0218    0.1178   -0.0169
           6    0.0731    0.1017    0.0182    0.0094   -0.0006   -0.0231   -0.0387   -0.0004
           7    0.0038   -0.0038   -0.0022   -0.0005   -0.0014    0.0113    0.0562   -0.0006
           8    0.0135   -0.0089   -0.0083   -0.0001    0.0063    0.0178    0.1039   -0.0028
           9   -0.0061   -0.0095   -0.0227    0.0017   -0.0024   -0.0169   -0.0043    0.0088
          10   -0.0103   -0.0009    0.0080    0.0016   -0.0018   -0.0097    0.0030   -0.0035
          11   -0.0196    0.0101    0.0237    0.0001   -0.0030   -0.0081   -0.0229   -0.0013
          12    0.0085   -0.0080   -0.0183    0.0053   -0.0027   -0.0209    0.0500   -0.0091
          13    0.1597    0.1719    0.0337    0.0162   -0.0198   -0.1012   -0.0084    0.0018
          14    0.1103    0.1003    0.0143    0.0112   -0.0203   -0.0912    0.0015    0.0019
          15    0.1513    0.1248    0.0549    0.0134   -0.0195   -0.0851    0.0228   -0.0039
          16   -0.0112   -0.0144   -0.0131    0.0009    0.0001   -0.0035    0.0027    0.0012
          17    0.0621    0.0184   -0.1402   -0.0101    0.0120    0.0551   -0.0345    0.0018
          18   -0.1545   -0.0805    0.2855    0.0283   -0.0314   -0.1564    0.0957   -0.0007
          19    0.1057   -0.0904    0.1283   -0.0170    0.0154    0.0875   -0.0531    0.0073
          20    0.1681   -0.1338    0.2184   -0.0260    0.0244    0.1385   -0.0749    0.0101
          21   -0.0032   -0.0159   -0.0266   -0.0012    0.0014    0.0017   -0.0086    0.0025
          22   -0.0576    0.1082    0.0482   -0.0074    0.0095    0.0640    0.0254   -0.0015
          23   -0.0433    0.0497    0.0383   -0.0027    0.0042    0.0293   -0.0034   -0.0013
          24   -0.1311    0.2515    0.0735   -0.0135    0.0320    0.1820    0.1033   -0.0044
          25   -0.0014    0.0054    0.0048   -0.0117   -0.0283   -0.0015   -0.0177   -0.0186
          26   -0.0108    0.0072    0.0106   -0.0278    0.0121   -0.0106   -0.0371   -0.0324
          27   -0.0003    0.0090    0.0204    0.0159    0.0037    0.0079   -0.0247   -0.0549
          28   -0.0022   -0.0105   -0.0137    0.0011   -0.0008   -0.0066    0.0099    0.0004
          29   -0.0044   -0.0173   -0.0208    0.0026   -0.0015   -0.0139    0.0151   -0.0016
          30   -0.0095   -0.0028   -0.0030   -0.0019    0.0030    0.0147   -0.0083    0.0059
          31    0.0006    0.0002   -0.0005    0.0011   -0.0019   -0.0094   -0.0083    0.0032
          32    0.0037    0.0051    0.0081    0.0023   -0.0035   -0.0168   -0.0061    0.0042
          33   -0.0013   -0.0177   -0.0261   -0.0017    0.0016    0.0032   -0.0131    0.0025
          34   -0.0056    0.0049    0.0042   -0.1358    0.0854   -0.0260   -0.0038   -0.0274
          35   -0.0011    0.0055    0.0055    0.2627   -0.1599    0.0342   -0.0389    0.0809
          36   -0.0226    0.0240    0.0139    0.0190    0.1833   -0.0551   -0.0922    0.2784
          37    0.0070    0.0033    0.0172    0.0563    0.3313   -0.0220    0.0199    0.0985
          38    0.0216    0.0075    0.0249   -0.1478   -0.0471    0.0235    0.0635    0.2455
          39    0.0169    0.0084    0.0243   -0.0813   -0.0405    0.0230    0.0345    0.1337
          40   -0.0042   -0.0016    0.0069    0.2287   -0.0528    0.0307   -0.0128    0.1427
          41   -0.0039   -0.0018    0.0098    0.2277    0.0173    0.0229   -0.0129    0.0553
          42   -0.0259    0.0108    0.0095   -0.1641   -0.2005   -0.0005   -0.0410    0.2192


   Root No.      25        26        27        28        29        30        31        32

                25 A      26 A      27 A      28 A      29 A      30 A      31 A      32 A   

                1450.9    1486.4    1547.3    1571.0    2145.9    2664.0    2677.0    2778.5
  
           1    0.0241   -0.0195   -0.0253   -0.0051   -0.0441    0.0003   -0.0006   -0.0026
           2    0.0144   -0.0059   -0.0098   -0.0178   -0.0138    0.0001   -0.0007   -0.0038
           3    0.1058   -0.0306   -0.0800    0.0053    0.0006   -0.0000    0.0004    0.0073
           4    0.1207    0.0398   -0.0145   -0.0431    0.6938   -0.0040    0.0021   -0.0024
           5    0.1386    0.0467   -0.0277   -0.0163   -0.4447    0.0036   -0.0017    0.0008
           6    0.0206    0.0111    0.0010    0.0025    0.0456    0.0007   -0.0001    0.0009
           7    0.0013   -0.0231   -0.0055    0.0269   -0.0074    0.0024    0.0016   -0.0017
           8   -0.0177   -0.0287   -0.0140    0.0088    0.0486   -0.0022    0.0027   -0.0034
           9   -0.0120   -0.0840    0.0309    0.1453    0.0029   -0.0005   -0.0015   -0.0047
          10    0.0490   -0.0093    0.0648   -0.0053   -0.0025    0.0001   -0.0002    0.0007
          11    0.0597   -0.0180    0.0834    0.0344    0.0016    0.0001   -0.0006    0.0015
          12    0.0544    0.0123    0.0573   -0.1052   -0.0042   -0.0000    0.0006   -0.0001
          13   -0.0487    0.0585    0.0276    0.0475   -0.0114   -0.0005    0.0028    0.0364
          14   -0.0543    0.0513    0.0377    0.0545   -0.0048   -0.0002    0.0036    0.0524
          15    0.0244    0.0172   -0.0218    0.0702    0.0014    0.0008   -0.0068   -0.0905
          16   -0.0338    0.0490    0.0223    0.0067   -0.0039    0.0006   -0.0005    0.0041
          17   -0.0281    0.0490    0.0791    0.0022   -0.0075    0.0007   -0.0006    0.0056
          18   -0.0480    0.0729   -0.1149    0.0333    0.0083    0.0003   -0.0002    0.0023
          19   -0.0519    0.0394    0.0538    0.0459   -0.0002    0.0001   -0.0001    0.0001
          20   -0.0682    0.0316    0.1158    0.0640    0.0001   -0.0000   -0.0000    0.0001
          21   -0.0418    0.0764   -0.0683    0.0224   -0.0031    0.0007   -0.0002   -0.0002
          22    0.0083    0.0211    0.0205    0.0467    0.0046   -0.0007    0.0031   -0.0088
          23    0.0315   -0.0154    0.0544    0.0576    0.0074   -0.0007    0.0061   -0.0173
          24   -0.0589    0.0940   -0.0581    0.0674    0.0089    0.0002   -0.0018    0.0059
          25   -0.0037    0.0091    0.0008   -0.0092   -0.0001    0.0415    0.0228   -0.0057
          26   -0.0025    0.0158    0.0021   -0.0152   -0.0008   -0.0247    0.0342   -0.0102
          27   -0.0066    0.0286   -0.0109   -0.0356    0.0003    0.0034   -0.0301   -0.0170
          28   -0.0311    0.0545    0.0315    0.0134   -0.0023   -0.0000    0.0000   -0.0004
          29   -0.0057    0.0989    0.0050    0.0415    0.0011   -0.0000   -0.0000   -0.0008
          30   -0.1016   -0.0364    0.1069   -0.0561   -0.0033   -0.0001    0.0001    0.0005
          31   -0.0418   -0.0321   -0.0747   -0.0255   -0.0003   -0.0000    0.0001    0.0002
          32   -0.0524   -0.0826   -0.0868   -0.0561    0.0004   -0.0001    0.0001    0.0004
          33   -0.0371    0.0784   -0.0818    0.0393   -0.0004   -0.0001    0.0000   -0.0002
          34   -0.0028   -0.0019    0.0021    0.0054    0.0042   -0.2369   -0.3691    0.2470
          35    0.0022    0.0194    0.0032   -0.0190   -0.0036   -0.1379   -0.1669    0.1171
          36    0.0289    0.0371    0.0122   -0.0330   -0.0054    0.0249    0.0192   -0.0293
          37    0.0130    0.0156   -0.0090   -0.0255    0.0026    0.0167    0.0235    0.0049
          38    0.0213    0.0490   -0.0193   -0.0782    0.0042    0.0843   -0.2300   -0.1567
          39    0.0094    0.0364   -0.0191   -0.0504   -0.0019   -0.1546    0.3822    0.2393
          40    0.0221    0.0215   -0.0036   -0.0253   -0.0131   -0.3022    0.0564   -0.1688
          41    0.0069    0.0117   -0.0029   -0.0120    0.0062    0.3696   -0.0356    0.1926
          42    0.0306    0.0319    0.0020   -0.0288   -0.0054    0.0947   -0.0281    0.0409


   Root No.      33        34        35        36

                33 A      34 A      35 A      36 A   

                2781.8    2790.3    2796.1    2805.2
  
           1    0.0114    0.0017   -0.0013    0.0036
           2    0.0174    0.0021   -0.0017    0.0057
           3   -0.0322   -0.0005    0.0008   -0.0075
           4    0.0092    0.0010    0.0007    0.0007
           5    0.0028   -0.0007    0.0013    0.0007
           6   -0.0021    0.0002    0.0004   -0.0020
           7    0.0010   -0.0005   -0.0002   -0.0012
           8    0.0015   -0.0011   -0.0009   -0.0016
           9   -0.0029    0.0011    0.0011   -0.0011
          10    0.0031   -0.0059   -0.0130   -0.0104
          11    0.0057   -0.0105   -0.0258   -0.0209
          12   -0.0010    0.0013    0.0097    0.0081
          13   -0.1631   -0.0095    0.0077   -0.0358
          14   -0.2344   -0.0141    0.0109   -0.0520
          15    0.4029    0.0248   -0.0185    0.0891
          16    0.0585   -0.1208    0.2441   -0.1338
          17    0.0782   -0.1633    0.3297   -0.1808
          18    0.0325   -0.0671    0.1348   -0.0742
          19    0.0068    0.0880    0.0111   -0.0361
          20   -0.0045   -0.0523   -0.0066    0.0214
          21    0.0388    0.4846    0.0610   -0.1986
          22   -0.0394    0.0675    0.1717    0.1277
          23   -0.0771    0.1321    0.3365    0.2507
          24    0.0287   -0.0486   -0.1228   -0.0917
          25   -0.0012   -0.0003   -0.0003   -0.0005
          26   -0.0020   -0.0005   -0.0004   -0.0012
          27   -0.0046   -0.0006    0.0000   -0.0015
          28   -0.0040    0.0093   -0.0191    0.0115
          29   -0.0048    0.0134   -0.0253    0.0153
          30   -0.0044    0.0026   -0.0114    0.0061
          31   -0.0010   -0.0069   -0.0029    0.0029
          32   -0.0007    0.0043   -0.0027   -0.0022
          33   -0.0025   -0.0376   -0.0049    0.0172
          34    0.0557    0.0101    0.0053    0.0237
          35    0.0262    0.0049    0.0027    0.0117
          36   -0.0069   -0.0012   -0.0006   -0.0024
          37    0.0014    0.0001   -0.0001    0.0005
          38   -0.0408   -0.0055   -0.0003   -0.0132
          39    0.0636    0.0082   -0.0001    0.0209
          40   -0.0398   -0.0064   -0.0021   -0.0160
          41    0.0453    0.0074    0.0025    0.0187
          42    0.0098    0.0014    0.0004    0.0042


           MASS-WEIGHTED COORDINATE ANALYSIS (NORMAL COORDINATES)


   Root No.       1         2         3         4         5         6         7         8

                 1 A       2 A       3 A       4 A       5 A       6 A       7 A       8 A   

               -1604.5      96.9     257.4     323.3     505.9     570.7     663.9     808.4
  
           1   -0.3281   -0.0895   -0.3200   -0.0686   -0.2159   -0.1497    0.0168   -0.0987
           2    0.0335    0.0486    0.1015   -0.3198    0.1895    0.1152    0.1075    0.0147
           3   -0.0809    0.0159    0.0156   -0.0724    0.0597    0.1270   -0.2906   -0.2913
           4    0.4546   -0.0263   -0.0694   -0.0334   -0.0624   -0.0737   -0.0175   -0.0307
           5    0.6984   -0.0224    0.0668   -0.0952   -0.0439   -0.2021   -0.0344    0.0077
           6   -0.0281    0.0143    0.0441    0.0620    0.1509    0.0389    0.0513   -0.1692
           7    0.1834    0.0151   -0.3505   -0.0613    0.0824    0.4623    0.3679    0.0968
           8   -0.2848   -0.0187    0.1232   -0.3105   -0.0113   -0.2946    0.0518    0.1438
           9    0.0756    0.0029    0.1092    0.2148   -0.0361   -0.1544    0.1912   -0.1124
          10   -0.0504    0.1088   -0.3021    0.0625    0.1765   -0.2334   -0.1792    0.1754
          11   -0.0165   -0.0582    0.1414   -0.0843   -0.1050    0.2282   -0.2439    0.3052
          12   -0.1280   -0.0134    0.1026    0.3057   -0.0798    0.1115    0.0620    0.0792
          13    0.0837   -0.0471   -0.1362   -0.0508   -0.2173   -0.2297   -0.1061    0.0761
          14   -0.0644    0.0317    0.0358   -0.1514    0.1756    0.2318    0.0802    0.0387
          15   -0.0038    0.0062   -0.0109   -0.0682    0.0245    0.0756   -0.0987   -0.0219
          16    0.0101   -0.0361    0.1575    0.0005    0.3352    0.0161   -0.0924    0.0315
          17   -0.0037    0.0267   -0.1047    0.0267   -0.2158    0.0114   -0.0219   -0.1596
          18   -0.0125    0.0032   -0.0762   -0.1144   -0.0750    0.0129   -0.0131   -0.1318
          19   -0.0038    0.0330    0.1654   -0.0169   -0.3219    0.0842   -0.0206    0.1478
          20   -0.0075   -0.0116   -0.0840    0.1517    0.1870   -0.0365    0.0187   -0.0447
          21   -0.0008   -0.0071   -0.0452    0.0404    0.0751    0.0012   -0.0517    0.1245
          22   -0.0049    0.0583   -0.1468    0.0468    0.1571   -0.3161   -0.1684    0.0952
          23    0.0079   -0.0322    0.0821   -0.0119   -0.0979    0.2225   -0.0214    0.0195
          24    0.0113   -0.0084    0.0589    0.1598   -0.0594    0.1114   -0.0246   -0.0945
          25   -0.0247   -0.0169    0.3905    0.0755   -0.0031   -0.0611    0.1713    0.0248
          26    0.0226    0.0011   -0.0455    0.3703   -0.0369   -0.1172    0.2828    0.0465
          27    0.0129   -0.0010   -0.0063   -0.2818    0.0171   -0.2018    0.4225   -0.0375
          28    0.0016   -0.0639    0.2070   -0.0114    0.3749    0.0645   -0.1461   -0.3230
          29   -0.0501    0.0495   -0.1695    0.0093   -0.2401    0.0263   -0.1116   -0.3984
          30    0.1333    0.0053   -0.1263   -0.1661   -0.0865    0.0595   -0.2599   -0.1046
          31    0.0654    0.0611    0.2200   -0.0145   -0.3745    0.1457   -0.1214    0.0436
          32    0.1092   -0.0204   -0.1255    0.2029    0.2156   -0.0206   -0.1721   -0.0729
          33   -0.0031   -0.0128   -0.0753    0.0969    0.0827    0.0406   -0.1955    0.5481
          34   -0.0059   -0.2469    0.1369    0.0048   -0.0044   -0.0536    0.0261    0.0019
          35    0.0021    0.4574   -0.0940    0.1121    0.0013    0.0601    0.1345    0.0359
          36   -0.0025   -0.2255   -0.1498   -0.2401    0.0315    0.0442    0.1954    0.0558
          37   -0.0023    0.5364    0.2130    0.0935   -0.0109   -0.0821    0.0119   -0.0264
          38    0.0094   -0.1114   -0.0350    0.2918   -0.0244    0.0238    0.0978   -0.0271
          39    0.0076   -0.0859   -0.0185    0.0315   -0.0032   -0.0207    0.1296   -0.0355
          40   -0.0042   -0.3219    0.2153    0.0168   -0.0142   -0.1333   -0.0106   -0.0158
          41    0.0005   -0.3446    0.0444    0.1322   -0.0225   -0.0950    0.0414   -0.0044
          42   -0.0051    0.3144    0.1305   -0.2061    0.0039   -0.2029    0.0546   -0.0089


   Root No.       9        10        11        12        13        14        15        16

                 9 A      10 A      11 A      12 A      13 A      14 A      15 A      16 A   

                 834.8     902.7     953.7     964.5    1006.5    1034.5    1064.7    1079.5
  
           1   -0.0223    0.1592   -0.0107    0.3648   -0.1093   -0.0461    0.0554   -0.1391
           2    0.0913   -0.1104    0.5020    0.1953    0.2004   -0.0960    0.2505    0.0035
           3    0.0831   -0.0652   -0.0489   -0.2022    0.0089    0.0081   -0.1453    0.0701
           4   -0.0257    0.0740    0.0260    0.1672   -0.0424   -0.0525   -0.0261   -0.0839
           5   -0.0959    0.0768   -0.0683    0.1028   -0.0443   -0.0489   -0.0118   -0.1860
           6   -0.1835    0.1161   -0.4076    0.0025    0.0487    0.0033    0.7354   -0.2267
           7    0.1084    0.0157   -0.0637   -0.1166   -0.0138   -0.0348    0.1382    0.3143
           8   -0.0849   -0.0386   -0.0584   -0.0708    0.0142   -0.0335    0.0081   -0.1398
           9    0.0509   -0.0006    0.1268    0.0956    0.0136   -0.0362   -0.0119   -0.0594
          10   -0.1947   -0.3014   -0.1261    0.1370    0.2061    0.0896   -0.1264   -0.0681
          11   -0.0310    0.1842   -0.0471   -0.1767   -0.1318    0.2321    0.0838    0.0713
          12    0.0659    0.0641    0.2145    0.0980   -0.0190   -0.2897    0.0775   -0.0221
          13    0.1669   -0.3087    0.2764   -0.1637    0.1759   -0.0203    0.1623    0.1161
          14   -0.1325    0.2865   -0.0281    0.4355   -0.1929   -0.0426   -0.3195   -0.0657
          15    0.0007    0.0249    0.0028    0.0618   -0.0577   -0.0050   -0.2018    0.0421
          16    0.4756   -0.3302   -0.1641    0.1563   -0.3125    0.0110    0.0407   -0.0414
          17   -0.2748    0.2067    0.0346   -0.1710    0.1744    0.0247   -0.0913    0.0586
          18   -0.0876    0.0864    0.1822    0.0792    0.1356   -0.0596    0.1179   -0.0468
          19    0.4143    0.1919   -0.2055    0.1800    0.4412   -0.1114   -0.0277   -0.0255
          20   -0.2524   -0.1226    0.2324   -0.0284   -0.2605   -0.1762    0.0598   -0.0378
          21   -0.1456   -0.0454    0.0631   -0.0316   -0.1066    0.0023    0.0322   -0.0049
          22    0.2821    0.4976    0.1711   -0.1700   -0.2181   -0.0545    0.0767    0.0598
          23   -0.2051   -0.2970   -0.1230    0.0980    0.1306    0.0598   -0.0735   -0.0463
          24   -0.0470   -0.1257    0.0673    0.1558    0.0740   -0.1988   -0.0858   -0.0818
          25    0.0434   -0.0016   -0.0238   -0.2049   -0.0012    0.0126   -0.1087   -0.3598
          26   -0.0188   -0.0331   -0.1827   -0.1372   -0.0418   -0.2074   -0.1323    0.1976
          27    0.0148   -0.0056   -0.0672   -0.0341   -0.0274    0.3781   -0.0939    0.1246
          28   -0.1100    0.1694    0.1088   -0.1874    0.2854    0.0124   -0.1078    0.0875
          29    0.2101   -0.1201   -0.1236    0.0314   -0.1917    0.0098    0.0328   -0.0242
          30    0.0375   -0.0303   -0.0902    0.0020   -0.0863    0.0428   -0.0064   -0.0105
          31   -0.1709   -0.0803    0.1196   -0.1053   -0.3700    0.0082    0.0625    0.0075
          32    0.0887    0.0714   -0.1350    0.0356    0.2064    0.0052   -0.0919    0.0022
          33   -0.1152    0.0326   -0.0450    0.0299    0.0944    0.0192    0.0540   -0.0181
          34   -0.0200   -0.0036   -0.0453   -0.0050   -0.0078   -0.0539   -0.0021    0.0556
          35    0.0632   -0.0057    0.0176   -0.1688    0.0038    0.0115   -0.0958   -0.2736
          36    0.0540   -0.0273   -0.1055   -0.3220   -0.0118   -0.2802   -0.1665   -0.3138
          37   -0.0297    0.0130    0.0044    0.1153   -0.0073    0.1666    0.0390    0.1768
          38    0.0554    0.0192    0.1372    0.0725    0.0134    0.4630    0.0022   -0.0791
          39    0.0414    0.0140    0.0909    0.0503    0.0076    0.3878   -0.0043   -0.0543
          40   -0.0683    0.0005   -0.0772    0.1080   -0.0193   -0.0296    0.0368    0.2869
          41   -0.0398   -0.0028   -0.0477    0.0824   -0.0168    0.0183    0.0085    0.2483
          42   -0.1051   -0.0262   -0.2040    0.0413   -0.0344   -0.2720    0.0077    0.3944


   Root No.      17        18        19        20        21        22        23        24

                17 A      18 A      19 A      20 A      21 A      22 A      23 A      24 A   

                1147.7    1167.2    1190.0    1279.6    1282.6    1285.4    1345.1    1390.2
  
           1   -0.0539   -0.0303   -0.0932   -0.0230    0.0219    0.1056   -0.2139    0.0040
           2   -0.0844    0.0165   -0.1896   -0.0232    0.0203    0.1003   -0.3152    0.0135
           3    0.1376   -0.0517    0.0824   -0.0226    0.0229    0.1837   -0.0349   -0.0344
           4   -0.0073   -0.0445   -0.0508   -0.0013    0.0016    0.0281   -0.0731   -0.0059
           5    0.0455   -0.0592   -0.0213   -0.0011    0.0227    0.0539    0.1975   -0.0308
           6    0.1745    0.2309    0.0375    0.0182   -0.0013   -0.0571   -0.0648   -0.0007
           7    0.0312   -0.0301   -0.0157   -0.0033   -0.0102    0.0961    0.3252   -0.0036
           8    0.1109   -0.0696   -0.0591   -0.0005    0.0444    0.1520    0.6013   -0.0174
           9   -0.0501   -0.0746   -0.1611    0.0115   -0.0168   -0.1444   -0.0246    0.0553
          10   -0.0849   -0.0073    0.0565    0.0107   -0.0124   -0.0824    0.0175   -0.0221
          11   -0.1615    0.0794    0.1681    0.0007   -0.0212   -0.0686   -0.1327   -0.0079
          12    0.0700   -0.0629   -0.1297    0.0350   -0.0192   -0.1783    0.2893   -0.0575
          13    0.3812    0.3900    0.0693    0.0312   -0.0403   -0.2497   -0.0141    0.0033
          14    0.2633    0.2277    0.0295    0.0217   -0.0415   -0.2250    0.0026    0.0034
          15    0.3612    0.2831    0.1130    0.0258   -0.0397   -0.2099    0.0382   -0.0072
          16   -0.0266   -0.0326   -0.0270    0.0017    0.0003   -0.0086    0.0044    0.0022
          17    0.1482    0.0417   -0.2883   -0.0195    0.0244    0.1359   -0.0579    0.0033
          18   -0.3689   -0.1828    0.5873    0.0546   -0.0639   -0.3860    0.1604   -0.0013
          19    0.2522   -0.2053    0.2639   -0.0329    0.0314    0.2160   -0.0890    0.0133
          20    0.4012   -0.3037    0.4493   -0.0501    0.0498    0.3418   -0.1256    0.0184
          21   -0.0077   -0.0360   -0.0547   -0.0023    0.0028    0.0043   -0.0145    0.0045
          22   -0.1375    0.2456    0.0992   -0.0142    0.0194    0.1579    0.0426   -0.0027
          23   -0.1035    0.1128    0.0787   -0.0052    0.0086    0.0723   -0.0056   -0.0023
          24   -0.3129    0.5708    0.1512   -0.0260    0.0651    0.4493    0.1732   -0.0080
          25   -0.0112    0.0420    0.0338   -0.0778   -0.1989   -0.0126   -0.1023   -0.1170
          26   -0.0886    0.0566    0.0754   -0.1856    0.0853   -0.0900   -0.2146   -0.2038
          27   -0.0021    0.0704    0.1451    0.1062    0.0259    0.0672   -0.1427   -0.3459
          28   -0.0183   -0.0822   -0.0973    0.0074   -0.0057   -0.0559    0.0575    0.0023
          29   -0.0366   -0.1356   -0.1478    0.0170   -0.0108   -0.1181    0.0875   -0.0103
          30   -0.0781   -0.0221   -0.0215   -0.0125    0.0208    0.1257   -0.0483    0.0369
          31    0.0053    0.0012   -0.0038    0.0071   -0.0131   -0.0801   -0.0482    0.0204
          32    0.0301    0.0397    0.0573    0.0156   -0.0245   -0.1430   -0.0351    0.0265
          33   -0.0109   -0.1383   -0.1852   -0.0113    0.0112    0.0271   -0.0755    0.0159
          34   -0.0135    0.0111    0.0087   -0.2621    0.1740   -0.0641   -0.0063   -0.0499
          35   -0.0026    0.0124    0.0113    0.5073   -0.3260    0.0844   -0.0652    0.1475
          36   -0.0540    0.0545    0.0286    0.0366    0.3736   -0.1361   -0.1545    0.5077
          37    0.0166    0.0076    0.0354    0.1087    0.6752   -0.0543    0.0334    0.1797
          38    0.0516    0.0171    0.0511   -0.2854   -0.0960    0.0579    0.1064    0.4479
          39    0.0403    0.0190    0.0500   -0.1571   -0.0825    0.0569    0.0579    0.2438
          40   -0.0099   -0.0037    0.0143    0.4415   -0.1076    0.0758   -0.0214    0.2603
          41   -0.0094   -0.0040    0.0201    0.4397    0.0352    0.0566   -0.0216    0.1008
          42   -0.0618    0.0245    0.0195   -0.3168   -0.4087   -0.0011   -0.0687    0.3997


   Root No.      25        26        27        28        29        30        31        32

                25 A      26 A      27 A      28 A      29 A      30 A      31 A      32 A   

                1450.9    1486.4    1547.3    1571.0    2145.9    2664.0    2677.0    2778.5
  
           1    0.1151   -0.0938   -0.1037   -0.0227   -0.1774    0.0019   -0.0035   -0.0180
           2    0.0690   -0.0282   -0.0403   -0.0797   -0.0554    0.0003   -0.0038   -0.0267
           3    0.5060   -0.1471   -0.3278    0.0238    0.0025   -0.0000    0.0019    0.0509
           4    0.1672    0.0553   -0.0172   -0.0558    0.8082   -0.0065    0.0034   -0.0049
           5    0.1920    0.0649   -0.0329   -0.0210   -0.5180    0.0059   -0.0028    0.0017
           6    0.0285    0.0155    0.0011    0.0033    0.0531    0.0012   -0.0001    0.0017
           7    0.0060   -0.1107   -0.0224    0.1200   -0.0299    0.0134    0.0086   -0.0118
           8   -0.0846   -0.1380   -0.0573    0.0394    0.1956   -0.0122    0.0145   -0.0237
           9   -0.0576   -0.4031    0.1268    0.6491    0.0115   -0.0031   -0.0081   -0.0327
          10    0.2341   -0.0445    0.2656   -0.0238   -0.0101    0.0004   -0.0013    0.0052
          11    0.2855   -0.0863    0.3419    0.1536    0.0065    0.0004   -0.0032    0.0104
          12    0.2602    0.0592    0.2348   -0.4698   -0.0169   -0.0001    0.0032   -0.0007
          13   -0.0675    0.0813    0.0328    0.0614   -0.0133   -0.0008    0.0044    0.0736
          14   -0.0752    0.0714    0.0447    0.0705   -0.0056   -0.0004    0.0057    0.1060
          15    0.0337    0.0240   -0.0259    0.0908    0.0016    0.0012   -0.0108   -0.1832
          16   -0.0468    0.0681    0.0264    0.0087   -0.0046    0.0009   -0.0008    0.0082
          17   -0.0390    0.0681    0.0940    0.0028   -0.0087    0.0012   -0.0009    0.0113
          18   -0.0664    0.1014   -0.1364    0.0430    0.0096    0.0004   -0.0002    0.0046
          19   -0.0718    0.0548    0.0638    0.0593   -0.0002    0.0002   -0.0001    0.0001
          20   -0.0944    0.0440    0.1374    0.0828    0.0002   -0.0001   -0.0001    0.0002
          21   -0.0579    0.1063   -0.0810    0.0291   -0.0036    0.0011   -0.0003   -0.0004
          22    0.0115    0.0294    0.0243    0.0605    0.0053   -0.0011    0.0049   -0.0178
          23    0.0436   -0.0214    0.0645    0.0745    0.0086   -0.0011    0.0096   -0.0351
          24   -0.0815    0.1308   -0.0690    0.0872    0.0104    0.0004   -0.0029    0.0120
          25   -0.0176    0.0436    0.0034   -0.0411   -0.0006    0.2349    0.1246   -0.0399
          26   -0.0121    0.0760    0.0085   -0.0679   -0.0032   -0.1395    0.1867   -0.0712
          27   -0.0314    0.1373   -0.0447   -0.1591    0.0011    0.0194   -0.1643   -0.1190
          28   -0.1487    0.2616    0.1291    0.0597   -0.0091   -0.0001    0.0001   -0.0029
          29   -0.0271    0.4750    0.0203    0.1855    0.0043   -0.0002   -0.0001   -0.0055
          30   -0.4857   -0.1747    0.4382   -0.2508   -0.0132   -0.0004    0.0006    0.0034
          31   -0.1997   -0.1541   -0.3062   -0.1139   -0.0012   -0.0002    0.0003    0.0015
          32   -0.2507   -0.3966   -0.3557   -0.2507    0.0015   -0.0004    0.0005    0.0026
          33   -0.1775    0.3764   -0.3354    0.1754   -0.0015   -0.0004    0.0001   -0.0012
          34   -0.0039   -0.0026    0.0025    0.0069    0.0049   -0.3885   -0.5832    0.5002
          35    0.0030    0.0270    0.0038   -0.0246   -0.0042   -0.2262   -0.2637    0.2371
          36    0.0400    0.0516    0.0145   -0.0427   -0.0063    0.0407    0.0304   -0.0593
          37    0.0180    0.0218   -0.0107   -0.0330    0.0030    0.0273    0.0372    0.0100
          38    0.0296    0.0681   -0.0229   -0.1012    0.0049    0.1382   -0.3634   -0.3174
          39    0.0130    0.0506   -0.0227   -0.0652   -0.0023   -0.2534    0.6039    0.4846
          40    0.0306    0.0299   -0.0043   -0.0327   -0.0153   -0.4954    0.0891   -0.3419
          41    0.0096    0.0163   -0.0035   -0.0156    0.0072    0.6059   -0.0562    0.3899
          42    0.0423    0.0443    0.0024   -0.0372   -0.0063    0.1553   -0.0443    0.0828


   Root No.      33        34        35        36

                33 A      34 A      35 A      36 A   

                2781.8    2790.3    2796.1    2805.2
  
           1    0.0721    0.0098   -0.0071    0.0264
           2    0.1101    0.0126   -0.0094    0.0423
           3   -0.2037   -0.0031    0.0047   -0.0556
           4    0.0169    0.0017    0.0011    0.0015
           5    0.0051   -0.0013    0.0021    0.0016
           6   -0.0038    0.0003    0.0006   -0.0044
           7    0.0063   -0.0028   -0.0013   -0.0087
           8    0.0096   -0.0065   -0.0051   -0.0117
           9   -0.0182    0.0063    0.0064   -0.0078
          10    0.0197   -0.0351   -0.0734   -0.0774
          11    0.0360   -0.0624   -0.1456   -0.1551
          12   -0.0061    0.0076    0.0547    0.0600
          13   -0.2993   -0.0162    0.0126   -0.0770
          14   -0.4302   -0.0243    0.0179   -0.1119
          15    0.7393    0.0426   -0.0302    0.1918
          16    0.1074   -0.2073    0.3992   -0.2881
          17    0.1436   -0.2802    0.5393   -0.3891
          18    0.0596   -0.1152    0.2204   -0.1596
          19    0.0125    0.1510    0.0182   -0.0776
          20   -0.0082   -0.0897   -0.0108    0.0460
          21    0.0712    0.8317    0.0998   -0.4276
          22   -0.0722    0.1158    0.2808    0.2750
          23   -0.1415    0.2268    0.5503    0.5397
          24    0.0527   -0.0834   -0.2008   -0.1973
          25   -0.0074   -0.0016   -0.0015   -0.0039
          26   -0.0124   -0.0032   -0.0023   -0.0087
          27   -0.0293   -0.0033    0.0001   -0.0109
          28   -0.0256    0.0554   -0.1079    0.0851
          29   -0.0305    0.0796   -0.1429    0.1139
          30   -0.0281    0.0155   -0.0641    0.0452
          31   -0.0063   -0.0406   -0.0165    0.0215
          32   -0.0042    0.0253   -0.0153   -0.0164
          33   -0.0161   -0.2230   -0.0277    0.1279
          34    0.1021    0.0173    0.0087    0.0511
          35    0.0481    0.0085    0.0045    0.0251
          36   -0.0127   -0.0021   -0.0010   -0.0051
          37    0.0026    0.0002   -0.0002    0.0010
          38   -0.0749   -0.0094   -0.0005   -0.0284
          39    0.1167    0.0141   -0.0002    0.0450
          40   -0.0730   -0.0110   -0.0034   -0.0345
          41    0.0832    0.0126    0.0041    0.0403
          42    0.0180    0.0024    0.0007    0.0090


          DESCRIPTION OF VIBRATIONS


 VIBRATION          1    1A           ATOM PAIR      ENERGY CONTRIBUTION    RADIAL
 FREQUENCY         -1604.45         H  2 -- C  3         -60.9% (-76.9%)     53.3%
 TRANSITION DIPOLE   0.4471         C  1 -- H  2         -60.3% (-76.5%)     57.9%
 TRAVEL (Ang.)       0.2245         C  3 -- C  4          -3.0% (-17.1%)     50.3%
 REDUCED MASS        0.8340         C  1 -- C 10          -2.9% (-16.7%)     54.6%
 EFFECTIVE MASS      2.4894
 FORCE CONSTANT     -1.2650

 VIBRATION          2    2A           ATOM PAIR      ENERGY CONTRIBUTION    RADIAL
 FREQUENCY            96.87         C  9 -- H 12         +32.2% (561.0%)      0.0%
 TRANSITION DIPOLE   0.0383         C  9 -- H 14         +32.0% (559.0%)      0.0%
 TRAVEL (Ang.)       0.0000         C  9 -- H 13         +31.5% (554.4%)      0.0%
 REDUCED MASS        0.3082         C  4 -- C 10          +0.8% ( 86.0%)      0.0%
 EFFECTIVE MASS      4.0852
 FORCE CONSTANT      0.0017

 VIBRATION          3    3A           ATOM PAIR      ENERGY CONTRIBUTION    RADIAL
 FREQUENCY           257.37         C  3 -- C  9         +16.5% (176.9%)      0.0%
 TRANSITION DIPOLE   0.2274         C  9 -- H 14         +10.6% (141.8%)     71.3%
 TRAVEL (Ang.)       0.4988         C  9 -- H 13         +10.2% (139.2%)      1.1%
 REDUCED MASS        1.0529         C  9 -- H 12          +9.6% (134.7%)     62.4%
 EFFECTIVE MASS     34.9718
 FORCE CONSTANT      0.0411

 VIBRATION          4    4A           ATOM PAIR      ENERGY CONTRIBUTION    RADIAL
 FREQUENCY           323.26         C  3 -- C  9         +14.4% (194.7%)      0.0%
 TRANSITION DIPOLE   0.1299         C  9 -- H 12          +6.8% (134.4%)     43.1%
 TRAVEL (Ang.)       0.4181         C  9 -- H 14          +6.8% (134.1%)     24.3%
 REDUCED MASS        1.1934         C  9 -- H 13          +6.7% (133.2%)     89.2%
 EFFECTIVE MASS     29.3359
 FORCE CONSTANT      0.0735

 VIBRATION          5    5A           ATOM PAIR      ENERGY CONTRIBUTION    RADIAL
 FREQUENCY           505.88         C 10 -- C 11         +20.7% ( 87.5%)      0.0%
 TRANSITION DIPOLE   0.2054         C  1 -- C 10         +12.9% ( 69.2%)      0.0%
 TRAVEL (Ang.)       0.3430         C  4 -- C 11         +11.8% ( 66.0%)      0.0%
 REDUCED MASS        1.1328         C  4 -- C 10          +9.5% ( 59.4%)      0.2%
 EFFECTIVE MASS     10.8055
 FORCE CONSTANT      0.1708

 VIBRATION          6    6A           ATOM PAIR      ENERGY CONTRIBUTION    RADIAL
 FREQUENCY           570.72         C  3 -- C  4         +15.2% ( 78.2%)      0.3%
 TRANSITION DIPOLE   0.4516         H  2 -- C  3         +12.7% ( 71.7%)     32.4%
 TRAVEL (Ang.)       0.2752         C  9 -- H 14          +8.8% ( 59.7%)     70.4%
 REDUCED MASS        1.5599         C  3 -- C  9          +8.4% ( 58.2%)      2.3%
 EFFECTIVE MASS      8.3946
 FORCE CONSTANT      0.2994

 VIBRATION          7    7A           ATOM PAIR      ENERGY CONTRIBUTION    RADIAL
 FREQUENCY           663.89         C  3 -- C 11          +8.3% ( 88.6%)     72.2%
 TRANSITION DIPOLE   0.4247         C  3 -- C  9          +7.7% ( 85.0%)     45.2%
 TRAVEL (Ang.)       0.2380         C  9 -- H 12          +7.5% ( 84.1%)     30.4%
 REDUCED MASS        1.7932         C  3 -- C  4          +7.3% ( 82.8%)      0.3%
 EFFECTIVE MASS     14.5319
 FORCE CONSTANT      0.4657

 VIBRATION          8    8A           ATOM PAIR      ENERGY CONTRIBUTION    RADIAL
 FREQUENCY           808.39         C 10 -- C 11         +13.7% (106.8%)      0.0%
 TRANSITION DIPOLE   0.3384         C  4 -- C 10         +13.3% (105.3%)     95.2%
 TRAVEL (Ang.)       0.1873         C  1 -- C 11         +12.7% (102.7%)     89.4%
 REDUCED MASS        2.3772         C  3 -- C 11         +10.2% ( 92.0%)     63.4%
 EFFECTIVE MASS     14.0433
 FORCE CONSTANT      0.9153

 VIBRATION          9    9A           ATOM PAIR      ENERGY CONTRIBUTION    RADIAL
 FREQUENCY           834.84         H  6 -- C 10         +22.3% ( 65.5%)      1.0%
 TRANSITION DIPOLE   0.7924         H  7 -- C 11         +19.7% ( 61.5%)      2.6%
 TRAVEL (Ang.)       0.5332         C  4 -- H  8         +10.7% ( 45.2%)      3.2%
[...]
     8         H          1.2149      2.6643     -1.6614
     9         C          1.1846      2.0427      1.1966
    10         C         -0.4616     -0.1869     -1.3220
    11         C          0.0060      0.8730     -2.1195
    12         H          2.1727      2.5109      1.0807
    13         H          1.2029      1.4426      2.1152
    14         H          0.4646      2.8617      1.3711

 General Reference for PM7:
 "Optimization of Parameters for Semiempirical Methods VI: More Modifications to the 
 NDDO Approximations and Re-optimization of Parameters", J. J. P. Stewart, J. Mol. Mod., 1:32, 19 (2013)
 https://link.springer.com/article/10.1007/s00894-012-1667-x

           Empirical Formula: C6 H8  =    14 atoms



      MOLECULAR POINT GROUP   :   C1  


      RHF CALCULATION, NO. OF DOUBLY OCCUPIED LEVELS = 16


          MOLECULAR WEIGHT =   80.13


          ESTIMATED TIME TO COMPLETE CALCULATION =        0.00 SECONDS

          TIME USED UP TO RESTART =                  0.36

    FOR POINT-GROUP C1   THERE ARE   1 UNIQUE SYMMETRY FUNCTIONS.

           INITIAL VELOCITY IN DRC (Angstroms/Femtosecond)
        -0.07135         0.00729        -0.01759
         0.34124         0.52419        -0.02111
         0.03989        -0.06193         0.01644
        -0.01096        -0.00358        -0.02783
         0.06285        -0.04836        -0.00286
         0.00760        -0.00281        -0.00940
        -0.00283        -0.00559        -0.00057
        -0.00364         0.00589         0.00848
        -0.00536         0.00491         0.00280
         0.00035        -0.01090         0.02898
         0.01421         0.02374        -0.00067
        -0.00445         0.00155        -0.00185
        -0.00172         0.00707         0.00571
        -0.00315         0.00037        -0.00380
 THE VIBRATIONAL FREQUENCY ( -1604.45CM(-1)) IS TOO SMALL
 FOR ONE QUANTUM TO BE USED
 INSTEAD 0.3KCAL/MOLE WILL BE USED TO START THE IRC

 TIME PRIORITY, INTERVAL = 1.00 FEMTOSECONDS



 FEMTOSECONDS  POINT  POTENTIAL + KINETIC  =   TOTAL     ERROR    REF%   MOVEMENT
     0.000       1    63.19614    0.30000    63.49614   0.00000     1   %  0.0000
     1.000       1    63.16585   -0.34600    62.81984  -0.67630     2   %  0.0210
     2.000       1    63.07955    0.30589    63.38544  -0.11070     3   %  0.0422
     3.000       1    62.93726    2.25567    65.19293   1.69679     4   %  0.0638
     4.000      16    62.54774    0.94829    63.49603  -0.00010     5   %  0.1023
     5.000      20    61.93331    1.56240    63.49571  -0.00043     6   %  0.1447
     6.000      25    60.88370    2.61173    63.49543  -0.00071     7   %  0.1992
     7.000      29    59.17532    4.32001    63.49533  -0.00081     8   %  0.2696
     8.000      33    56.57918    6.91632    63.49550  -0.00063     9   %  0.3595
     9.000      37    52.99157   10.50677    63.49834   0.00222    10   %  0.4718
    10.000      40    48.61761   14.88585    63.50346   0.00735    11   %  0.6081
    11.000      45    44.07070   19.42643    63.49713   0.00103    12   %  0.7677
    12.000      53    40.24560   23.25091    63.49652   0.00043    13   %  0.9471
    13.000      62    37.99436   25.50204    63.49639   0.00032    14   %  1.1408
    14.000      72    37.79097   25.70535    63.49633   0.00028    15   %  1.3414
    15.000      82    39.56527   23.93118    63.49645   0.00042    16   %  1.5412
    16.000      92    42.74167   20.75450    63.49617   0.00015    17   %  1.7327
    17.000     100    46.44538   17.05067    63.49605   0.00004    18   %  1.9093
    18.000     107    49.79527   13.70074    63.49601   0.00001    19   %  2.0657
    19.000     114    52.16164   11.33437    63.49602   0.00003    20   %  2.1986
    20.000     123    53.29431   10.20167    63.49598   0.00000    21   %  2.3061
    21.000     133    53.29045   10.20548    63.49593  -0.00004    22   %  2.3883
    22.000     143    52.41614   11.07974    63.49588  -0.00008    23   %  2.4470
    23.000     153    50.84857   12.64728    63.49585  -0.00011    24   %  2.4850
    24.000     162    48.55423   14.94176    63.49600   0.00005    25   %  2.5067
    25.000     168    45.55266   17.94402    63.49669   0.00075    26   %  2.5176
    26.000     176    42.38566   21.11061    63.49627   0.00035    27   %  2.5255
    27.000     186    40.09176   23.40425    63.49601   0.00010    28   %  2.5395
    28.000     196    39.46217   24.03361    63.49578  -0.00011    29   %  2.5662
    29.000     206    40.40444   23.09125    63.49569  -0.00018    30   %  2.6062
    30.000     216    42.12224   21.37347    63.49571  -0.00015    31   %  2.6567
    31.000     225    43.77970   19.71613    63.49583  -0.00001    32   %  2.7151
    32.000     234    44.99740   18.49854    63.49594   0.00011    33   %  2.7804
    33.000     243    45.94810   17.54785    63.49595   0.00013    34   %  2.8544
    34.000     253    47.10245   16.39345    63.49589   0.00009    35   %  2.9420
    35.000     263    48.70614   14.78961    63.49576  -0.00004    36   %  3.0482
    36.000     273    50.25288   13.24274    63.49562  -0.00016    37   %  3.1735
    37.000     281    50.55544   12.94021    63.49565  -0.00012    38   %  3.3131
    38.000     287    48.74860   14.74770    63.49630   0.00054    39   %  3.4607
    39.000     297    45.36997   18.12617    63.49613   0.00038    40   %  3.6120
    40.000     307    42.10673   21.38925    63.49598   0.00024    41   %  3.7641
    41.000     317    40.32599   23.16975    63.49574   0.00001    42   %  3.9136
    42.000     327    40.06210   23.43353    63.49564  -0.00007    43   %  4.0562
    43.000     336    40.35690   23.13876    63.49566  -0.00004    44   %  4.1896
    44.000     345    40.20811   23.28769    63.49581   0.00013    45   %  4.3209
    45.000     353    39.23595   24.25999    63.49594   0.00028    46   %  4.4690
    46.000     363    37.89773   25.59823    63.49596   0.00032    47   %  4.6278
    47.000     373    37.30243   26.19318    63.49561  -0.00002    48   %  4.7873
    48.000     383    38.51396   24.98178    63.49573   0.00013    49   %  4.9473
    49.000     393    41.50061   21.99496    63.49557  -0.00002    50   %  5.1092
    50.000     403    44.74308   18.75258    63.49565   0.00008    51   %  5.2740
    51.000     411    46.39534   17.10068    63.49602   0.00046    52   %  5.4416
    52.000     421    45.96786   17.52812    63.49598   0.00043    53   %  5.6112
    53.000     431    44.55085   18.94503    63.49588   0.00034    54   %  5.7812
    54.000     441    43.45634   20.03939    63.49573   0.00020    55   %  5.9489
    55.000     451    43.02466   20.47103    63.49568   0.00017    56   %  6.1102
    56.000     460    42.66399   20.83171    63.49570   0.00020    57   %  6.2611
    57.000     468    41.62635   21.86950    63.49585   0.00037    58   %  6.3983
    58.000     476    39.68497   23.81083    63.49580   0.00033    59   %  6.5207
    59.000     485    37.40503   26.09058    63.49562   0.00017    60   %  6.6298
    60.000     495    35.97665   27.51886    63.49552   0.00009    61   %  6.7304
    61.000     505    36.55413   26.94117    63.49530  -0.00011    62   %  6.8295
    62.000     515    39.31524   24.17989    63.49513  -0.00027    63   %  6.9353
    63.000     524    43.10141   20.39368    63.49508  -0.00030    64   %  7.0541
    64.000     531    46.29624   17.19927    63.49551   0.00014    65   %  7.1892
    65.000     539    48.10035   15.39524    63.49559   0.00024    66   %  7.3407
    66.000     549    48.79383   14.70162    63.49545   0.00010    67   %  7.5057
    67.000     559    48.96150   14.53387    63.49537   0.00004    68   %  7.6789
    68.000     569    48.79127   14.70408    63.49535   0.00002    69   %  7.8537
    69.000     578    48.04406   15.45130    63.49536   0.00005    70   %  8.0239
    70.000     587    46.43987   17.05554    63.49542   0.00011    71   %  8.1855
    71.000     596    44.03164   19.46381    63.49545   0.00016    72   %  8.3367
    72.000     606    41.35725   22.13818    63.49543   0.00015    73   %  8.4784
    73.000     616    39.28854   24.20684    63.49538   0.00012    74   %  8.6129
    74.000     626    38.58055   24.91476    63.49532   0.00007    75   %  8.7435
    75.000     636    39.39171   24.10363    63.49534   0.00012    76   %  8.8729
    76.000     646    41.26311   22.23236    63.49547   0.00026    77   %  9.0029
    77.000     654    43.63189   19.86367    63.49556   0.00037    78   %  9.1335
    78.000     663    46.24512   17.25026    63.49539   0.00020    79   %  9.2629
    79.000     671    49.00884   14.48636    63.49519   0.00002    80   %  9.3873
    80.000     680    51.62993   11.86515    63.49508  -0.00009    81   %  9.5018
    81.000     687    53.56663    9.92844    63.49507  -0.00009    82   %  9.6013
    82.000     695    54.29052    9.20468    63.49519   0.00005    83   %  9.6813
    83.000     702    53.56995    9.92536    63.49531   0.00016    84   %  9.7391
    84.000     710    51.58201   11.91330    63.49531   0.00018    85   %  9.7743
    85.000     718    48.81059   14.68468    63.49527   0.00014    86   %  9.7888
    86.000     726    45.80646   17.68877    63.49524   0.00012    87   %  9.7866
    87.000     734    42.99727   20.49799    63.49526   0.00016    88   %  9.7733
    88.000     742    40.71819   22.77704    63.49523   0.00014    89   %  9.7543
    89.000     751    39.35307   24.14203    63.49510   0.00004    90   %  9.7346
    90.000     761    39.28324   24.21177    63.49501  -0.00004    91   %  9.7171
    91.000     771    40.62302   22.87192    63.49494  -0.00010    92   %  9.7029
    92.000     780    43.06717   20.42774    63.49491  -0.00012    93   %  9.6913
    93.000     790    46.03212   17.46280    63.49491  -0.00010    94   %  9.6802
    94.000     798    48.94025   14.55469    63.49495  -0.00005    95   %  9.6677
    95.000     807    51.42246   12.07250    63.49495  -0.00003    96   %  9.6529
    96.000     816    53.32823   10.16669    63.49493  -0.00005    97   %  9.6366
    97.000     826    54.56494    8.92996    63.49490  -0.00008    98   %  9.6211
    98.000     835    54.93404    8.56087    63.49491  -0.00006    99   %  9.6096
    99.000     844    54.20982    9.28523    63.49505   0.00009   100   %  9.6044


           INITIAL VELOCITY IN DRC (Angstroms/Femtosecond)
         0.07135        -0.00729         0.01759
        -0.34124        -0.52419         0.02111
        -0.03989         0.06193        -0.01644
         0.01096         0.00358         0.02783
        -0.06285         0.04836         0.00286
        -0.00760         0.00281         0.00940
         0.00283         0.00559         0.00057
         0.00364        -0.00589        -0.00848
         0.00536        -0.00491        -0.00280
        -0.00035         0.01090        -0.02898
        -0.01421        -0.02374         0.00067
         0.00445        -0.00155         0.00185
         0.00172        -0.00707        -0.00571
         0.00315        -0.00037         0.00380
 THE VIBRATIONAL FREQUENCY ( -1604.45CM(-1)) IS TOO SMALL
 FOR ONE QUANTUM TO BE USED
 INSTEAD 0.3KCAL/MOLE WILL BE USED TO START THE IRC

 TIME PRIORITY, INTERVAL = 1.00 FEMTOSECONDS



 FEMTOSECONDS  POINT  POTENTIAL + KINETIC  =   TOTAL     ERROR    REF%   MOVEMENT
     0.000       1    63.19614    0.30000    63.49614   0.00000     1   %  0.0000
     1.000       1    63.17226   -0.33559    62.83667  -0.65947     2   %  0.0209
     2.000       1    63.09328    0.29434    63.38762  -0.10852     3   %  0.0420
     3.000       1    62.95919    2.18980    65.14899   1.65285     4   %  0.0633
     4.000      16    62.58018    0.91601    63.49620   0.00006     5   %  0.1016
     5.000      20    61.96494    1.53133    63.49627   0.00014     6   %  0.1440
     6.000      25    60.87569    2.62059    63.49628   0.00014     7   %  0.1992
     7.000      30    59.02227    4.47404    63.49631   0.00018     8   %  0.2714
     8.000      35    56.05494    7.44137    63.49631   0.00018     9   %  0.3656
     9.000      39    51.70831   11.79002    63.49833   0.00221    10   %  0.4864
    10.000      43    46.05412   17.44949    63.50361   0.00750    11   %  0.6371
    11.000      48    39.71699   23.78012    63.49711   0.00101    12   %  0.8191
    12.000      56    33.78203   29.71432    63.49635   0.00027    13   %  1.0307
    13.000      66    29.43864   34.05762    63.49626   0.00021    14   %  1.2673
    14.000      76    27.56103   35.93519    63.49622   0.00019    15   %  1.5222
    15.000      86    28.43908   35.05717    63.49624   0.00024    16   %  1.7867
    16.000      96    31.66120   31.83513    63.49633   0.00035    17   %  2.0516
    17.000     106    36.21995   27.27649    63.49643   0.00047    18   %  2.3072
    18.000     114    40.89444   22.60216    63.49660   0.00066    19   %  2.5451
    19.000     124    44.73004   18.76648    63.49652   0.00059    20   %  2.7590
    20.000     134    47.35451   16.14181    63.49632   0.00040    21   %  2.9448
    21.000     144    49.01292   14.48317    63.49609   0.00018    22   %  3.1006
    22.000     154    50.27812   13.21779    63.49590   0.00001    23   %  3.2268
    23.000     164    51.44170   12.05402    63.49573  -0.00016    24   %  3.3252
    24.000     174    51.95758   11.53813    63.49571  -0.00017    25   %  3.3986
    25.000     182    50.75601   12.74022    63.49622   0.00035    26   %  3.4496
    26.000     190    47.58024   15.91612    63.49636   0.00050    27   %  3.4802
    27.000     200    43.79748   19.69877    63.49625   0.00040    28   %  3.4912
    28.000     210    41.26442   22.23150    63.49592   0.00009    29   %  3.4819
    29.000     220    40.56035   22.93534    63.49569  -0.00013    30   %  3.4512
    30.000     230    40.73591   22.75972    63.49564  -0.00017    31   %  3.3975
    31.000     240    40.43537   23.06032    63.49569  -0.00010    32   %  3.3209
    32.000     250    38.97263   24.52318    63.49581   0.00004    33   %  3.2240
    33.000     260    36.76336   26.73252    63.49588   0.00013    34   %  3.1135
    34.000     270    35.16257   28.33326    63.49583   0.00010    35   %  3.0005
    35.000     280    35.60630   27.88925    63.49555  -0.00017    36   %  2.8985
    36.000     290    38.20816   25.28709    63.49525  -0.00045    37   %  2.8179
    37.000     300    41.15219   22.34316    63.49535  -0.00033    38   %  2.7641
    38.000     308    42.25980   21.23602    63.49582   0.00016    39   %  2.7412
    39.000     318    41.37417   22.12185    63.49601   0.00036    40   %  2.7512
    40.000     328    40.49371   23.00214    63.49585   0.00022    41   %  2.8041
    41.000     338    41.48327   22.01229    63.49556  -0.00006    42   %  2.9056
    42.000     348    44.35075   19.14466    63.49541  -0.00019    43   %  3.0335
    43.000     358    47.64705   15.84837    63.49542  -0.00017    44   %  3.1697
    44.000     368    49.75164   13.74384    63.49547  -0.00011    45   %  3.3033
    45.000     376    49.74069   13.75507    63.49577   0.00019    46   %  3.4289
    46.000     384    47.74092   15.75495    63.49586   0.00030    47   %  3.5463
    47.000     394    44.93374   18.56218    63.49593   0.00038    48   %  3.6588
    48.000     404    42.96024   20.53557    63.49581   0.00027    49   %  3.7693
    49.000     414    42.59551   20.90002    63.49554   0.00001    50   %  3.8793
    50.000     424    42.80271   20.69287    63.49558   0.00007    51   %  3.9893
    51.000     434    41.80100   21.69495    63.49595   0.00045    52   %  4.1019
    52.000     444    39.31900   24.17709    63.49610   0.00062    53   %  4.2250
    53.000     454    37.02462   26.47121    63.49583   0.00037    54   %  4.3669
    54.000     464    36.57931   26.91618    63.49548   0.00004    55   %  4.5237
    55.000     474    38.04066   25.45470    63.49536  -0.00007    56   %  4.6836
    56.000     484    40.20912   23.28633    63.49545   0.00004    57   %  4.8359
    57.000     493    41.80445   21.69122    63.49567   0.00027    58   %  4.9744
    58.000     503    42.22824   21.26744    63.49568   0.00030    59   %  5.0956
    59.000     513    41.81831   21.67734    63.49565   0.00029    60   %  5.1981
    60.000     523    41.70084   21.79467    63.49551   0.00017    61   %  5.2834
    61.000     533    42.95795   20.53727    63.49523  -0.00011    62   %  5.3548
    62.000     543    45.37184   18.12323    63.49507  -0.00025    63   %  5.4149
    63.000     553    47.30734   16.18793    63.49528  -0.00003    64   %  5.4642
    64.000     562    47.46166   16.03385    63.49551   0.00021    65   %  5.5005
    65.000     572    46.27837   17.21706    63.49544   0.00015    66   %  5.5205
    66.000     582    45.05263   18.44260    63.49522  -0.00005    67   %  5.5201
    67.000     592    44.26257   19.23260    63.49517  -0.00009    68   %  5.4960
    68.000     602    43.34107   20.15421    63.49528   0.00003    69   %  5.4469
    69.000     612    41.64178   21.85358    63.49535   0.00012    70   %  5.3745
    70.000     622    39.22400   24.27140    63.49540   0.00018    71   %  5.2814
    71.000     632    36.92455   26.57087    63.49542   0.00022    72   %  5.1704
    72.000     642    35.91156   27.58379    63.49534   0.00016    73   %  5.0468
    73.000     652    36.93519   26.55997    63.49516  -0.00000    74   %  4.9195
    74.000     662    39.61509   23.87996    63.49505  -0.00009    75   %  4.8007
    75.000     672    42.55055   20.94462    63.49517   0.00004    76   %  4.7076
    76.000     682    44.56770   18.92755    63.49525   0.00014    77   %  4.6510
    77.000     692    45.74608   17.74909    63.49517   0.00007    78   %  4.6246
    78.000     702    46.86145   16.63354    63.49500  -0.00009    79   %  4.6209
    79.000     712    48.15768   15.33721    63.49490  -0.00018    80   %  4.6350
    80.000     722    49.07824   14.41670    63.49493  -0.00013    81   %  4.6626
    81.000     732    48.93967   14.55536    63.49503  -0.00003    82   %  4.7003
    82.000     742    47.54511   15.95003    63.49514   0.00009    83   %  4.7456
    83.000     752    45.28660   18.20864    63.49524   0.00020    84   %  4.7988
    84.000     762    42.93290   20.56235    63.49526   0.00023    85   %  4.8617
    85.000     772    41.29699   22.19816    63.49515   0.00015    86   %  4.9371
    86.000     782    40.75873   22.73625    63.49499  -0.00000    87   %  5.0269
    87.000     792    40.86639   22.62859    63.49498   0.00001    88   %  5.1304
    88.000     802    40.66501   22.83023    63.49524   0.00028    89   %  5.2449
    89.000     812    39.77135   23.72409    63.49544   0.00050    90   %  5.3675
    90.000     822    38.96480   24.53057    63.49537   0.00044    91   %  5.4956
    91.000     832    39.42131   24.07382    63.49513   0.00022    92   %  5.6260
    92.000     842    41.50410   21.99084    63.49494   0.00004    93   %  5.7535
    93.000     852    44.46155   19.03332    63.49487  -0.00001    94   %  5.8710
    94.000     862    47.07472   16.42020    63.49492   0.00006    95   %  5.9715
    95.000     872    48.46024   15.03482    63.49506   0.00021    96   %  6.0501
    96.000     882    48.52334   14.97182    63.49515   0.00031    97   %  6.1046
    97.000     892    47.92091   15.57424    63.49515   0.00032    98   %  6.1344
    98.000     902    47.49595   15.99908    63.49503   0.00020    99   %  6.1389
    99.000     912    47.46747   16.02745    63.49492   0.00011   100   %  6.1168



 **********************
 *                    *
 * JOB ENDED NORMALLY *
 *                    *
 **********************



 TOTAL JOB TIME:             8.36 SECONDS

 == MOPAC DONE ==
