 *******************************************************************************
 ** Site#: 10005        For non-commercial use only     Version 15.327W 64BITS**
 *******************************************************************************
 ** Cite this work as:                                                        **
 **                                                                           **
 ** (a) MOPAC2012, James J. P. Stewart, Stewart Computational Chemistry,      **
 **  Version 15.327W web: HTTP://OpenMOPAC.net         Days remaining: 365    **
 **                                                                           **
 **                                 AND                                       **
 **                                                                           **
 ** (b) Maia, J.D.C., et al., J. Chem. Theory Comput. 2012, 8, 3072-3081.     **
 **                DOI: 10.1021/ct3004645.                                    **
 *******************************************************************************
 **                                                                           **
 **                                MOPAC2012                                  **
 **                                                                           **
 *******************************************************************************

                              PM7 CALCULATION RESULTS


 *******************************************************************************
 *  CALCULATION DONE:                                Mon Nov 23 10:15:52 2015  *
 *  GEO_DAT    - DATA SET GEOMETRY IS IN FILE "SADDLE_AZULENE TO INTERMEDIATE TS.ARC"
 *  PRECISE    - CRITERIA TO BE INCREASED BY 100 TIMES
 *  TS         - USE EF ROUTINE FOR TS SEARCH
 *  T=         - A TIME OF 172800.0 SECONDS REQUESTED
 *  DUMP=N     - RESTART FILE WRITTEN EVERY  7200.000 SECONDS
 *******************************************************************************
TS  HTML precise geo_dat="Saddle_Azulene to Intermediate TS.arc"
 Transition state for Azulene <=> Intermediate

   ATOM                 CHEMICAL                   X               Y               Z
  NUMBER                 SYMBOL               (ANGSTROMS)     (ANGSTROMS)     (ANGSTROMS)
 
     1       C(HETATM    1  C   HET A   1)    0.06739753  *  -0.00549364  *   0.50949381  *
     2       C(HETATM    2  C   HET A   1)    1.36168517  *  -0.02114619  *   0.13290038  *
     3       C(HETATM    3  C   HET A   1)    1.99675187  *   1.15934723  *  -0.38646742  *
     4       C(HETATM    4  C   HET A   1)    1.30519016  *   2.32420901  *  -0.49443044  *
     5       C(HETATM    5  C   HET A   1)   -0.07202864  *   2.43079177  *  -0.14010820  *
     6       C(HETATM    6  C   HET A   1)   -0.78173186  *   1.20040253  *   0.36282131  *
     7       C(HETATM    7  C   HET A   1)   -1.66169633  *   1.33273816  *  -0.78408203  *
     8       C(HETATM    8  C   HET A   1)   -2.31506680  *   2.20123284  *  -1.52041288  *
     9       C(HETATM    9  C   HET A   1)   -1.86883288  *   3.57776458  *  -1.22562563  *
    10       C(HETATM   10  C   HET A   1)   -0.75655169  *   3.67334133  *  -0.45895203  *
    11       H(HETATM   11  H   HET A   1)   -0.42597647  *  -0.86929774  *   0.94661701  *
    12       H(HETATM   12  H   HET A   1)    1.97040618  *  -0.92035613  *   0.23173908  *
    13       H(HETATM   13  H   HET A   1)    3.04435063  *   1.09393183  *  -0.66678258  *
    14       H(HETATM   14  H   HET A   1)    1.79798323  *   3.23041590  *  -0.85522686  *
    15       H(HETATM   15  H   HET A   1)   -1.39741370  *   1.34699139  *   1.29860763  *
    16       H(HETATM   16  H   HET A   1)   -3.12192946  *   2.01523362  *  -2.20977379  *
    17       H(HETATM   17  H   HET A   1)   -2.47203751  *   4.40665476  *  -1.56182302  *
    18       H(HETATM   18  H   HET A   1)   -0.30641772  *   4.61039555  *  -0.15504569  *
 

     ===================== shared-memory parallel CPU Section ======================
     **                                                                           **
     **  MOPAC calculations will run in shared-memory parallel CPUs               **
     **                                                                           **
     **  Number of Threads =  4                                                   **
     **                                                                           **
     **                                                                           **
     **  For information on this work, see:                                       **
     **                                                                           **
     **  Maia, J.D.C., et al., J. Chem. Theory Comput. 2012, 8, 3072-3081.        **
     **        DOI: 10.1021/ct3004645.                                            **
     **                                                                           **
     ===================== shared-memory parallel CPU Section ======================
      


 General Reference for PM7:
 "Optimization of Parameters for Semiempirical Methods VI: More Modifications to the 
 NDDO Approximations and Re-optimization of Parameters", J. J. P. Stewart, J. Mol. Mod., 1:32, 19 (2013)
 http://www.springerlink.com/openurl.asp?genre=article&id=doi:10.1007/s00894-012-1667-x

           Empirical Formula: C10 H8  =    18 atoms



      MOLECULAR POINT GROUP   :   C1  


      RHF CALCULATION, NO. OF DOUBLY OCCUPIED LEVELS =   24

      Transition state refinement using EF

          HESSIAN CALCULATED NUMERICALLY

 CYCLE:     1 TIME:   0.297 TIME LEFT:  2.00D  GRAD.:     0.274 HEAT:  144.4463
 CYCLE:     2 TIME:   0.016 TIME LEFT:  2.00D  GRAD.:     0.075 HEAT:  144.4453
 CYCLE:     3 TIME:   0.000 TIME LEFT:  2.00D  GRAD.:     0.009 HEAT:  144.4453

     GRADIENT =  0.00853  IS LESS THAN CUTOFF =  0.05000



 -------------------------------------------------------------------------------
TS  HTML precise geo_dat="Saddle_Azulene to Intermediate TS.arc"
 Transition state for Azulene <=> Intermediate



     GEOMETRY OPTIMISED USING EIGENVECTOR FOLLOWING (TS).     
     SCF FIELD WAS ACHIEVED                                   


                              PM7 CALCULATION
                                                       MOPAC2012 (Version: 15.327W)
                                                       Mon Nov 23 10:15:52 2015
                                                       No. of days left = 365




          FINAL HEAT OF FORMATION =        144.44526 KCAL/MOL =     604.35897 KJ/MOL


          TOTAL ENERGY            =      -1331.28534 EV
          ELECTRONIC ENERGY       =      -6843.08031 EV  POINT GROUP:     C1  
          CORE-CORE REPULSION     =       5511.79497 EV
          COSMO AREA              =        165.49 SQUARE ANGSTROMS
          COSMO VOLUME            =        166.67 CUBIC ANGSTROMS

          GRADIENT NORM           =          0.00853
          IONIZATION POTENTIAL    =          7.804517 EV
          HOMO LUMO ENERGIES (EV) =         -7.805 -1.098
          NO. OF FILLED LEVELS    =         24
          MOLECULAR WEIGHT        =        128.173

          MOLECULAR DIMENSIONS (Angstroms)

            Atom       Atom       Distance
            H    17    H    12     7.16397
            H    14    H    16     4.60946
            H    15    H    13     3.17144


          SCF CALCULATIONS        =         58
 
          WALL-CLOCK TIME         =          0.344 SECONDS
          COMPUTATION TIME        =          1.326 SECONDS




   ATOM                 CHEMICAL                   X               Y               Z
  NUMBER                 SYMBOL               (ANGSTROMS)     (ANGSTROMS)     (ANGSTROMS)
 
     1       C(HETATM    1  C   HET A   1)    0.06772888  *  -0.00423174  *   0.51405763  *
     2       C(HETATM    2  C   HET A   1)    1.36106514  *  -0.02069043  *   0.13393622  *
     3       C(HETATM    3  C   HET A   1)    1.99428666  *   1.15810247  *  -0.39141672  *
     4       C(HETATM    4  C   HET A   1)    1.30316517  *   2.32350099  *  -0.49763235  *
     5       C(HETATM    5  C   HET A   1)   -0.07280201  *   2.43057483  *  -0.13881270  *
     6       C(HETATM    6  C   HET A   1)   -0.78228838  *   1.20032719  *   0.36372021  *
     7       C(HETATM    7  C   HET A   1)   -1.65830173  *   1.33195693  *  -0.78700615  *
     8       C(HETATM    8  C   HET A   1)   -2.31020589  *   2.20123493  *  -1.52394275  *
     9       C(HETATM    9  C   HET A   1)   -1.86797344  *   3.57818100  *  -1.22403523  *
    10       C(HETATM   10  C   HET A   1)   -0.75820997  *   3.67393596  *  -0.45404661  *
    11       H(HETATM   11  H   HET A   1)   -0.42368154  *  -0.86620814  *   0.95679838  *
    12       H(HETATM   12  H   HET A   1)    1.97064250  *  -0.91905414  *   0.23514763  *
    13       H(HETATM   13  H   HET A   1)    3.04039249  *   1.09133197  *  -0.67707832  *
    14       H(HETATM   14  H   HET A   1)    1.79519926  *   3.22914671  *  -0.86087458  *
    15       H(HETATM   15  H   HET A   1)   -1.40165853  *   1.34743118  *   1.29684288  *
    16       H(HETATM   16  H   HET A   1)   -3.11324455  *   2.01550918  *  -2.21781946  *
    17       H(HETATM   17  H   HET A   1)   -2.47252231  *   4.40650782  *  -1.55906892  *
    18       H(HETATM   18  H   HET A   1)   -0.31081520  *   4.61032465  *  -0.14454726  *

                             CARTESIAN COORDINATES

   1    C        0.067728881    -0.004231737     0.514057626
   2    C        1.361065137    -0.020690432     0.133936216
   3    C        1.994286664     1.158102468    -0.391416719
   4    C        1.303165170     2.323500986    -0.497632353
   5    C       -0.072802010     2.430574829    -0.138812705
   6    C       -0.782288375     1.200327186     0.363720207
   7    C       -1.658301734     1.331956933    -0.787006146
   8    C       -2.310205887     2.201234935    -1.523942753
   9    C       -1.867973445     3.578181001    -1.224035234
  10    C       -0.758209966     3.673935961    -0.454046608
  11    H       -0.423681544    -0.866208140     0.956798381
  12    H        1.970642504    -0.919054141     0.235147628
  13    H        3.040392487     1.091331967    -0.677078318
  14    H        1.795199257     3.229146709    -0.860874585
  15    H       -1.401658533     1.347431181     1.296842882
  16    H       -3.113244550     2.015509184    -2.217819455
  17    H       -2.472522315     4.406507823    -1.559068916
  18    H       -0.310815203     4.610324652    -0.144547261


           Empirical Formula: C10 H8  =    18 atoms



      MOLECULAR POINT GROUP   :   C1  


                  EIGENVALUES  
 -31.51119 -29.16223 -26.69609 -25.66152 -24.59895 -21.55781 -21.39058 -19.44541
 -17.83838 -17.35813 -16.76541 -15.57939 -15.10688 -14.63042 -14.14942 -13.94761
 -13.18204 -12.25444 -12.15228 -11.96569 -11.85466 -10.16737  -9.31912  -7.80452
  -1.09800  -0.10033   0.66557   1.53960   1.98243   3.27826   3.73181   3.87684
   4.28827   4.50712   4.59682   5.01002   5.10489   5.32365   5.49397   5.77085
   5.83739   5.90848   6.01682   6.08315   6.12927   6.17936   6.22104   6.29224


              NET ATOMIC CHARGES AND DIPOLE CONTRIBUTIONS

  ATOM NO.                 TYPE                        CHARGE      No. of ELECS.   s-Pop       p-Pop       
    1          C(HETATM    1  C   HET A   1)          -0.178185        4.1782     1.08264     3.09554
    2          C(HETATM    2  C   HET A   1)          -0.105494        4.1055     1.08436     3.02114
    3          C(HETATM    3  C   HET A   1)          -0.209454        4.2095     1.07805     3.13141
    4          C(HETATM    4  C   HET A   1)          -0.092804        4.0928     1.08457     3.00823
    5          C(HETATM    5  C   HET A   1)          -0.133280        4.1333     1.07046     3.06282
    6          C(HETATM    6  C   HET A   1)          -0.054644        4.0546     1.04877     3.00587
    7          C(HETATM    7  C   HET A   1)           0.030167        3.9698     1.23579     2.73404
    8          C(HETATM    8  C   HET A   1)          -0.243731        4.2437     1.07831     3.16542
    9          C(HETATM    9  C   HET A   1)          -0.144697        4.1447     1.10030     3.04440
   10          C(HETATM   10  C   HET A   1)          -0.179737        4.1797     1.08489     3.09484
   11          H(HETATM   11  H   HET A   1)           0.157575        0.8424     0.84243
   12          H(HETATM   12  H   HET A   1)           0.151776        0.8482     0.84822
   13          H(HETATM   13  H   HET A   1)           0.154181        0.8458     0.84582
   14          H(HETATM   14  H   HET A   1)           0.153745        0.8463     0.84626
   15          H(HETATM   15  H   HET A   1)           0.188045        0.8120     0.81195
   16          H(HETATM   16  H   HET A   1)           0.184917        0.8151     0.81508
   17          H(HETATM   17  H   HET A   1)           0.155415        0.8446     0.84458
   18          H(HETATM   18  H   HET A   1)           0.166203        0.8338     0.83380
 DIPOLE           X         Y         Z       TOTAL
 POINT-CHG.    -0.098    -0.256     0.695     0.747
 HYBRID         0.005     0.504    -0.263     0.568
 SUM           -0.092     0.248     0.432     0.506


          ATOMIC ORBITAL ELECTRON POPULATIONS

                   Atom                  s        px        py        pz   
   C(HETATM    1  C   HET A   1)   1.08264   1.01254   1.01147   1.07154
   C(HETATM    2  C   HET A   1)   1.08436   1.01070   1.04535   0.96509
   C(HETATM    3  C   HET A   1)   1.07805   1.07949   0.99443   1.05749
   C(HETATM    4  C   HET A   1)   1.08457   0.98779   1.05306   0.96738
   C(HETATM    5  C   HET A   1)   1.07046   0.95575   0.89392   1.21315
   C(HETATM    6  C   HET A   1)   1.04877   1.02040   0.97806   1.00741
   C(HETATM    7  C   HET A   1)   1.23579   0.88445   0.96006   0.88953
   C(HETATM    8  C   HET A   1)   1.07831   1.09044   0.97164   1.10334
   C(HETATM    9  C   HET A   1)   1.10030   1.01266   1.00493   1.02681
   C(HETATM   10  C   HET A   1)   1.08489   1.02384   1.05364   1.01736
   H(HETATM   11  H   HET A   1)   0.84243
   H(HETATM   12  H   HET A   1)   0.84822
   H(HETATM   13  H   HET A   1)   0.84582
   H(HETATM   14  H   HET A   1)   0.84626
   H(HETATM   15  H   HET A   1)   0.81195
   H(HETATM   16  H   HET A   1)   0.81508
   H(HETATM   17  H   HET A   1)   0.84458
   H(HETATM   18  H   HET A   1)   0.83380
 *******************************************************************************
 ** Site#: 10005        For non-commercial use only     Version 15.327W 64BITS**
 *******************************************************************************
 ** Cite this work as:                                                        **
 **                                                                           **
 ** (a) MOPAC2012, James J. P. Stewart, Stewart Computational Chemistry,      **
 **  Version 15.327W web: HTTP://OpenMOPAC.net         Days remaining: 365    **
 **                                                                           **
 **                                 AND                                       **
 **                                                                           **
 ** (b) Maia, J.D.C., et al., J. Chem. Theory Comput. 2012, 8, 3072-3081.     **
 **                DOI: 10.1021/ct3004645.                                    **
 *******************************************************************************
 **                                                                           **
 **                                MOPAC2012                                  **
 **                                                                           **
 *******************************************************************************

                              PM7 CALCULATION RESULTS


 *******************************************************************************
 *  CALCULATION DONE:                                Mon Nov 23 10:15:52 2015  *
 *  IRC=N      - INTRINSIC REACTION COORDINATE  1 DEFINED
 *  OLDGEO     - PREVIOUS GEOMETRY TO BE USED
 *  T=         - A TIME OF 172800.0 SECONDS REQUESTED
 *  DUMP=N     - RESTART FILE WRITTEN EVERY  7200.000 SECONDS
 *  X-PRIOR    - GEOMETRY CHANGES TAKE PRIORITY IN DRC
 *******************************************************************************
oldgeo IRC=1* X-priority=0.2 HTML\
 IRC for Azulene <=> Intermediate reaction

   ATOM                 CHEMICAL                   X               Y               Z
  NUMBER                 SYMBOL               (ANGSTROMS)     (ANGSTROMS)     (ANGSTROMS)
 
     1       C(HETATM    1  C   HET A   1)    0.06772888  *  -0.00423174  *   0.51405763  *
     2       C(HETATM    2  C   HET A   1)    1.36106514  *  -0.02069043  *   0.13393622  *
     3       C(HETATM    3  C   HET A   1)    1.99428666  *   1.15810247  *  -0.39141672  *
     4       C(HETATM    4  C   HET A   1)    1.30316517  *   2.32350099  *  -0.49763235  *
     5       C(HETATM    5  C   HET A   1)   -0.07280201  *   2.43057483  *  -0.13881270  *
     6       C(HETATM    6  C   HET A   1)   -0.78228838  *   1.20032719  *   0.36372021  *
     7       C(HETATM    7  C   HET A   1)   -1.65830173  *   1.33195693  *  -0.78700615  *
     8       C(HETATM    8  C   HET A   1)   -2.31020589  *   2.20123493  *  -1.52394275  *
     9       C(HETATM    9  C   HET A   1)   -1.86797344  *   3.57818100  *  -1.22403523  *
    10       C(HETATM   10  C   HET A   1)   -0.75820997  *   3.67393596  *  -0.45404661  *
    11       H(HETATM   11 1HT  HET A   1)   -0.42368154  *  -0.86620814  *   0.95679838  *
    12       H(HETATM   12 2HT  HET A   1)    1.97064250  *  -0.91905414  *   0.23514763  *
    13       H(HETATM   13 3HT  HET A   1)    3.04039249  *   1.09133197  *  -0.67707832  *
    14       H(HETATM   14 4HT  HET A   1)    1.79519926  *   3.22914671  *  -0.86087458  *
    15       H(HETATM   15 5HT  HET A   1)   -1.40165853  *   1.34743118  *   1.29684288  *
    16       H(HETATM   16 6HT  HET A   1)   -3.11324455  *   2.01550918  *  -2.21781946  *
    17       H(HETATM   17 7HT  HET A   1)   -2.47252231  *   4.40650782  *  -1.55906892  *
    18       H(HETATM   18 8HT  HET A   1)   -0.31081520  *   4.61032465  *  -0.14454726  *
 

 General Reference for PM7:
 "Optimization of Parameters for Semiempirical Methods VI: More Modifications to the 
 NDDO Approximations and Re-optimization of Parameters", J. J. P. Stewart, J. Mol. Mod., 1:32, 19 (2013)
 http://www.springerlink.com/openurl.asp?genre=article&id=doi:10.1007/s00894-012-1667-x

           Empirical Formula: C10 H8  =    18 atoms



      MOLECULAR POINT GROUP   :   C1  


      RHF CALCULATION, NO. OF DOUBLY OCCUPIED LEVELS =   24



          HEAT OF FORMATION =     144.445250 KCALS/MOLE


          GRADIENT NORM =   0.15945


          TIME FOR SCF CALCULATION =    0.02

          TIME FOR DERIVATIVES     =    0.00

          MOLECULAR WEIGHT =  128.17


          ESTIMATED TIME TO COMPLETE CALCULATION =        1.69 SECONDS

    FOR POINT-GROUP C1   THERE ARE   1 UNIQUE SYMMETRY FUNCTIONS.

 STEP:   1 TIME =     0.02 SECS, INTEGRAL =      0.02 TIME LEFT: 172799.97
 STEP:   2 TIME =     0.00 SECS, INTEGRAL =      0.02 TIME LEFT: 172799.97
 STEP:   3 TIME =     0.02 SECS, INTEGRAL =      0.03 TIME LEFT: 172799.95
 STEP:   4 TIME =     0.02 SECS, INTEGRAL =      0.05 TIME LEFT: 172799.94
 STEP:   5 TIME =     0.00 SECS, INTEGRAL =      0.05 TIME LEFT: 172799.94
 STEP:   6 TIME =     0.02 SECS, INTEGRAL =      0.06 TIME LEFT: 172799.92
 STEP:   7 TIME =     0.00 SECS, INTEGRAL =      0.06 TIME LEFT: 172799.92
 STEP:   8 TIME =     0.02 SECS, INTEGRAL =      0.08 TIME LEFT: 172799.91
 STEP:   9 TIME =     0.00 SECS, INTEGRAL =      0.08 TIME LEFT: 172799.91
 STEP:  10 TIME =     0.02 SECS, INTEGRAL =      0.09 TIME LEFT: 172799.89
 STEP:  11 TIME =     0.00 SECS, INTEGRAL =      0.09 TIME LEFT: 172799.89
 STEP:  12 TIME =     0.02 SECS, INTEGRAL =      0.11 TIME LEFT: 172799.88
 STEP:  13 TIME =     0.02 SECS, INTEGRAL =      0.12 TIME LEFT: 172799.86
 STEP:  14 TIME =     0.00 SECS, INTEGRAL =      0.12 TIME LEFT: 172799.86
 STEP:  15 TIME =     0.02 SECS, INTEGRAL =      0.14 TIME LEFT: 172799.84
 STEP:  16 TIME =     0.00 SECS, INTEGRAL =      0.14 TIME LEFT: 172799.84
 STEP:  17 TIME =     0.02 SECS, INTEGRAL =      0.16 TIME LEFT: 172799.83
 STEP:  18 TIME =     0.00 SECS, INTEGRAL =      0.16 TIME LEFT: 172799.83
 STEP:  19 TIME =     0.02 SECS, INTEGRAL =      0.17 TIME LEFT: 172799.81
 STEP:  20 TIME =     0.02 SECS, INTEGRAL =      0.19 TIME LEFT: 172799.80
 STEP:  21 TIME =     0.00 SECS, INTEGRAL =      0.19 TIME LEFT: 172799.80
 STEP:  22 TIME =     0.02 SECS, INTEGRAL =      0.20 TIME LEFT: 172799.78
 STEP:  23 TIME =     0.00 SECS, INTEGRAL =      0.20 TIME LEFT: 172799.78
 STEP:  24 TIME =     0.02 SECS, INTEGRAL =      0.22 TIME LEFT: 172799.77
 STEP:  25 TIME =     0.00 SECS, INTEGRAL =      0.22 TIME LEFT: 172799.77
 STEP:  26 TIME =     0.02 SECS, INTEGRAL =      0.23 TIME LEFT: 172799.75
 STEP:  27 TIME =     0.02 SECS, INTEGRAL =      0.25 TIME LEFT: 172799.73
 STEP:  28 TIME =     0.00 SECS, INTEGRAL =      0.25 TIME LEFT: 172799.73
 STEP:  29 TIME =     0.02 SECS, INTEGRAL =      0.27 TIME LEFT: 172799.72
 STEP:  30 TIME =     0.02 SECS, INTEGRAL =      0.28 TIME LEFT: 172799.70
 STEP:  31 TIME =     0.00 SECS, INTEGRAL =      0.28 TIME LEFT: 172799.70
 STEP:  32 TIME =     0.02 SECS, INTEGRAL =      0.30 TIME LEFT: 172799.69
 STEP:  33 TIME =     0.00 SECS, INTEGRAL =      0.30 TIME LEFT: 172799.69
 STEP:  34 TIME =     0.02 SECS, INTEGRAL =      0.31 TIME LEFT: 172799.67
 STEP:  35 TIME =     0.00 SECS, INTEGRAL =      0.31 TIME LEFT: 172799.67
 STEP:  36 TIME =     0.00 SECS, INTEGRAL =      0.31 TIME LEFT: 172799.67
 STEP:  37 TIME =     0.02 SECS, INTEGRAL =      0.33 TIME LEFT: 172799.66
 STEP:  38 TIME =     0.00 SECS, INTEGRAL =      0.33 TIME LEFT: 172799.66
 STEP:  39 TIME =     0.02 SECS, INTEGRAL =      0.34 TIME LEFT: 172799.64
 STEP:  40 TIME =     0.00 SECS, INTEGRAL =      0.34 TIME LEFT: 172799.64
 STEP:  41 TIME =     0.02 SECS, INTEGRAL =      0.36 TIME LEFT: 172799.62
 STEP:  42 TIME =     0.00 SECS, INTEGRAL =      0.36 TIME LEFT: 172799.62
 STEP:  43 TIME =     0.02 SECS, INTEGRAL =      0.38 TIME LEFT: 172799.61
 STEP:  44 TIME =     0.00 SECS, INTEGRAL =      0.38 TIME LEFT: 172799.61
 STEP:  45 TIME =     0.02 SECS, INTEGRAL =      0.39 TIME LEFT: 172799.59
 STEP:  46 TIME =     0.00 SECS, INTEGRAL =      0.39 TIME LEFT: 172799.59
 STEP:  47 TIME =     0.02 SECS, INTEGRAL =      0.41 TIME LEFT: 172799.58
 STEP:  48 TIME =     0.00 SECS, INTEGRAL =      0.41 TIME LEFT: 172799.58
 STEP:  49 TIME =     0.02 SECS, INTEGRAL =      0.42 TIME LEFT: 172799.56
 STEP:  50 TIME =     0.00 SECS, INTEGRAL =      0.42 TIME LEFT: 172799.56
 STEP:  51 TIME =     0.02 SECS, INTEGRAL =      0.44 TIME LEFT: 172799.55
 STEP:  52 TIME =     0.02 SECS, INTEGRAL =      0.45 TIME LEFT: 172799.53
 STEP:  53 TIME =     0.00 SECS, INTEGRAL =      0.45 TIME LEFT: 172799.53
 STEP:  54 TIME =     0.02 SECS, INTEGRAL =      0.47 TIME LEFT: 172799.52
           INITIAL VELOCITY IN DRC (Angstroms/Femtosecond)
         0.00536        -0.03250         0.02745
         0.00293        -0.00598        -0.00065
        -0.01592         0.00995        -0.02294
        -0.03447        -0.00552        -0.04195
        -0.04732        -0.01129        -0.03602
        -0.03030        -0.05534         0.02782
         0.12048         0.05347         0.03244
         0.01458         0.00607         0.01755
         0.01769         0.03407        -0.01884
        -0.02509         0.01529         0.01204
         0.02603        -0.04446         0.05668
         0.02198         0.00544         0.00002
        -0.01552         0.02433        -0.01813
        -0.05044         0.00495        -0.04890
        -0.04183        -0.06642        -0.00081
        -0.04350        -0.04500         0.05305
         0.04491         0.03652        -0.05185
        -0.03632        -0.01330         0.04700

 GEOMETRY PRIORITY, STEP = 0.2000 ANGSTROMS



     POINT   POTENTIAL  +  ENERGY LOST   =   TOTAL      ERROR    REF%   MOVEMENT
       1     144.44526      0.00000        144.44526   0.00000     1   %  0.0000
       7     144.40565      0.00000        144.40565  -0.03961     2   %  0.1732
      15     144.31448      0.32127        144.63575   0.26368     3   %  0.3114
      24     144.26907      0.83438        145.10345   0.73137     4   %  0.3494
      33     144.21647      1.33108        145.54756   1.17548     5   %  0.3918
      42     144.13068      1.88693        146.01760   1.64553     6   %  0.4451
      51     144.02432      2.49008        146.51440   2.14232     7   %  0.5103
      60     143.84987      3.12859        146.97847   2.60639     8   %  0.5849
      68     143.64073      3.75755        147.39829   3.02621     9   %  0.6645
      77     143.30423      4.54499        147.84922   3.47714    10   %  0.7721
      85     142.87194      5.33236        148.20430   3.83223    11   %  0.8810
      93     142.26125      6.25588        148.51712   4.14504    12   %  1.0083
     100     141.43720      7.33139        148.76859   4.39651    13   %  1.1517
     108     140.40398      8.54678        148.95075   4.57868    14   %  1.3069
     115     139.18019      9.89279        149.07298   4.70090    15   %  1.4762
     122     137.92485     11.24152        149.16638   4.79430    16   %  1.6517
     130     136.85097     12.42729        149.27826   4.90618    17   %  1.8207
     137     136.09902     13.37255        149.47158   5.09950    18   %  1.9710
     145     135.63380     14.14198        149.77578   5.40370    19   %  2.0953
     154     135.36466     14.79755        150.16221   5.79013    20   %  2.1887
     163     135.18632     15.47068        150.65700   6.28492    21   %  2.2655
     173     135.07747     16.10156        151.17903   6.80695    22   %  2.3210
     182     135.00227     16.72591        151.72818   7.35611    23   %  2.3616
     192     134.94689     17.35321        152.30010   7.92802    24   %  2.3926
     202     134.90424     17.98257        152.88681   8.51473    25   %  2.4174
     213     134.87204     18.61840        153.49044   9.11836    26   %  2.4364
     223     134.84608     19.25773        154.10381   9.73173    27   %  2.4522
     234     134.82443     19.88720        154.71163  10.33955    28   %  2.4667
     245     134.79955     20.55959        155.35914  10.98706    29   %  2.4842
     255     134.78512     21.21782        156.00294  11.63086    30   %  2.4938
     266     134.76673     21.87778        156.64451  12.27243    31   %  2.5087
     277     134.75305     22.54363        157.29669  12.92461    32   %  2.5181
     288     134.73725     23.21131        157.94856  13.57648    33   %  2.5308
     299     134.72409     23.88021        158.60430  14.23222    34   %  2.5409
     310     134.70852     24.54892        159.25744  14.88536    35   %  2.5540
     321     134.69220     25.19774        159.88994  15.51786    36   %  2.5666
     332     134.68392     25.87599        160.55991  16.18783    37   %  2.5751
     343     134.65692     26.55881        161.21573  16.84365    38   %  2.5931
     354     134.64748     27.25066        161.89814  17.52606    39   %  2.6042
     365     134.60861     27.96036        162.56897  18.19689    40   %  2.6260
     375     134.57860     28.62166        163.20026  18.82818    41   %  2.6453
     386     134.55006     29.35312        163.90318  19.53111    42   %  2.6667
     396     134.49339     30.01121        164.50460  20.13252    43   %  2.6948
     406     134.41296     30.66949        165.08245  20.71037    44   %  2.7296
     416     134.29226     31.34889        165.64115  21.26908    45   %  2.7742
     425     134.11581     32.01108        166.12689  21.75481    46   %  2.8308
     433     133.85025     32.68768        166.53793  22.16586    47   %  2.8950
     441     133.43342     33.42625        166.85967  22.48759    48   %  2.9786
     449     132.75933     34.29895        167.05829  22.68621    49   %  3.0863
     456     131.65956     35.45752        167.11708  22.74500    50   %  3.2216
     464     130.09548     37.02333        167.11881  22.74673    51   %  3.3750
     470     128.17828     38.94180        167.12008  22.74800    52   %  3.5317
     477     125.95642     41.16503        167.12145  22.74937    53   %  3.6901
     484     123.72618     43.39135        167.11753  22.74546    54   %  3.8352
     492     120.89104     46.22117        167.11221  22.74013    55   %  4.0086
     499     118.37827     48.72992        167.10819  22.73611    56   %  4.1576
     506     115.37634     51.72985        167.10619  22.73411    57   %  4.3359
     513     112.95587     54.15147        167.10734  22.73526    58   %  4.4839
     521     110.23006     56.88033        167.11039  22.73831    59   %  4.6589
     527     107.73893     59.37507        167.11400  22.74192    60   %  4.8302
     534     105.49091     61.62409        167.11500  22.74292    61   %  4.9973
     540     103.61257     63.50378        167.11634  22.74427    62   %  5.1487
     547     101.46826     65.64932        167.11758  22.74550    63   %  5.3379
     554      99.71669     67.40195        167.11864  22.74656    64   %  5.5072
     560      98.01712     69.10127        167.11838  22.74630    65   %  5.6861
     565      96.49770     70.62117        167.11886  22.74679    66   %  5.8596
     571      95.09521     72.02458        167.11979  22.74771    67   %  6.0324
     578      93.81340     73.30789        167.12129  22.74921    68   %  6.2023
     585      92.65181     74.46950        167.12131  22.74923    69   %  6.3672
     592      91.59390     75.52545        167.11934  22.74727    70   %  6.5274
     600      90.64390     76.47323        167.11713  22.74505    71   %  6.6801
     608      89.77572     77.33960        167.11533  22.74325    72   %  6.8276
     615      88.98614     78.12746        167.11360  22.74152    73   %  6.9683
     622      88.26770     78.84433        167.11202  22.73994    74   %  7.1017
     628      87.61935     79.49600        167.11535  22.74327    75   %  7.2261
     635      87.06679     80.11215        167.17894  22.80686    76   %  7.3348
     643      86.61302     80.72909        167.34211  22.97003    77   %  7.4253
     651      86.20215     81.34179        167.54395  23.17187    78   %  7.5081
     659      85.82547     81.95120        167.77667  23.40459    79   %  7.5846
     668      85.47821     82.56454        168.04276  23.67068    80   %  7.6559
     676      85.15391     83.18152        168.33543  23.96335    81   %  7.7242
     685      84.84949     83.80495        168.65444  24.28236    82   %  7.7877
     694      84.56258     84.43744        169.00003  24.62795    83   %  7.8513
     703      84.29700     85.06501        169.36202  24.98994    84   %  7.9095
     713      84.05054     85.68875        169.73929  25.36721    85   %  7.9687
     722      83.82146     86.30637        170.12783  25.75575    86   %  8.0255
     731      83.60717     86.92141        170.52857  26.15649    87   %  8.0803
     740      83.40522     87.54122        170.94644  26.57436    88   %  8.1391
     750      83.21428     88.16398        171.37826  27.00618    89   %  8.1949
     759      83.03356     88.78951        171.82307  27.45100    90   %  8.2501
     769      82.86358     89.41999        172.28358  27.91150    91   %  8.3084
     778      82.70416     90.04481        172.74897  28.37689    92   %  8.3682
     788      82.55487     90.66575        173.22061  28.84854    93   %  8.4237
     797      82.41499     91.27851        173.69350  29.32142    94   %  8.4779
     807      82.28170     91.88711        174.16881  29.79673    95   %  8.5361
     816      82.15537     92.49004        174.64541  30.27333    96   %  8.5923
     825      82.03830     93.09239        175.13069  30.75861    97   %  8.6443
     835      81.92362     93.69546        175.61909  31.24701    98   %  8.7008
     844      81.81544     94.30011        176.11555  31.74347    99   %  8.7564
     854      81.71452     94.90428        176.61880  32.24672   100   %  8.8071
     863      81.61591     95.50457        177.12047  32.74839   101   %  8.8606
     873      81.52116     96.10511        177.62626  33.25419   102   %  8.9159
     882      81.43193     96.71278        178.14471  33.77264   103   %  8.9672
     892      81.34724     97.31796        178.66520  34.29313   104   %  9.0161
     901      81.26538     97.92181        179.18719  34.81511   105   %  9.0672
     911      81.18609     98.51302        179.69911  35.32703   106   %  9.1194
     920      81.10947     99.13733        180.24680  35.87472   107   %  9.1708
     930      81.03675     99.74398        180.78073  36.40865   108   %  9.2194
     940      80.96794    100.35143        181.31937  36.94729   109   %  9.2670
     950      80.90189    100.95981        181.86170  37.48962   110   %  9.3136
     959      80.83859    101.57060        182.40919  38.03711   111   %  9.3601
     969      80.77907    102.13813        182.91720  38.54512   112   %  9.4073
     979      80.71851    102.76304        183.48155  39.10948   113   %  9.4542
     989      80.66077    103.41395        184.07472  39.70264   114   %  9.4998
     999      80.60596    104.03129        184.63726  40.26518   115   %  9.5450
    1009      80.55307    104.62782        185.18089  40.80882   116   %  9.5901
    1019      80.50269    105.26986        185.77255  41.40047   117   %  9.6333
    1029      80.45336    105.87103        186.32438  41.95231   118   %  9.6769
    1039      80.40635    106.49403        186.90038  42.52830   119   %  9.7193
    1049      80.36192    107.11418        187.47610  43.10402   120   %  9.7611
    1059      80.31841    107.73271        188.05113  43.67905   121   %  9.8018
    1069      80.27743    108.35276        188.63019  44.25811   122   %  9.8422
    1079      80.23722    108.97622        189.21344  44.84137   123   %  9.8816
    1090      80.20045    109.65711        189.85756  45.48548   124   %  9.9205
    1100      80.16059    110.29162        190.45221  46.08014   125   %  9.9622
    1110      80.13019    110.88730        191.01748  46.64540   126   %  9.9956
    1120      80.09714    111.50200        191.59914  47.22706   127   % 10.0323
    1131      80.05715    112.19393        192.25109  47.87901   128   % 10.0753
    1141      80.02655    112.82517        192.85172  48.47964   129   % 10.1100
    1152      79.99613    113.45910        193.45523  49.08315   130   % 10.1455
    1162      79.96865    114.07447        194.04312  49.67104   131   % 10.1792
    1172      79.94219    114.69048        194.63266  50.26058   132   % 10.2127
    1183      79.90702    115.36220        195.26922  50.89714   133   % 10.2531
    1193      79.88250    115.97460        195.85710  51.48502   134   % 10.2856
    1204      79.85694    116.67226        196.52920  52.15712   135   % 10.3195
    1214      79.82995    117.31695        197.14690  52.77482   136   % 10.3543
    1225      79.80706    117.92964        197.73670  53.36462   137   % 10.3850
    1236      79.78973    118.60769        198.39742  54.02535   138   % 10.4137
    1246      79.76817    119.21767        198.98584  54.61376   139   % 10.4432
    1257      79.74332    119.91157        199.65489  55.28281   140   % 10.4777
    1268      79.72315    120.56196        200.28512  55.91304   141   % 10.5073
    1278      79.70667    121.16632        200.87299  56.50091   142   % 10.5338
    1289      79.68149    121.83792        201.51941  57.14733   143   % 10.5682
    1300      79.66546    122.52668        202.19214  57.82006   144   % 10.5967
    1311      79.64526    123.17461        202.81987  58.44779   145   % 10.6267
    1321      79.62856    123.78982        203.41838  59.04630   146   % 10.6524
    1332      79.62114    124.46922        204.09036  59.71828   147   % 10.6762
    1343      79.59613    125.14583        204.74195  60.36988   148   % 10.7082
    1354      79.58922    125.81894        205.40816  61.03608   149   % 10.7307
    1365      79.56585    126.49373        206.05958  61.68750   150   % 10.7615
    1376      79.55966    127.16574        206.72540  62.35332   151   % 10.7831
    1387      79.53796    127.83376        207.37172  62.99964   152   % 10.8129
    1398      79.53539    128.51659        208.05199  63.67991   153   % 10.8336
    1409      79.51222    129.19494        208.70715  64.33508   154   % 10.8627
    1420      79.51013    129.87369        209.38382  65.01174   155   % 10.8824
    1431      79.48933    130.54634        210.03566  65.66358   156   % 10.9106
    1442      79.48621    131.21750        210.70370  66.33163   157   % 10.9291
    1453      79.46811    131.88442        211.35253  66.98046   158   % 10.9563
    1464      79.46522    132.55678        212.02200  67.64992   159   % 10.9739
    1475      79.44737    133.22462        212.67199  68.29991   160   % 11.0001
    1486      79.44709    133.90208        213.34917  68.97709   161   % 11.0170
    1498      79.43609    134.63550        214.07160  69.69952   162   % 11.0400
    1509      79.41985    135.30373        214.72359  70.35151   163   % 11.0650
    1520      79.42212    135.98130        215.40342  71.03134   164   % 11.0804
    1531      79.40220    136.66892        216.07112  71.69904   165   % 11.1049
    1543      79.39432    137.41025        216.80457  72.43249   166   % 11.1263
    1554      79.39696    138.08919        217.48614  73.11407   167   % 11.1409
    1565      79.37937    138.76568        218.14505  73.77297   168   % 11.1639
    1576      79.38589    139.45538        218.84127  74.46919   169   % 11.1779
    1588      79.37993    140.21468        219.59461  75.22253   170   % 11.1977
    1599      79.35819    140.91073        220.26893  75.89685   171   % 11.2200
    1610      79.36837    141.61923        220.98759  76.61552   172   % 11.2335
    1622      79.36367    142.39222        221.75589  77.38381   173   % 11.2523
    1633      79.33964    143.10775        222.44739  78.07531   174   % 11.2737
    1645      79.33372    143.89901        223.23273  78.86065   175   % 11.2924
    1656      79.35021    144.63733        223.98754  79.61546   176   % 11.3047
    1667      79.32336    145.35662        224.67998  80.30790   177   % 11.3253
    1679      79.31815    146.14651        225.46467  81.09259   178   % 11.3427
    1690      79.33407    146.87679        226.21086  81.83878   179   % 11.3539
    1702      79.33270    147.67870        227.01140  82.63932   180   % 11.3704
    1713      79.30440    148.42897        227.73337  83.36129   181   % 11.3899
    1725      79.29993    149.25230        228.55222  84.18014   182   % 11.4064
    1737      79.29567    150.07630        229.37197  84.99989   183   % 11.4224
    1748      79.31910    150.85646        230.17556  85.80348   184   % 11.4325
    1760      79.31915    151.72193        231.04108  86.66900   185   % 11.4480
    1771      79.28554    152.56725        231.85280  87.48072   186   % 11.4665
    1783      79.28150    153.51884        232.80034  88.42826   187   % 11.4826
    1795      79.27904    154.50775        233.78679  89.41471   188   % 11.4981


 IRC CALCULATION COMPLETE 
           INITIAL VELOCITY IN DRC (Angstroms/Femtosecond)
        -0.00536         0.03250        -0.02745
        -0.00293         0.00598         0.00065
         0.01592        -0.00995         0.02294
         0.03447         0.00552         0.04195
         0.04732         0.01129         0.03602
         0.03030         0.05534        -0.02782
        -0.12048        -0.05347        -0.03244
        -0.01458        -0.00607        -0.01755
        -0.01769        -0.03407         0.01884
         0.02509        -0.01529        -0.01204
        -0.02603         0.04446        -0.05668
        -0.02198        -0.00544        -0.00002
         0.01552        -0.02433         0.01813
         0.05044        -0.00495         0.04890
         0.04183         0.06642         0.00081
         0.04350         0.04500        -0.05305
        -0.04491        -0.03652         0.05185
         0.03632         0.01330        -0.04700

 GEOMETRY PRIORITY, STEP = 0.2000 ANGSTROMS



     POINT   POTENTIAL  +  ENERGY LOST   =   TOTAL      ERROR    REF%   MOVEMENT
       1     144.44525      0.00000        144.44525   0.00000     1   %  0.0000
       7     144.40959      0.00000        144.40959  -0.03566     2   %  0.1735
      15     144.30751      0.14177        144.44928   0.10207     3   %  0.3596
      24     144.27897      0.66517        144.94414   0.59693     4   %  0.3976
      34     144.24379      1.21604        145.45983   1.11262     5   %  0.4400
      44     144.20058      1.78119        145.98176   1.63455     6   %  0.4855
      54     144.15063      2.38431        146.53494   2.18773     7   %  0.5364
      65     144.09321      3.06780        147.16100   2.81379     8   %  0.5976
      75     144.02533      3.69716        147.72249   3.37528     9   %  0.6573
      86     143.93440      4.39992        148.33433   3.98712    10   %  0.7274
      96     143.84080      5.09228        148.93308   4.58587    11   %  0.8020
     106     143.73479      5.74723        149.48202   5.13481    12   %  0.8772
     116     143.61655      6.39621        150.01276   5.66555    13   %  0.9558
     126     143.48600      7.03595        150.52195   6.17474    14   %  1.0373
     135     143.34353      7.66781        151.01134   6.66413    15   %  1.1215
     145     143.18416      8.28858        151.47274   7.12553    16   %  1.2082
     153     143.00991      8.90633        151.91624   7.56903    17   %  1.2977
     162     142.81569      9.52207        152.33776   7.99055    18   %  1.3892
     170     142.59936     10.13743        152.73679   8.38958    19   %  1.4836
     179     142.35841     10.75112        153.10953   8.76232    20   %  1.5810
     187     142.08753     11.37495        153.46248   9.11527    21   %  1.6807
     194     141.77950     12.01182        153.79132   9.44411    22   %  1.7837
     202     141.43146     12.66172        154.09318   9.74597    23   %  1.8898
     209     141.04160     13.32929        154.37089  10.02368    24   %  1.9979
     217     140.60759     14.01051        154.61810  10.27089    25   %  2.1074
     224     140.14807     14.70122        154.84929  10.50208    26   %  2.2179
     231     139.67987     15.38422        155.06409  10.71688    27   %  2.3266
     238     139.22834     16.05009        155.27842  10.93121    28   %  2.4324
     245     138.80834     16.68704        155.49538  11.14817    29   %  2.5330
     252     138.42519     17.29703        155.72222  11.37501    30   %  2.6284
     259     138.07585     17.88601        155.96186  11.61465    31   %  2.7185
     266     137.75333     18.45721        156.21054  11.86333    32   %  2.8045
     273     137.45195     19.01413        156.46608  12.11887    33   %  2.8896
     281     137.16897     19.56270        156.73167  12.38446    34   %  2.9730
     288     136.90115     20.10432        157.00547  12.65826    35   %  3.0606
     295     136.64386     20.64006        157.28392  12.93671    36   %  3.1523
     303     136.39857     21.17099        157.56956  13.22235    37   %  3.2456
     310     136.16274     21.69788        157.86062  13.51341    38   %  3.3403
     318     135.93510     22.22125        158.15635  13.80914    39   %  3.4351
     325     135.71623     22.74506        158.46129  14.11407    40   %  3.5287
     333     135.50622     23.26486        158.77108  14.42387    41   %  3.6210
     340     135.30399     23.78332        159.08730  14.74009    42   %  3.7120
     348     135.10808     24.29964        159.40772  15.06051    43   %  3.8020
     356     134.91799     24.81194        159.72993  15.38272    44   %  3.8910
     363     134.73452     25.32440        160.05892  15.71171    45   %  3.9787
     371     134.55940     25.83597        160.39537  16.04816    46   %  4.0645
     379     134.38947     26.34266        160.73214  16.38493    47   %  4.1499
     386     134.22631     26.84794        161.07425  16.72704    48   %  4.2337
     394     134.06756     27.35150        161.41906  17.07185    49   %  4.3165
     402     133.91395     27.85366        161.76761  17.42040    50   %  4.3981
     410     133.76539     28.35368        162.11907  17.77186    51   %  4.4785
     417     133.63960     28.80152        162.44112  18.09391    52   %  4.5497
     425     133.48516     29.34998        162.83514  18.48793    53   %  4.6361
     433     133.35282     29.84420        163.19701  18.84980    54   %  4.7134
     441     133.22933     30.32831        163.55764  19.21043    55   %  4.7879
     448     133.11593     30.77205        163.88798  19.54077    56   %  4.8548
     456     132.99311     31.27589        164.26900  19.92179    57   %  4.9308
     464     132.86894     31.81846        164.68740  20.34019    58   %  5.0117
     472     132.75772     32.30922        165.06694  20.71973    59   %  5.0836
     480     132.65280     32.77794        165.43074  21.08353    60   %  5.1519
     488     132.54695     33.28509        165.83204  21.48483    61   %  5.2247
     496     132.44723     33.76979        166.21702  21.86981    62   %  5.2938
     503     132.35143     34.25623        166.60766  22.26045    63   %  5.3620
     511     132.27161     34.69146        166.96307  22.61586    64   %  5.4221
     519     132.18143     35.18157        167.36300  23.01579    65   %  5.4892
     527     132.08528     35.70892        167.79420  23.44699    66   %  5.5603
     535     132.00304     36.18940        168.19244  23.84522    67   %  5.6247
     543     131.92395     36.66995        168.59389  24.24668    68   %  5.6880
     551     131.84787     37.15057        168.99844  24.65123    69   %  5.7502
     559     131.77392     37.62994        169.40386  25.05665    70   %  5.8116
     567     131.70313     38.10966        169.81279  25.46558    71   %  5.8720
     575     131.63470     38.58908        170.22378  25.87657    72   %  5.9316
     583     131.57429     39.04758        170.62187  26.27466    73   %  5.9872
     591     131.51151     39.52840        171.03991  26.69270    74   %  6.0453
     599     131.44414     40.03578        171.47992  27.13271    75   %  6.1053
     607     131.39096     40.49453        171.88548  27.53827    76   %  6.1583
     615     131.33402     40.97291        172.30694  27.95973    77   %  6.2133
     623     131.27942     41.44250        172.72192  28.37471    78   %  6.2674
     631     131.21887     41.95746        173.17633  28.82912    79   %  6.3260
     639     131.17627     42.38933        173.56560  29.21839    80   %  6.3727
     647     131.11918     42.91600        174.03518  29.68797    81   %  6.4311
     656     131.07233     43.39587        174.46821  30.12100    82   %  6.4817
     664     131.02803     43.87591        174.90394  30.55673    83   %  6.5317
     672     130.98533     44.35686        175.34219  30.99498    84   %  6.5808
     680     130.94420     44.83722        175.78142  31.43421    85   %  6.6292
     688     130.90410     45.31762        176.22172  31.87451    86   %  6.6769
     696     130.86596     45.80003        176.66599  32.31878    87   %  6.7239
     705     130.82947     46.27795        177.10742  32.76021    88   %  6.7697
     713     130.79487     46.74712        177.54199  33.19478    89   %  6.8143
     721     130.76090     47.21729        177.97819  33.63098    90   %  6.8581
     729     130.72848     47.68390        178.41238  34.06517    91   %  6.9011
     738     130.68653     48.21155        178.89808  34.55087    92   %  6.9497
     746     130.65961     48.71415        179.37375  35.02654    93   %  6.9932
     754     130.63027     49.20101        179.83128  35.48407    94   %  7.0351
     763     130.59841     49.68628        180.28468  35.93747    95   %  7.0775
     771     130.56946     50.17027        180.73974  36.39253    96   %  7.1188
     780     130.54223     50.65216        181.19440  36.84719    97   %  7.1583
     788     130.51958     51.14539        181.66498  37.31776    98   %  7.1968
     796     130.49695     51.63299        182.12994  37.78273    99   %  7.2349
     805     130.47053     52.12226        182.59279  38.24558   100   %  7.2738
     813     130.44580     52.61193        183.05773  38.71052   101   %  7.3117
     822     130.42401     53.08744        183.51145  39.16424   102   %  7.3475
     830     130.40779     53.59217        183.99996  39.65275   103   %  7.3830
     839     130.38569     54.08814        184.47384  40.12663   104   %  7.4192
     847     130.37038     54.54183        184.91222  40.56501   105   %  7.4505
     856     130.34314     55.06272        185.40586  41.05865   106   %  7.4885
     864     130.32571     55.53104        185.85675  41.50954   107   %  7.5202
     873     130.31777     56.06526        186.38302  42.03581   108   %  7.5540
     882     130.28883     56.59699        186.88582  42.53861   109   %  7.5903
     890     130.27341     57.07408        187.34750  43.00029   110   %  7.6206
     899     130.26859     57.60835        187.87694  43.52973   111   %  7.6526
     907     130.25374     58.07972        188.33346  43.98625   112   %  7.6816
     916     130.22862     58.60773        188.83635  44.48914   113   %  7.7153
     925     130.22416     59.13675        189.36091  45.01370   114   %  7.7447
     934     130.20038     59.66024        189.86062  45.51341   115   %  7.7770
     942     130.18829     60.13127        190.31956  45.97235   116   %  7.8038
     951     130.18547     60.65911        190.84458  46.49737   117   %  7.8316
     960     130.16432     61.17857        191.34289  46.99568   118   %  7.8621
     969     130.16158     61.70136        191.86294  47.51573   119   %  7.8883
     978     130.14071     62.23022        192.37094  48.02373   120   %  7.9177
     987     130.14202     62.76001        192.90203  48.55481   121   %  7.9432
     995     130.13418     63.23958        193.37376  49.02655   122   %  7.9671
    1004     130.11018     63.77901        193.88919  49.54198   123   %  7.9952
    1013     130.11557     64.32828        194.44385  50.09664   124   %  8.0197
    1022     130.09123     64.87479        194.96603  50.61882   125   %  8.0470
    1031     130.09781     65.42683        195.52464  51.17743   126   %  8.0706
    1040     130.07387     65.96893        196.04280  51.69559   127   %  8.0968
    1049     130.08288     66.52116        196.60404  52.25683   128   %  8.1193
    1058     130.05774     67.06979        197.12754  52.78033   129   %  8.1446
    1067     130.06876     67.63507        197.70383  53.35662   130   %  8.1666
    1077     130.06331     68.26495        198.32826  53.98105   131   %  8.1923
    1086     130.03497     68.83397        198.86894  54.52173   132   %  8.2167
    1095     130.05160     69.41632        199.46791  55.12070   133   %  8.2377
    1104     130.02185     69.99560        200.01745  55.67024   134   %  8.2613
    1114     130.01499     70.66473        200.67973  56.33252   135   %  8.2856
    1123     130.03622     71.28641        201.32264  56.97543   136   %  8.3061
    1133     130.03335     71.97887        202.01223  57.66502   137   %  8.3300
    1142     129.99748     72.61288        202.61035  58.26314   138   %  8.3525
    1152     129.99172     73.34582        203.33754  58.99033   139   %  8.3760
    1162     129.98653     74.10155        204.08808  59.74087   140   %  8.3992
    1172     129.98149     74.89640        204.87790  60.53069   141   %  8.4226
    1182     129.97721     75.73698        205.71419  61.36698   142   %  8.4460
    1193     130.02079     76.73836        206.75915  62.41194   143   %  8.4717
    1204     129.96961     77.79007        207.75968  63.41247   144   %  8.4982
    1216     129.96520     79.03364        208.99884  64.65163   145   %  8.5270
    1228     129.96745     80.53300        210.50045  66.15324   146   %  8.5568


 IRC CALCULATION COMPLETE 

 **********************
 *                    *
 * JOB ENDED NORMALLY *
 *                    *
 **********************



 TOTAL JOB TIME:            13.98 SECONDS

 == MOPAC DONE ==
