 *******************************************************************************
 ** Site#: 10005        For non-commercial use only     Version 15.317W 64BITS**
 *******************************************************************************
 ** Cite this work as:                                                        **
 **                                                                           **
 ** (a) MOPAC2012, James J. P. Stewart, Stewart Computational Chemistry,      **
 **  Version 15.317W web: HTTP://OpenMOPAC.net         Days remaining: 362    **
 **                                                                           **
 **                                 AND                                       **
 **                                                                           **
 ** (b) Maia, J.D.C., et al., J. Chem. Theory Comput. 2012, 8, 3072-3081.     **
 **                DOI: 10.1021/ct3004645.                                    **
 *******************************************************************************
 **                                                                           **
 **                                MOPAC2012                                  **
 **                                                                           **
 *******************************************************************************

                              PM7 CALCULATION RESULTS


 *******************************************************************************
 *  CALCULATION DONE:                                Mon Nov 16 11:33:53 2015  *
 *  GEO_DAT    - DATA SET GEOMETRY IS IN FILE "SADDLE_NAPHTHALENE TO INTERMEDIATE_TS.ARC"
 *  TS         - USE EF ROUTINE FOR TS SEARCH
 *  T=         - A TIME OF 172800.0 SECONDS REQUESTED
 *  DUMP=N     - RESTART FILE WRITTEN EVERY  7200.000 SECONDS
 *******************************************************************************
 TS HTML geo_dat="Saddle_Naphthalene to Intermediate_TS.arc"


   ATOM                 CHEMICAL                   X               Y               Z
  NUMBER                 SYMBOL               (ANGSTROMS)     (ANGSTROMS)     (ANGSTROMS)
 
     1       C(HETATM    1  C   HET A   1)    0.08852296  *  -0.02094625  *   0.08895413  *
     2       C(HETATM    2  C   HET A   1)    1.43641652  *   0.00796471  *   0.17091347  *
     3       C(HETATM    3  C   HET A   1)    2.15145300  *   1.25804107  *   0.08911257  *
     4       C(HETATM    4  C   HET A   1)    1.50068027  *   2.41590782  *  -0.17551800  *
     5       C(HETATM    5  C   HET A   1)    0.07759037  *   2.41925034  *  -0.41843883  *
     6       C(HETATM    6  C   HET A   1)   -0.68042204  *   1.20686930  *  -0.11420005  *
     7       C(HETATM    7  C   HET A   1)   -2.06447044  *   1.14590896  *  -0.47504641  *
     8       C(HETATM    8  C   HET A   1)   -2.67158931  *   2.26211512  *  -1.07218438  *
     9       C(HETATM    9  C   HET A   1)   -1.94467658  *   3.39548779  *  -1.34900109  *
    10       C(HETATM   10  C   HET A   1)   -0.57663329  *   3.49088501  *  -0.98041914  *
    11       H(HETATM   11  H   HET A   1)   -0.48662520  *  -0.94662293  *   0.14191832  *
    12       H(HETATM   12  H   HET A   1)    2.02269177  *  -0.90214107  *   0.29439015  *
    13       H(HETATM   13  H   HET A   1)    3.23084826  *   1.23214690  *   0.23659209  *
    14       H(HETATM   14  H   HET A   1)    2.02964414  *   3.36513770  *  -0.24794934  *
    15       H(HETATM   15  H   HET A   1)   -1.52696266  *   1.27507983  *   0.93229156  *
    16       H(HETATM   16  H   HET A   1)   -3.71890221  *   2.17416430  *  -1.36004275  *
    17       H(HETATM   17  H   HET A   1)   -2.39898740  *   4.24005910  *  -1.86885297  *
    18       H(HETATM   18  H   HET A   1)   -0.04263422  *   4.41825412  *  -1.18694075  *
 

     ===================== shared-memory parallel CPU Section ======================
     **                                                                           **
     **  MOPAC calculations will run in shared-memory parallel CPUs               **
     **                                                                           **
     **  Number of Threads =  4                                                   **
     **                                                                           **
     **                                                                           **
     **  For information on this work, see:                                       **
     **                                                                           **
     **  Maia, J.D.C., et al., J. Chem. Theory Comput. 2012, 8, 3072-3081.        **
     **        DOI: 10.1021/ct3004645.                                            **
     **                                                                           **
     ===================== shared-memory parallel CPU Section ======================
      


 General Reference for PM7:
 "Optimization of Parameters for Semiempirical Methods VI: More Modifications to the 
 NDDO Approximations and Re-optimization of Parameters", J. J. P. Stewart, J. Mol. Mod., 1:32, 19 (2013)
 http://www.springerlink.com/openurl.asp?genre=article&id=doi:10.1007/s00894-012-1667-x

           Empirical Formula: C10 H8  =    18 atoms



      MOLECULAR POINT GROUP   :   C1  


      RHF CALCULATION, NO. OF DOUBLY OCCUPIED LEVELS =   24

      Transition state refinement using EF

          HESSIAN CALCULATED NUMERICALLY

 CYCLE:     1 TIME:   0.312 TIME LEFT:  2.00D  GRAD.:     9.752 HEAT:  141.9449
 CYCLE:     2 TIME:   0.016 TIME LEFT:  2.00D  GRAD.:     1.044 HEAT:  141.9108
 CYCLE:     3 TIME:   0.000 TIME LEFT:  2.00D  GRAD.:     1.353 HEAT:  141.8863
 CYCLE:     4 TIME:   0.016 TIME LEFT:  2.00D  GRAD.:     0.126 HEAT:  141.8853

     GRADIENT =  0.12629  IS LESS THAN CUTOFF =  1.00000



 -------------------------------------------------------------------------------
 TS HTML geo_dat="Saddle_Naphthalene to Intermediate_TS.arc"




     GEOMETRY OPTIMISED USING EIGENVECTOR FOLLOWING (TS).     
     SCF FIELD WAS ACHIEVED                                   


                              PM7 CALCULATION
                                                       MOPAC2012 (Version: 15.317W)
                                                       Mon Nov 16 11:33:54 2015
                                                       No. of days left = 362




          FINAL HEAT OF FORMATION =        141.88533 KCAL/MOL =     593.64824 KJ/MOL


          TOTAL ENERGY            =      -1331.39357 EV
          ELECTRONIC ENERGY       =      -6797.43788 EV  POINT GROUP:     C1  
          CORE-CORE REPULSION     =       5466.04432 EV
          COSMO AREA              =        166.96 SQUARE ANGSTROMS
          COSMO VOLUME            =        167.24 CUBIC ANGSTROMS

          GRADIENT NORM           =          0.12629
          IONIZATION POTENTIAL    =          8.474808 EV
          HOMO LUMO ENERGIES (EV) =         -8.475 -0.951
          NO. OF FILLED LEVELS    =         24
          MOLECULAR WEIGHT        =        128.173

          MOLECULAR DIMENSIONS (Angstroms)

            Atom       Atom       Distance
            H    16    H    13     7.20447
            H    18    H    11     5.51918
            H    15    H    12     1.68084


          SCF CALCULATIONS        =         59
 
          WALL-CLOCK TIME         =          0.375 SECONDS
          COMPUTATION TIME        =          1.435 SECONDS




   ATOM                 CHEMICAL                   X               Y               Z
  NUMBER                 SYMBOL               (ANGSTROMS)     (ANGSTROMS)     (ANGSTROMS)
 
     1       C(HETATM    1  C   HET A   1)    0.09379235  *  -0.02739765  *   0.07923747  *
     2       C(HETATM    2  C   HET A   1)    1.43805009  *   0.01133728  *   0.20899438  *
     3       C(HETATM    3  C   HET A   1)    2.15106233  *   1.26079013  *   0.11148174  *
     4       C(HETATM    4  C   HET A   1)    1.50362371  *   2.40887991  *  -0.20178807  *
     5       C(HETATM    5  C   HET A   1)    0.08234839  *   2.40890375  *  -0.44990670  *
     6       C(HETATM    6  C   HET A   1)   -0.67328063  *   1.19447669  *  -0.16163842  *
     7       C(HETATM    7  C   HET A   1)   -2.05906563  *   1.14172946  *  -0.49600654  *
     8       C(HETATM    8  C   HET A   1)   -2.67758956  *   2.27015391  *  -1.05721367  *
     9       C(HETATM    9  C   HET A   1)   -1.95425252  *   3.40979268  *  -1.32090948  *
    10       C(HETATM   10  C   HET A   1)   -0.57884300  *   3.49051787  *  -0.98610939  *
    11       H(HETATM   11  H   HET A   1)   -0.47745182  *  -0.95594518  *   0.12736038  *
    12       H(HETATM   12  H   HET A   1)    2.02092971  *  -0.89230707  *   0.37911988  *
    13       H(HETATM   13  H   HET A   1)    3.22692165  *   1.24386130  *   0.28434184  *
    14       H(HETATM   14  H   HET A   1)    2.03421926  *   3.35463353  *  -0.30155289  *
    15       H(HETATM   15  H   HET A   1)   -1.52740910  *   1.26496242  *   0.89218305  *
    16       H(HETATM   16  H   HET A   1)   -3.73227108  *   2.19298962  *  -1.31975277  *
    17       H(HETATM   17  H   HET A   1)   -2.42126833  *   4.27251734  *  -1.79767655  *
    18       H(HETATM   18  H   HET A   1)   -0.04557698  *   4.41782601  *  -1.19133071  *

                             CARTESIAN COORDINATES

   1    C        0.093792346    -0.027397648     0.079237467
   2    C        1.438050088     0.011337285     0.208994384
   3    C        2.151062329     1.260790131     0.111481741
   4    C        1.503623708     2.408879913    -0.201788070
   5    C        0.082348389     2.408903749    -0.449906705
   6    C       -0.673280625     1.194476686    -0.161638425
   7    C       -2.059065634     1.141729460    -0.496006543
   8    C       -2.677589561     2.270153911    -1.057213665
   9    C       -1.954252517     3.409792675    -1.320909483
  10    C       -0.578843002     3.490517868    -0.986109390
  11    H       -0.477451816    -0.955945178     0.127360376
  12    H        2.020929705    -0.892307068     0.379119882
  13    H        3.226921645     1.243861304     0.284341844
  14    H        2.034219257     3.354633535    -0.301552893
  15    H       -1.527409096     1.264962421     0.892183048
  16    H       -3.732271078     2.192989620    -1.319752771
  17    H       -2.421268333     4.272517342    -1.797676551
  18    H       -0.045576982     4.417826011    -1.191330712


           Empirical Formula: C10 H8  =    18 atoms



      MOLECULAR POINT GROUP   :   C1  


                  EIGENVALUES  
 -31.28776 -29.23391 -27.08570 -25.75540 -24.62951 -21.66574 -21.31335 -20.25706
 -17.34313 -17.22672 -16.85181 -15.09250 -15.07889 -14.75262 -14.21271 -13.66475
 -13.33747 -12.30114 -12.20720 -11.90498 -11.48550 -10.06301  -9.00643  -8.47481
  -0.95059  -0.38508   0.82630   1.46516   2.57529   2.93776   3.60095   3.73734
   4.27720   4.49928   4.69078   4.81675   4.96812   5.15508   5.32274   5.62249
   5.63076   5.80837   5.88735   5.91788   5.96822   6.04627   6.31686   6.48531


              NET ATOMIC CHARGES AND DIPOLE CONTRIBUTIONS

  ATOM NO.                 TYPE                        CHARGE      No. of ELECS.   s-Pop       p-Pop       
    1          C(HETATM    1  C   HET A   1)          -0.112772        4.1128     1.09365     3.01913
    2          C(HETATM    2  C   HET A   1)          -0.182367        4.1824     1.08240     3.09997
    3          C(HETATM    3  C   HET A   1)          -0.108429        4.1084     1.08844     3.01999
    4          C(HETATM    4  C   HET A   1)          -0.189295        4.1893     1.08428     3.10501
    5          C(HETATM    5  C   HET A   1)           0.016968        3.9830     1.07539     2.90764
    6          C(HETATM    6  C   HET A   1)          -0.123124        4.1231     1.07298     3.05014
    7          C(HETATM    7  C   HET A   1)          -0.233019        4.2330     1.34868     2.88434
    8          C(HETATM    8  C   HET A   1)          -0.198639        4.1986     1.09594     3.10270
    9          C(HETATM    9  C   HET A   1)          -0.099617        4.0996     1.09743     3.00218
   10          C(HETATM   10  C   HET A   1)          -0.207611        4.2076     1.08511     3.12251
   11          H(HETATM   11  H   HET A   1)           0.170881        0.8291     0.82912
   12          H(HETATM   12  H   HET A   1)           0.157901        0.8421     0.84210
   13          H(HETATM   13  H   HET A   1)           0.154368        0.8456     0.84563
   14          H(HETATM   14  H   HET A   1)           0.159936        0.8401     0.84006
   15          H(HETATM   15  H   HET A   1)           0.319783        0.6802     0.68022
   16          H(HETATM   16  H   HET A   1)           0.163495        0.8365     0.83650
   17          H(HETATM   17  H   HET A   1)           0.150999        0.8490     0.84900
   18          H(HETATM   18  H   HET A   1)           0.160543        0.8395     0.83946
 DIPOLE           X         Y         Z       TOTAL
 POINT-CHG.     1.006     0.300     1.620     1.931
 HYBRID         0.984     1.635    -0.001     1.908
 SUM            1.991     1.936     1.619     3.214


          ATOMIC ORBITAL ELECTRON POPULATIONS

                   Atom                  s        px        py        pz   
   C(HETATM    1  C   HET A   1)   1.09365   1.00769   1.04583   0.96561
   C(HETATM    2  C   HET A   1)   1.08240   1.01661   1.05234   1.03101
   C(HETATM    3  C   HET A   1)   1.08844   1.07558   0.98123   0.96317
   C(HETATM    4  C   HET A   1)   1.08428   1.00319   1.06773   1.03410
   C(HETATM    5  C   HET A   1)   1.07539   0.97570   0.98215   0.94980
   C(HETATM    6  C   HET A   1)   1.07298   1.01233   0.99356   1.04426
   C(HETATM    7  C   HET A   1)   1.34868   1.00788   1.28587   0.59059
   C(HETATM    8  C   HET A   1)   1.09594   1.09169   0.98322   1.02779
   C(HETATM    9  C   HET A   1)   1.09743   0.99566   1.05156   0.95496
   C(HETATM   10  C   HET A   1)   1.08511   1.02189   1.06654   1.03408
   H(HETATM   11  H   HET A   1)   0.82912
   H(HETATM   12  H   HET A   1)   0.84210
   H(HETATM   13  H   HET A   1)   0.84563
   H(HETATM   14  H   HET A   1)   0.84006
   H(HETATM   15  H   HET A   1)   0.68022
   H(HETATM   16  H   HET A   1)   0.83650
   H(HETATM   17  H   HET A   1)   0.84900
   H(HETATM   18  H   HET A   1)   0.83946
 *******************************************************************************
 ** Site#: 10005        For non-commercial use only     Version 15.317W 64BITS**
 *******************************************************************************
 ** Cite this work as:                                                        **
 **                                                                           **
 ** (a) MOPAC2012, James J. P. Stewart, Stewart Computational Chemistry,      **
 **  Version 15.317W web: HTTP://OpenMOPAC.net         Days remaining: 362    **
 **                                                                           **
 **                                 AND                                       **
 **                                                                           **
 ** (b) Maia, J.D.C., et al., J. Chem. Theory Comput. 2012, 8, 3072-3081.     **
 **                DOI: 10.1021/ct3004645.                                    **
 *******************************************************************************
 **                                                                           **
 **                                MOPAC2012                                  **
 **                                                                           **
 *******************************************************************************

                              PM7 CALCULATION RESULTS


 *******************************************************************************
 *  CALCULATION DONE:                                Mon Nov 16 11:33:54 2015  *
 *  IRC=N      - INTRINSIC REACTION COORDINATE  1 DEFINED
 *  DRC        - DYNAMIC REACTION COORDINATE CALCULATION
 *  OLDGEO     - PREVIOUS GEOMETRY TO BE USED
 *  T=         - A TIME OF 172800.0 SECONDS REQUESTED
 *  DUMP=N     - RESTART FILE WRITTEN EVERY  7200.000 SECONDS
 *  CYCLES=    - DO A MAXIMUM OF   100 STEPS
 *  GNORM=     - EXIT WHEN GRADIENT NORM DROPS BELOW   0.00    
 *  T-PRIOR    - TIME TAKES PRIORITY IN DRC
 *******************************************************************************
Oldgeo IRC=1* HTML T-priority=1 cycles=100 DRC gnorm=0
 Intermediate to Naphthalene

   ATOM                 CHEMICAL                   X               Y               Z
  NUMBER                 SYMBOL               (ANGSTROMS)     (ANGSTROMS)     (ANGSTROMS)
 
     1       C(HETATM    1  C   HET A   1)    0.09379235  *  -0.02739765  *   0.07923747  *
     2       C(HETATM    2  C   HET A   1)    1.43805009  *   0.01133728  *   0.20899438  *
     3       C(HETATM    3  C   HET A   1)    2.15106233  *   1.26079013  *   0.11148174  *
     4       C(HETATM    4  C   HET A   1)    1.50362371  *   2.40887991  *  -0.20178807  *
     5       C(HETATM    5  C   HET A   1)    0.08234839  *   2.40890375  *  -0.44990670  *
     6       C(HETATM    6  C   HET A   1)   -0.67328063  *   1.19447669  *  -0.16163842  *
     7       C(HETATM    7  C   HET A   1)   -2.05906563  *   1.14172946  *  -0.49600654  *
     8       C(HETATM    8  C   HET A   1)   -2.67758956  *   2.27015391  *  -1.05721367  *
     9       C(HETATM    9  C   HET A   1)   -1.95425252  *   3.40979268  *  -1.32090948  *
    10       C(HETATM   10  C   HET A   1)   -0.57884300  *   3.49051787  *  -0.98610939  *
    11       H(HETATM   11 1HT  HET A   1)   -0.47745182  *  -0.95594518  *   0.12736038  *
    12       H(HETATM   12 2HT  HET A   1)    2.02092971  *  -0.89230707  *   0.37911988  *
    13       H(HETATM   13 3HT  HET A   1)    3.22692165  *   1.24386130  *   0.28434184  *
    14       H(HETATM   14 4HT  HET A   1)    2.03421926  *   3.35463353  *  -0.30155289  *
    15       H(HETATM   15  H   HET A   1)   -1.52740910  *   1.26496242  *   0.89218305  *
    16       H(HETATM   16 5HT  HET A   1)   -3.73227108  *   2.19298962  *  -1.31975277  *
    17       H(HETATM   17 6HT  HET A   1)   -2.42126833  *   4.27251734  *  -1.79767655  *
    18       H(HETATM   18 7HT  HET A   1)   -0.04557698  *   4.41782601  *  -1.19133071  *
 

 General Reference for PM7:
 "Optimization of Parameters for Semiempirical Methods VI: More Modifications to the 
 NDDO Approximations and Re-optimization of Parameters", J. J. P. Stewart, J. Mol. Mod., 1:32, 19 (2013)
 http://www.springerlink.com/openurl.asp?genre=article&id=doi:10.1007/s00894-012-1667-x

           Empirical Formula: C10 H8  =    18 atoms



      MOLECULAR POINT GROUP   :   C1  


      RHF CALCULATION, NO. OF DOUBLY OCCUPIED LEVELS =   24



          HEAT OF FORMATION =     141.885352 KCALS/MOLE


          GRADIENT NORM =   0.26009

          MOLECULAR WEIGHT =  128.17


    FOR POINT-GROUP C1   THERE ARE   1 UNIQUE SYMMETRY FUNCTIONS.

 STEP:   1 TIME =     0.02 SECS, INTEGRAL =      0.02 TIME LEFT: 172799.98
 STEP:   2 TIME =     0.02 SECS, INTEGRAL =      0.03 TIME LEFT: 172799.97
 STEP:   3 TIME =     0.02 SECS, INTEGRAL =      0.05 TIME LEFT: 172799.95
 STEP:   4 TIME =     0.00 SECS, INTEGRAL =      0.05 TIME LEFT: 172799.95
 STEP:   5 TIME =     0.02 SECS, INTEGRAL =      0.06 TIME LEFT: 172799.94
 STEP:   6 TIME =     0.02 SECS, INTEGRAL =      0.08 TIME LEFT: 172799.92
 STEP:   7 TIME =     0.02 SECS, INTEGRAL =      0.09 TIME LEFT: 172799.91
 STEP:   8 TIME =     0.00 SECS, INTEGRAL =      0.09 TIME LEFT: 172799.91
 STEP:   9 TIME =     0.03 SECS, INTEGRAL =      0.12 TIME LEFT: 172799.88
 STEP:  10 TIME =     0.00 SECS, INTEGRAL =      0.12 TIME LEFT: 172799.88
 STEP:  11 TIME =     0.02 SECS, INTEGRAL =      0.14 TIME LEFT: 172799.86
 STEP:  12 TIME =     0.02 SECS, INTEGRAL =      0.16 TIME LEFT: 172799.84
 STEP:  13 TIME =     0.02 SECS, INTEGRAL =      0.17 TIME LEFT: 172799.83
 STEP:  14 TIME =     0.00 SECS, INTEGRAL =      0.17 TIME LEFT: 172799.83
 STEP:  15 TIME =     0.02 SECS, INTEGRAL =      0.19 TIME LEFT: 172799.81
 STEP:  16 TIME =     0.02 SECS, INTEGRAL =      0.20 TIME LEFT: 172799.80
 STEP:  17 TIME =     0.02 SECS, INTEGRAL =      0.22 TIME LEFT: 172799.78
 STEP:  18 TIME =     0.02 SECS, INTEGRAL =      0.23 TIME LEFT: 172799.77
 STEP:  19 TIME =     0.00 SECS, INTEGRAL =      0.23 TIME LEFT: 172799.77
 STEP:  20 TIME =     0.02 SECS, INTEGRAL =      0.25 TIME LEFT: 172799.75
 STEP:  21 TIME =     0.02 SECS, INTEGRAL =      0.27 TIME LEFT: 172799.73
 STEP:  22 TIME =     0.02 SECS, INTEGRAL =      0.28 TIME LEFT: 172799.72
 STEP:  23 TIME =     0.02 SECS, INTEGRAL =      0.30 TIME LEFT: 172799.70
 STEP:  24 TIME =     0.02 SECS, INTEGRAL =      0.31 TIME LEFT: 172799.69
 STEP:  25 TIME =     0.00 SECS, INTEGRAL =      0.31 TIME LEFT: 172799.69
 STEP:  26 TIME =     0.02 SECS, INTEGRAL =      0.33 TIME LEFT: 172799.67
 STEP:  27 TIME =     0.02 SECS, INTEGRAL =      0.34 TIME LEFT: 172799.66
 STEP:  28 TIME =     0.02 SECS, INTEGRAL =      0.36 TIME LEFT: 172799.64
 STEP:  29 TIME =     0.00 SECS, INTEGRAL =      0.36 TIME LEFT: 172799.64
 STEP:  30 TIME =     0.02 SECS, INTEGRAL =      0.38 TIME LEFT: 172799.62
 STEP:  31 TIME =     0.02 SECS, INTEGRAL =      0.39 TIME LEFT: 172799.61
 STEP:  32 TIME =     0.02 SECS, INTEGRAL =      0.41 TIME LEFT: 172799.59
 STEP:  33 TIME =     0.02 SECS, INTEGRAL =      0.42 TIME LEFT: 172799.58
 STEP:  34 TIME =     0.00 SECS, INTEGRAL =      0.42 TIME LEFT: 172799.58
 STEP:  35 TIME =     0.02 SECS, INTEGRAL =      0.44 TIME LEFT: 172799.56
 STEP:  36 TIME =     0.02 SECS, INTEGRAL =      0.45 TIME LEFT: 172799.55
 STEP:  37 TIME =     0.02 SECS, INTEGRAL =      0.47 TIME LEFT: 172799.53
 STEP:  38 TIME =     0.00 SECS, INTEGRAL =      0.47 TIME LEFT: 172799.53
 STEP:  39 TIME =     0.02 SECS, INTEGRAL =      0.48 TIME LEFT: 172799.52
 STEP:  40 TIME =     0.02 SECS, INTEGRAL =      0.50 TIME LEFT: 172799.50
 STEP:  41 TIME =     0.02 SECS, INTEGRAL =      0.52 TIME LEFT: 172799.48
 STEP:  42 TIME =     0.00 SECS, INTEGRAL =      0.52 TIME LEFT: 172799.48
 STEP:  43 TIME =     0.02 SECS, INTEGRAL =      0.53 TIME LEFT: 172799.47
 STEP:  44 TIME =     0.02 SECS, INTEGRAL =      0.55 TIME LEFT: 172799.45
 STEP:  45 TIME =     0.02 SECS, INTEGRAL =      0.56 TIME LEFT: 172799.44
 STEP:  46 TIME =     0.00 SECS, INTEGRAL =      0.56 TIME LEFT: 172799.44
 STEP:  47 TIME =     0.02 SECS, INTEGRAL =      0.58 TIME LEFT: 172799.42
 STEP:  48 TIME =     0.02 SECS, INTEGRAL =      0.59 TIME LEFT: 172799.41
 STEP:  49 TIME =     0.02 SECS, INTEGRAL =      0.61 TIME LEFT: 172799.39
 STEP:  50 TIME =     0.02 SECS, INTEGRAL =      0.62 TIME LEFT: 172799.38
 STEP:  51 TIME =     0.00 SECS, INTEGRAL =      0.62 TIME LEFT: 172799.38
 STEP:  52 TIME =     0.02 SECS, INTEGRAL =      0.64 TIME LEFT: 172799.36
 STEP:  53 TIME =     0.02 SECS, INTEGRAL =      0.66 TIME LEFT: 172799.34
 STEP:  54 TIME =     0.02 SECS, INTEGRAL =      0.67 TIME LEFT: 172799.33
           INITIAL VELOCITY IN DRC (Angstroms/Femtosecond)
         0.00564        -0.00793        -0.00911
        -0.00176        -0.00253        -0.00041
         0.00005         0.00304        -0.00076
         0.00327        -0.00081        -0.00014
        -0.00106         0.01315        -0.00215
        -0.02534        -0.00566         0.06390
        -0.04054        -0.02776        -0.05978
        -0.00073         0.01683        -0.00595
        -0.00978        -0.00176         0.00512
         0.01158        -0.00299         0.00185
        -0.00232        -0.00410        -0.00506
         0.00234         0.00054         0.00212
         0.00072        -0.00086         0.00064
         0.00209         0.00045        -0.00076
         0.69317         0.18913         0.11526
        -0.00017         0.00371        -0.01721
         0.00336         0.00699         0.00269
        -0.00017        -0.00021        -0.00902
 THE VIBRATIONAL FREQUENCY ( -1396.61CM(-1)) IS TOO SMALL
 FOR ONE QUANTUM TO BE USED
 INSTEAD 0.3KCAL/MOLE WILL BE USED TO START THE IRC

 TIME PRIORITY, INTERVAL = 1.00 FEMTOSECONDS



 FEMTOSECONDS  POINT  POTENTIAL + KINETIC  =   TOTAL     ERROR    REF%   MOVEMENT
     0.000       1   141.88533    0.30000   142.18533   0.00000     1   %  0.0000
     1.000       1   141.86390    0.08463   141.94854  -0.23680     2   %  0.0191
     2.000       1   141.80123    0.30001   142.10124  -0.08410     3   %  0.0386
     3.000       1   141.69732    0.94612   142.64344   0.45810     4   %  0.0583
     4.000       9   141.47248    0.71114   142.18363  -0.00171     5   %  0.0886
     5.000      11   141.14921    1.03358   142.18279  -0.00254     6   %  0.1215
     6.000      14   140.66906    1.51242   142.18147  -0.00386     7   %  0.1612
     7.000      16   139.99130    2.19090   142.18220  -0.00313     8   %  0.2093
     8.000      18   139.09054    3.09218   142.18271  -0.00262     9   %  0.2669
     9.000      20   137.97356    4.21126   142.18482  -0.00050    10   %  0.3349
    10.000      22   136.69829    5.48991   142.18820   0.00288    11   %  0.4134
    11.000      23   135.37094    6.82250   142.19344   0.00812    12   %  0.5022
    12.000      25   134.14379    8.04461   142.18840   0.00309    13   %  0.6001
    13.000      28   133.17195    9.01288   142.18483  -0.00048    14   %  0.7056
    14.000      31   132.58438    9.59865   142.18303  -0.00227    15   %  0.8166
    15.000      34   132.45420    9.72780   142.18200  -0.00330    16   %  0.9307
    16.000      37   132.77807    9.40264   142.18071  -0.00457    17   %  1.0452
    17.000      40   133.47824    8.70156   142.17979  -0.00549    18   %  1.1576
    18.000      43   134.42380    7.75576   142.17956  -0.00571    19   %  1.2653
    19.000      46   135.46259    6.71760   142.18019  -0.00508    20   %  1.3660
    20.000      49   136.45339    5.72829   142.18168  -0.00359    21   %  1.4580
    21.000      53   137.28461    4.89834   142.18294  -0.00232    22   %  1.5397
    22.000      56   137.87831    4.30551   142.18383  -0.00143    23   %  1.6104
    23.000      60   138.18428    4.00006   142.18434  -0.00092    24   %  1.6695
    24.000      64   138.17487    4.00980   142.18467  -0.00058    25   %  1.7172
    25.000      67   137.85326    4.33190   142.18517  -0.00008    26   %  1.7539
    26.000      69   137.27432    4.91146   142.18579   0.00054    27   %  1.7806
    27.000      72   136.55648    5.62942   142.18591   0.00066    28   %  1.7983
    28.000      76   135.85918    6.32662   142.18579   0.00055    29   %  1.8084
    29.000      79   135.32034    6.86521   142.18555   0.00032    30   %  1.8123
    30.000      83   134.99821    7.18688   142.18509  -0.00014    31   %  1.8116
    31.000      86   134.85883    7.32570   142.18454  -0.00069    32   %  1.8079
    32.000      89   134.82119    7.36286   142.18404  -0.00118    33   %  1.8033
    33.000      92   134.82158    7.36222   142.18380  -0.00141    34   %  1.8006
    34.000      96   134.85314    7.33094   142.18408  -0.00113    35   %  1.8033
    35.000      99   134.95201    7.23234   142.18436  -0.00085    36   %  1.8152
    36.000     104   135.14510    7.03934   142.18444  -0.00076    37   %  1.8391
    37.000     108   135.40316    6.78137   142.18453  -0.00066    38   %  1.8773
    38.000     113   135.64438    6.54029   142.18467  -0.00052    39   %  1.9318
    39.000     118   135.79232    6.39257   142.18489  -0.00030    40   %  2.0022
    40.000     123   135.84268    6.34237   142.18505  -0.00013    41   %  2.0852
    41.000     129   135.87455    6.31055   142.18510  -0.00008    42   %  2.1770
    42.000     135   135.99023    6.19491   142.18515  -0.00003    43   %  2.2740
    43.000     141   136.23461    5.95055   142.18515  -0.00001    44   %  2.3725
    44.000     146   136.55906    5.62610   142.18517   0.00000    45   %  2.4687
    45.000     150   136.85354    5.33163   142.18517   0.00001    46   %  2.5594
    46.000     154   137.01744    5.16772   142.18516   0.00000    47   %  2.6421
    47.000     157   137.01976    5.16585   142.18561   0.00046    48   %  2.7154
    48.000     160   136.91360    5.27186   142.18546   0.00031    49   %  2.7785
    49.000     164   136.79302    5.39188   142.18490  -0.00024    50   %  2.8314
    50.000     169   136.72212    5.46247   142.18459  -0.00055    51   %  2.8745
    51.000     173   136.68739    5.49701   142.18439  -0.00074    52   %  2.9088
    52.000     178   136.61836    5.56598   142.18434  -0.00080    53   %  2.9359
    53.000     182   136.46200    5.72245   142.18445  -0.00068    54   %  2.9578
    54.000     187   136.23858    5.94598   142.18457  -0.00056    55   %  2.9763
    55.000     192   136.02371    6.16089   142.18459  -0.00053    56   %  2.9931
    56.000     196   135.87819    6.30637   142.18457  -0.00055    57   %  3.0079
    57.000     201   135.79769    6.38684   142.18453  -0.00058    58   %  3.0167
    58.000     205   135.72519    6.45939   142.18459  -0.00052    59   %  3.0171
    59.000     210   135.60876    6.57600   142.18476  -0.00035    60   %  3.0076
    60.000     214   135.45273    6.73218   142.18491  -0.00019    61   %  2.9878
    61.000     219   135.32204    6.86286   142.18490  -0.00020    62   %  2.9588
    62.000     225   135.29305    6.89178   142.18483  -0.00026    63   %  2.9228
    63.000     230   135.38642    6.79832   142.18474  -0.00035    64   %  2.8832
    64.000     235   135.54117    6.64346   142.18463  -0.00046    65   %  2.8436
    65.000     239   135.66240    6.52237   142.18477  -0.00031    66   %  2.8067
    66.000     242   135.70288    6.48223   142.18511   0.00004    67   %  2.7740
    67.000     246   135.69514    6.48992   142.18506  -0.00001    68   %  2.7466
    68.000     250   135.70146    6.48341   142.18487  -0.00019    69   %  2.7256
    69.000     254   135.73985    6.44490   142.18475  -0.00031    70   %  2.7120
    70.000     258   135.76288    6.42176   142.18464  -0.00041    71   %  2.7069
    71.000     262   135.70205    6.48264   142.18469  -0.00036    72   %  2.7117
    72.000     266   135.53119    6.65365   142.18484  -0.00021    73   %  2.7281
    73.000     270   135.29550    6.88943   142.18493  -0.00011    74   %  2.7568
    74.000     275   135.08414    7.10082   142.18496  -0.00008    75   %  2.7965
    75.000     280   134.96745    7.21743   142.18488  -0.00015    76   %  2.8440
    76.000     285   134.94667    7.23818   142.18485  -0.00018    77   %  2.8965
    77.000     290   134.96220    7.22267   142.18487  -0.00015    78   %  2.9520
    78.000     295   134.95649    7.22850   142.18499  -0.00003    79   %  3.0096
    79.000     300   134.93157    7.25343   142.18499  -0.00002    80   %  3.0692
    80.000     306   134.94362    7.24133   142.18495  -0.00006    81   %  3.1300
    81.000     312   135.04560    7.13932   142.18491  -0.00009    82   %  3.1914
    82.000     317   135.23980    6.94508   142.18488  -0.00012    83   %  3.2524
    83.000     323   135.48265    6.70224   142.18489  -0.00010    84   %  3.3124
    84.000     329   135.72601    6.45896   142.18496  -0.00002    85   %  3.3704
    85.000     334   135.95370    6.23130   142.18500   0.00002    86   %  3.4252
    86.000     340   136.18455    6.00044   142.18500   0.00002    87   %  3.4756
    87.000     346   136.44206    5.74291   142.18497  -0.00000    88   %  3.5206
    88.000     351   136.71355    5.47137   142.18492  -0.00005    89   %  3.5593
    89.000     356   136.93166    5.25320   142.18486  -0.00010    90   %  3.5914
    90.000     360   137.00137    5.18352   142.18490  -0.00007    91   %  3.6171
    91.000     364   136.86067    5.32434   142.18501   0.00005    92   %  3.6366
    92.000     368   136.52841    5.65654   142.18495  -0.00000    93   %  3.6510
    93.000     373   136.09465    6.09015   142.18480  -0.00015    94   %  3.6613
    94.000     378   135.66244    6.52231   142.18475  -0.00020    95   %  3.6688
    95.000     384   135.29198    6.89270   142.18467  -0.00027    96   %  3.6745
    96.000     389   134.99103    7.19365   142.18468  -0.00026    97   %  3.6786
    97.000     394   134.74848    7.43625   142.18473  -0.00020    98   %  3.6808
    98.000     400   134.57652    7.60828   142.18480  -0.00013    99   %  3.6817
    99.000     406   134.52507    7.65976   142.18483  -0.00010   100   %  3.6833


           INITIAL VELOCITY IN DRC (Angstroms/Femtosecond)
        -0.00564         0.00793         0.00911
         0.00176         0.00253         0.00041
        -0.00005        -0.00304         0.00076
        -0.00327         0.00081         0.00014
         0.00106        -0.01315         0.00215
         0.02534         0.00566        -0.06390
         0.04054         0.02776         0.05978
         0.00073        -0.01683         0.00595
         0.00978         0.00176        -0.00512
        -0.01158         0.00299        -0.00185
         0.00232         0.00410         0.00506
        -0.00234        -0.00054        -0.00212
        -0.00072         0.00086        -0.00064
        -0.00209        -0.00045         0.00076
        -0.69317        -0.18913        -0.11526
         0.00017        -0.00371         0.01721
        -0.00336        -0.00699        -0.00269
         0.00017         0.00021         0.00902
 THE VIBRATIONAL FREQUENCY ( -1396.61CM(-1)) IS TOO SMALL
 FOR ONE QUANTUM TO BE USED
 INSTEAD 0.3KCAL/MOLE WILL BE USED TO START THE IRC

 TIME PRIORITY, INTERVAL = 1.00 FEMTOSECONDS



 FEMTOSECONDS  POINT  POTENTIAL + KINETIC  =   TOTAL     ERROR    REF%   MOVEMENT
     0.000       1   141.88535    0.30000   142.18535   0.00000     1   %  0.0000
     1.000       1   141.86418   -0.02787   141.83631  -0.34904     2   %  0.0191
     2.000       1   141.79322    0.29795   142.09117  -0.09418     3   %  0.0385
     3.000       1   141.67248    1.27744   142.94992   0.76457     4   %  0.0581
     4.000      11   141.34330    0.83954   142.18284  -0.00251     5   %  0.0910
     5.000      15   140.77920    1.40224   142.18144  -0.00391     6   %  0.1280
     6.000      20   139.70536    2.47641   142.18177  -0.00358     7   %  0.1769
     7.000      27   137.65827    4.52367   142.18194  -0.00341     8   %  0.2428
     8.000      36   133.83194    8.34974   142.18168  -0.00366     9   %  0.3328
     9.000      45   127.09137   15.08822   142.17959  -0.00574    10   %  0.4551
    10.000      53   116.44349   25.73704   142.18053  -0.00479    11   %  0.6183
    11.000      59   102.00338   40.18202   142.18539   0.00010    12   %  0.8279
    12.000      67    85.70681   56.47747   142.18428  -0.00099    13   %  1.0842
    13.000      77    70.95221   71.23311   142.18531   0.00010    14   %  1.3813
    14.000      87    61.36117   80.82432   142.18548   0.00032    15   %  1.7073
    15.000      97    59.22735   82.95719   142.18454  -0.00057    16   %  2.0459
    16.000     107    64.22350   77.95997   142.18347  -0.00158    17   %  2.3789
    17.000     117    73.57974   68.60327   142.18300  -0.00200    18   %  2.6892
    18.000     127    83.82182   58.36185   142.18367  -0.00128    19   %  2.9639
    19.000     137    92.32347   49.86026   142.18372  -0.00120    20   %  3.1949
    20.000     147    97.70222   44.48187   142.18409  -0.00080    21   %  3.3779
    21.000     157    99.58449   42.59977   142.18426  -0.00060    22   %  3.5116
    22.000     167    98.41491   43.76953   142.18444  -0.00039    23   %  3.5972
    23.000     177    95.52695   46.65764   142.18459  -0.00020    24   %  3.6384
    24.000     187    93.19282   48.99151   142.18434  -0.00042    25   %  3.6425
    25.000     197    93.84920   48.33454   142.18373  -0.00099    26   %  3.6217
    26.000     207    98.10746   44.07541   142.18287  -0.00183    27   %  3.5917
    27.000     217   103.60090   38.58188   142.18278  -0.00189    28   %  3.5682
    28.000     227   107.22456   34.95800   142.18255  -0.00209    29   %  3.5617
    29.000     237   108.07202   34.11061   142.18263  -0.00198    30   %  3.5750
    30.000     247   107.09594   35.08688   142.18282  -0.00178    31   %  3.6034
    31.000     257   105.14787   37.03537   142.18324  -0.00133    32   %  3.6376
    32.000     267   102.25151   39.93236   142.18387  -0.00068    33   %  3.6680
    33.000     277    98.09624   44.08774   142.18398  -0.00053    34   %  3.6863
    34.000     287    92.61331   49.57095   142.18426  -0.00022    35   %  3.6876
    35.000     297    86.17397   56.01029   142.18426  -0.00019    36   %  3.6710
    36.000     307    79.58978   62.59410   142.18388  -0.00052    37   %  3.6403
    37.000     317    74.04489   68.13854   142.18343  -0.00093    38   %  3.6064
    38.000     327    70.82866   71.35437   142.18303  -0.00128    39   %  3.5869
    39.000     337    70.84405   71.33909   142.18314  -0.00112    40   %  3.5897
    40.000     347    74.22020   67.96269   142.18289  -0.00132    41   %  3.6069
    41.000     357    80.31051   61.87114   142.18165  -0.00252    42   %  3.6308
    42.000     367    87.93449   54.24635   142.18084  -0.00329    43   %  3.6570
    43.000     377    95.68744   46.49295   142.18039  -0.00370    44   %  3.6830
    44.000     387   102.33725   39.84374   142.18099  -0.00307    45   %  3.7085
    45.000     397   107.15725   35.02392   142.18118  -0.00286    46   %  3.7339
    46.000     407   109.90440   32.27706   142.18146  -0.00255    47   %  3.7566
    47.000     417   110.46119   31.72107   142.18226  -0.00173    48   %  3.7798
    48.000     427   108.54812   33.63460   142.18272  -0.00125    49   %  3.8313
    49.000     437   103.90969   38.27340   142.18309  -0.00085    50   %  3.9256
    50.000     447    96.93342   45.24981   142.18322  -0.00069    51   %  4.0393
    51.000     457    89.11575   53.06755   142.18330  -0.00058    52   %  4.1645
    52.000     467    82.66866   59.51455   142.18321  -0.00063    53   %  4.2973
    53.000     477    79.29657   62.88577   142.18234  -0.00146    54   %  4.4326
    54.000     487    79.23615   62.94493   142.18108  -0.00268    55   %  4.5659
    55.000     497    81.42068   60.75976   142.18044  -0.00327    56   %  4.7100
    56.000     507    84.35524   57.82451   142.17975  -0.00392    57   %  4.8719
    57.000     517    86.89770   55.28163   142.17932  -0.00431    58   %  5.0223
    58.000     527    88.61558   53.56410   142.17967  -0.00392    59   %  5.1594
    59.000     537    89.75790   52.42258   142.18048  -0.00307    60   %  5.2910
    60.000     547    90.96205   51.21947   142.18152  -0.00200    61   %  5.4070
    61.000     557    92.79264   49.38958   142.18223  -0.00126    62   %  5.4984
    62.000     567    95.28290   46.89990   142.18281  -0.00065    63   %  5.5673
    63.000     577    97.78742   44.39578   142.18320  -0.00022    64   %  5.6206
    64.000     587    99.34011   42.84265   142.18276  -0.00063    65   %  5.6647
    65.000     597    99.25068   42.93157   142.18225  -0.00111    66   %  5.7051
    66.000     607    97.43127   44.75077   142.18203  -0.00130    67   %  5.7572
    67.000     617    94.29494   47.88650   142.18144  -0.00186    68   %  5.8383
    68.000     627    90.48829   51.69217   142.18046  -0.00280    69   %  5.9226
    69.000     637    86.69712   55.48216   142.17928  -0.00395    70   %  5.9828
    70.000     647    83.54839   58.63054   142.17893  -0.00426    71   %  6.0094
    71.000     657    81.55325   60.62490   142.17815  -0.00499    72   %  6.0045
    72.000     667    81.05186   61.12595   142.17781  -0.00530    73   %  5.9770
    73.000     677    82.14348   60.03574   142.17922  -0.00384    74   %  5.9222
    74.000     687    84.63126   57.54892   142.18018  -0.00284    75   %  5.8364
    75.000     697    88.04490   54.13662   142.18152  -0.00146    76   %  5.7326
    76.000     707    91.75225   50.42974   142.18199  -0.00095    77   %  5.6380
    77.000     717    95.10075   47.08167   142.18242  -0.00049    78   %  5.5767
    78.000     727    97.55547   44.62712   142.18259  -0.00029    79   %  5.5346
    79.000     737    98.82626   43.35611   142.18237  -0.00048    80   %  5.4784
    80.000     747    98.92410   43.25765   142.18175  -0.00107    81   %  5.3942
    81.000     757    98.08135   44.09943   142.18078  -0.00201    82   %  5.2912
    82.000     767    96.57827   45.60152   142.17979  -0.00297    83   %  5.2423
    83.000     777    94.59584   47.58329   142.17913  -0.00360    84   %  5.2827
    84.000     787    92.18687   49.99174   142.17860  -0.00409    85   %  5.3412
    85.000     797    89.39372   52.78567   142.17940  -0.00326    86   %  5.4044
    86.000     807    86.46806   55.71243   142.18049  -0.00213    87   %  5.4764
    87.000     817    84.00699   58.17460   142.18159  -0.00099    88   %  5.5745
    88.000     827    82.74897   59.43336   142.18233  -0.00021    89   %  5.7191
    89.000     837    83.05972   59.12270   142.18241  -0.00008    90   %  5.9026
    90.000     847    84.60399   57.57856   142.18255   0.00009    91   %  6.0992
    91.000     857    86.60823   55.57399   142.18223  -0.00019    92   %  6.2833
    92.000     867    88.44854   53.73281   142.18135  -0.00103    93   %  6.4397
    93.000     877    89.99957   52.18118   142.18075  -0.00159    94   %  6.5685
    94.000     887    91.54584   50.63441   142.18026  -0.00205    95   %  6.6918
    95.000     897    93.42540   48.75469   142.18009  -0.00219    96   %  6.8392
    96.000     907    95.62802   46.55203   142.18005  -0.00219    97   %  6.9905
    97.000     917    97.57824   44.60195   142.18019  -0.00202    98   %  7.1272
    98.000     927    98.36950   43.81139   142.18089  -0.00128    99   %  7.2457
    99.000     937    97.43993   44.74144   142.18137  -0.00078   100   %  7.3481



 **********************
 *                    *
 * JOB ENDED NORMALLY *
 *                    *
 **********************



 TOTAL JOB TIME:            10.95 SECONDS

 == MOPAC DONE ==
