 *******************************************************************************
 ** Site#: 10005        For non-commercial use only     Version 15.317W 64BITS**
 *******************************************************************************
 ** Cite this work as:                                                        **
 **                                                                           **
 ** (a) MOPAC2012, James J. P. Stewart, Stewart Computational Chemistry,      **
 **  Version 15.317W web: HTTP://OpenMOPAC.net         Days remaining: 362    **
 **                                                                           **
 **                                 AND                                       **
 **                                                                           **
 ** (b) Maia, J.D.C., et al., J. Chem. Theory Comput. 2012, 8, 3072-3081.     **
 **                DOI: 10.1021/ct3004645.                                    **
 *******************************************************************************
 **                                                                           **
 **                                MOPAC2012                                  **
 **                                                                           **
 *******************************************************************************

                              PM7 CALCULATION RESULTS


 *******************************************************************************
 *  CALCULATION DONE:                                Mon Nov 16 11:34:01 2015  *
 *  GEO_DAT    - DATA SET GEOMETRY IS IN FILE "SADDLE_NAPHTHALENE TO INTERMEDIATE_TS.ARC"
 *  TS         - USE EF ROUTINE FOR TS SEARCH
 *  T=         - A TIME OF 172800.0 SECONDS REQUESTED
 *  DUMP=N     - RESTART FILE WRITTEN EVERY  7200.000 SECONDS
 *******************************************************************************
 TS HTML geo_dat="Saddle_Naphthalene to Intermediate_TS.arc"


   ATOM                 CHEMICAL                   X               Y               Z
  NUMBER                 SYMBOL               (ANGSTROMS)     (ANGSTROMS)     (ANGSTROMS)
 
     1       C(HETATM    1  C   HET A   1)    0.08852296  *  -0.02094625  *   0.08895413  *
     2       C(HETATM    2  C   HET A   1)    1.43641652  *   0.00796471  *   0.17091347  *
     3       C(HETATM    3  C   HET A   1)    2.15145300  *   1.25804107  *   0.08911257  *
     4       C(HETATM    4  C   HET A   1)    1.50068027  *   2.41590782  *  -0.17551800  *
     5       C(HETATM    5  C   HET A   1)    0.07759037  *   2.41925034  *  -0.41843883  *
     6       C(HETATM    6  C   HET A   1)   -0.68042204  *   1.20686930  *  -0.11420005  *
     7       C(HETATM    7  C   HET A   1)   -2.06447044  *   1.14590896  *  -0.47504641  *
     8       C(HETATM    8  C   HET A   1)   -2.67158931  *   2.26211512  *  -1.07218438  *
     9       C(HETATM    9  C   HET A   1)   -1.94467658  *   3.39548779  *  -1.34900109  *
    10       C(HETATM   10  C   HET A   1)   -0.57663329  *   3.49088501  *  -0.98041914  *
    11       H(HETATM   11  H   HET A   1)   -0.48662520  *  -0.94662293  *   0.14191832  *
    12       H(HETATM   12  H   HET A   1)    2.02269177  *  -0.90214107  *   0.29439015  *
    13       H(HETATM   13  H   HET A   1)    3.23084826  *   1.23214690  *   0.23659209  *
    14       H(HETATM   14  H   HET A   1)    2.02964414  *   3.36513770  *  -0.24794934  *
    15       H(HETATM   15  H   HET A   1)   -1.52696266  *   1.27507983  *   0.93229156  *
    16       H(HETATM   16  H   HET A   1)   -3.71890221  *   2.17416430  *  -1.36004275  *
    17       H(HETATM   17  H   HET A   1)   -2.39898740  *   4.24005910  *  -1.86885297  *
    18       H(HETATM   18  H   HET A   1)   -0.04263422  *   4.41825412  *  -1.18694075  *
 

     ===================== shared-memory parallel CPU Section ======================
     **                                                                           **
     **  MOPAC calculations will run in shared-memory parallel CPUs               **
     **                                                                           **
     **  Number of Threads =  4                                                   **
     **                                                                           **
     **                                                                           **
     **  For information on this work, see:                                       **
     **                                                                           **
     **  Maia, J.D.C., et al., J. Chem. Theory Comput. 2012, 8, 3072-3081.        **
     **        DOI: 10.1021/ct3004645.                                            **
     **                                                                           **
     ===================== shared-memory parallel CPU Section ======================
      


 General Reference for PM7:
 "Optimization of Parameters for Semiempirical Methods VI: More Modifications to the 
 NDDO Approximations and Re-optimization of Parameters", J. J. P. Stewart, J. Mol. Mod., 1:32, 19 (2013)
 http://www.springerlink.com/openurl.asp?genre=article&id=doi:10.1007/s00894-012-1667-x

           Empirical Formula: C10 H8  =    18 atoms



      MOLECULAR POINT GROUP   :   C1  


      RHF CALCULATION, NO. OF DOUBLY OCCUPIED LEVELS =   24

      Transition state refinement using EF

          HESSIAN CALCULATED NUMERICALLY

 CYCLE:     1 TIME:   2.574 TIME LEFT:  2.00D  GRAD.:     9.752 HEAT:  141.9449
 CYCLE:     2 TIME:   0.094 TIME LEFT:  2.00D  GRAD.:     1.044 HEAT:  141.9108
 CYCLE:     3 TIME:   0.016 TIME LEFT:  2.00D  GRAD.:     1.353 HEAT:  141.8863
 CYCLE:     4 TIME:   0.000 TIME LEFT:  2.00D  GRAD.:     0.126 HEAT:  141.8853

     GRADIENT =  0.12629  IS LESS THAN CUTOFF =  1.00000



 -------------------------------------------------------------------------------
 TS HTML geo_dat="Saddle_Naphthalene to Intermediate_TS.arc"




     GEOMETRY OPTIMISED USING EIGENVECTOR FOLLOWING (TS).     
     SCF FIELD WAS ACHIEVED                                   


                              PM7 CALCULATION
                                                       MOPAC2012 (Version: 15.317W)
                                                       Mon Nov 16 11:34:04 2015
                                                       No. of days left = 362




          FINAL HEAT OF FORMATION =        141.88533 KCAL/MOL =     593.64824 KJ/MOL


          TOTAL ENERGY            =      -1331.39357 EV
          ELECTRONIC ENERGY       =      -6797.43788 EV  POINT GROUP:     C1  
          CORE-CORE REPULSION     =       5466.04432 EV
          COSMO AREA              =        166.96 SQUARE ANGSTROMS
          COSMO VOLUME            =        167.24 CUBIC ANGSTROMS

          GRADIENT NORM           =          0.12629
          IONIZATION POTENTIAL    =          8.474808 EV
          HOMO LUMO ENERGIES (EV) =         -8.475 -0.951
          NO. OF FILLED LEVELS    =         24
          MOLECULAR WEIGHT        =        128.173

          MOLECULAR DIMENSIONS (Angstroms)

            Atom       Atom       Distance
            H    16    H    13     7.20447
            H    18    H    11     5.51918
            H    15    H    12     1.68084


          SCF CALCULATIONS        =         59
 
          WALL-CLOCK TIME         =          2.715 SECONDS
          COMPUTATION TIME        =          4.883 SECONDS




   ATOM                 CHEMICAL                   X               Y               Z
  NUMBER                 SYMBOL               (ANGSTROMS)     (ANGSTROMS)     (ANGSTROMS)
 
     1       C(HETATM    1  C   HET A   1)    0.09379235  *  -0.02739765  *   0.07923747  *
     2       C(HETATM    2  C   HET A   1)    1.43805009  *   0.01133728  *   0.20899438  *
     3       C(HETATM    3  C   HET A   1)    2.15106233  *   1.26079013  *   0.11148174  *
     4       C(HETATM    4  C   HET A   1)    1.50362371  *   2.40887991  *  -0.20178807  *
     5       C(HETATM    5  C   HET A   1)    0.08234839  *   2.40890375  *  -0.44990670  *
     6       C(HETATM    6  C   HET A   1)   -0.67328063  *   1.19447669  *  -0.16163842  *
     7       C(HETATM    7  C   HET A   1)   -2.05906563  *   1.14172946  *  -0.49600654  *
     8       C(HETATM    8  C   HET A   1)   -2.67758956  *   2.27015391  *  -1.05721367  *
     9       C(HETATM    9  C   HET A   1)   -1.95425252  *   3.40979268  *  -1.32090948  *
    10       C(HETATM   10  C   HET A   1)   -0.57884300  *   3.49051787  *  -0.98610939  *
    11       H(HETATM   11  H   HET A   1)   -0.47745182  *  -0.95594518  *   0.12736038  *
    12       H(HETATM   12  H   HET A   1)    2.02092971  *  -0.89230707  *   0.37911988  *
    13       H(HETATM   13  H   HET A   1)    3.22692165  *   1.24386130  *   0.28434184  *
    14       H(HETATM   14  H   HET A   1)    2.03421926  *   3.35463353  *  -0.30155289  *
    15       H(HETATM   15  H   HET A   1)   -1.52740910  *   1.26496242  *   0.89218305  *
    16       H(HETATM   16  H   HET A   1)   -3.73227108  *   2.19298962  *  -1.31975277  *
    17       H(HETATM   17  H   HET A   1)   -2.42126833  *   4.27251734  *  -1.79767655  *
    18       H(HETATM   18  H   HET A   1)   -0.04557698  *   4.41782601  *  -1.19133071  *

                             CARTESIAN COORDINATES

   1    C        0.093792346    -0.027397648     0.079237467
   2    C        1.438050088     0.011337285     0.208994384
   3    C        2.151062329     1.260790131     0.111481741
   4    C        1.503623708     2.408879913    -0.201788070
   5    C        0.082348389     2.408903749    -0.449906705
   6    C       -0.673280625     1.194476686    -0.161638425
   7    C       -2.059065634     1.141729460    -0.496006543
   8    C       -2.677589561     2.270153911    -1.057213665
   9    C       -1.954252517     3.409792675    -1.320909483
  10    C       -0.578843002     3.490517868    -0.986109390
  11    H       -0.477451816    -0.955945178     0.127360376
  12    H        2.020929705    -0.892307068     0.379119882
  13    H        3.226921645     1.243861304     0.284341844
  14    H        2.034219257     3.354633535    -0.301552893
  15    H       -1.527409096     1.264962421     0.892183048
  16    H       -3.732271078     2.192989620    -1.319752771
  17    H       -2.421268333     4.272517342    -1.797676551
  18    H       -0.045576982     4.417826011    -1.191330712


           Empirical Formula: C10 H8  =    18 atoms



      MOLECULAR POINT GROUP   :   C1  


                  EIGENVALUES  
 -31.28776 -29.23391 -27.08570 -25.75540 -24.62951 -21.66574 -21.31335 -20.25706
 -17.34313 -17.22672 -16.85181 -15.09250 -15.07889 -14.75262 -14.21271 -13.66475
 -13.33747 -12.30114 -12.20720 -11.90498 -11.48550 -10.06301  -9.00643  -8.47481
  -0.95059  -0.38508   0.82630   1.46516   2.57529   2.93776   3.60095   3.73734
   4.27720   4.49928   4.69078   4.81675   4.96812   5.15508   5.32274   5.62249
   5.63076   5.80837   5.88735   5.91788   5.96822   6.04627   6.31686   6.48531


              NET ATOMIC CHARGES AND DIPOLE CONTRIBUTIONS

  ATOM NO.                 TYPE                        CHARGE      No. of ELECS.   s-Pop       p-Pop       
    1          C(HETATM    1  C   HET A   1)          -0.112772        4.1128     1.09365     3.01913
    2          C(HETATM    2  C   HET A   1)          -0.182367        4.1824     1.08240     3.09997
    3          C(HETATM    3  C   HET A   1)          -0.108429        4.1084     1.08844     3.01999
    4          C(HETATM    4  C   HET A   1)          -0.189295        4.1893     1.08428     3.10501
    5          C(HETATM    5  C   HET A   1)           0.016968        3.9830     1.07539     2.90764
    6          C(HETATM    6  C   HET A   1)          -0.123124        4.1231     1.07298     3.05014
    7          C(HETATM    7  C   HET A   1)          -0.233019        4.2330     1.34868     2.88434
    8          C(HETATM    8  C   HET A   1)          -0.198639        4.1986     1.09594     3.10270
    9          C(HETATM    9  C   HET A   1)          -0.099617        4.0996     1.09743     3.00218
   10          C(HETATM   10  C   HET A   1)          -0.207611        4.2076     1.08511     3.12251
   11          H(HETATM   11  H   HET A   1)           0.170881        0.8291     0.82912
   12          H(HETATM   12  H   HET A   1)           0.157901        0.8421     0.84210
   13          H(HETATM   13  H   HET A   1)           0.154368        0.8456     0.84563
   14          H(HETATM   14  H   HET A   1)           0.159936        0.8401     0.84006
   15          H(HETATM   15  H   HET A   1)           0.319783        0.6802     0.68022
   16          H(HETATM   16  H   HET A   1)           0.163495        0.8365     0.83650
   17          H(HETATM   17  H   HET A   1)           0.150999        0.8490     0.84900
   18          H(HETATM   18  H   HET A   1)           0.160543        0.8395     0.83946
 DIPOLE           X         Y         Z       TOTAL
 POINT-CHG.     1.006     0.300     1.620     1.931
 HYBRID         0.984     1.635    -0.001     1.908
 SUM            1.991     1.936     1.619     3.214


          ATOMIC ORBITAL ELECTRON POPULATIONS

                   Atom                  s        px        py        pz   
   C(HETATM    1  C   HET A   1)   1.09365   1.00769   1.04583   0.96561
   C(HETATM    2  C   HET A   1)   1.08240   1.01661   1.05234   1.03101
   C(HETATM    3  C   HET A   1)   1.08844   1.07558   0.98123   0.96317
   C(HETATM    4  C   HET A   1)   1.08428   1.00319   1.06773   1.03410
   C(HETATM    5  C   HET A   1)   1.07539   0.97570   0.98215   0.94980
   C(HETATM    6  C   HET A   1)   1.07298   1.01233   0.99356   1.04426
   C(HETATM    7  C   HET A   1)   1.34868   1.00788   1.28587   0.59059
   C(HETATM    8  C   HET A   1)   1.09594   1.09169   0.98322   1.02779
   C(HETATM    9  C   HET A   1)   1.09743   0.99566   1.05156   0.95496
   C(HETATM   10  C   HET A   1)   1.08511   1.02189   1.06654   1.03408
   H(HETATM   11  H   HET A   1)   0.82912
   H(HETATM   12  H   HET A   1)   0.84210
   H(HETATM   13  H   HET A   1)   0.84563
   H(HETATM   14  H   HET A   1)   0.84006
   H(HETATM   15  H   HET A   1)   0.68022
   H(HETATM   16  H   HET A   1)   0.83650
   H(HETATM   17  H   HET A   1)   0.84900
   H(HETATM   18  H   HET A   1)   0.83946
 *******************************************************************************
 ** Site#: 10005        For non-commercial use only     Version 15.317W 64BITS**
 *******************************************************************************
 ** Cite this work as:                                                        **
 **                                                                           **
 ** (a) MOPAC2012, James J. P. Stewart, Stewart Computational Chemistry,      **
 **  Version 15.317W web: HTTP://OpenMOPAC.net         Days remaining: 362    **
 **                                                                           **
 **                                 AND                                       **
 **                                                                           **
 ** (b) Maia, J.D.C., et al., J. Chem. Theory Comput. 2012, 8, 3072-3081.     **
 **                DOI: 10.1021/ct3004645.                                    **
 *******************************************************************************
 **                                                                           **
 **                                MOPAC2012                                  **
 **                                                                           **
 *******************************************************************************

                              PM7 CALCULATION RESULTS


 *******************************************************************************
 *  CALCULATION DONE:                                Mon Nov 16 11:34:04 2015  *
 *  IRC=N      - INTRINSIC REACTION COORDINATE  1 DEFINED
 *  OLDGEO     - PREVIOUS GEOMETRY TO BE USED
 *  T=         - A TIME OF 172800.0 SECONDS REQUESTED
 *  DUMP=N     - RESTART FILE WRITTEN EVERY  7200.000 SECONDS
 *  X-PRIOR    - GEOMETRY CHANGES TAKE PRIORITY IN DRC
 *******************************************************************************
Oldgeo IRC=1* HTML X-priority=0.2
 Naphthalene to Intermediate

   ATOM                 CHEMICAL                   X               Y               Z
  NUMBER                 SYMBOL               (ANGSTROMS)     (ANGSTROMS)     (ANGSTROMS)
 
     1       C(HETATM    1  C   HET A   1)    0.09379235  *  -0.02739765  *   0.07923747  *
     2       C(HETATM    2  C   HET A   1)    1.43805009  *   0.01133728  *   0.20899438  *
     3       C(HETATM    3  C   HET A   1)    2.15106233  *   1.26079013  *   0.11148174  *
     4       C(HETATM    4  C   HET A   1)    1.50362371  *   2.40887991  *  -0.20178807  *
     5       C(HETATM    5  C   HET A   1)    0.08234839  *   2.40890375  *  -0.44990670  *
     6       C(HETATM    6  C   HET A   1)   -0.67328063  *   1.19447669  *  -0.16163842  *
     7       C(HETATM    7  C   HET A   1)   -2.05906563  *   1.14172946  *  -0.49600654  *
     8       C(HETATM    8  C   HET A   1)   -2.67758956  *   2.27015391  *  -1.05721367  *
     9       C(HETATM    9  C   HET A   1)   -1.95425252  *   3.40979268  *  -1.32090948  *
    10       C(HETATM   10  C   HET A   1)   -0.57884300  *   3.49051787  *  -0.98610939  *
    11       H(HETATM   11 1HT  HET A   1)   -0.47745182  *  -0.95594518  *   0.12736038  *
    12       H(HETATM   12 2HT  HET A   1)    2.02092971  *  -0.89230707  *   0.37911988  *
    13       H(HETATM   13 3HT  HET A   1)    3.22692165  *   1.24386130  *   0.28434184  *
    14       H(HETATM   14 4HT  HET A   1)    2.03421926  *   3.35463353  *  -0.30155289  *
    15       H(HETATM   15  H   HET A   1)   -1.52740910  *   1.26496242  *   0.89218305  *
    16       H(HETATM   16 5HT  HET A   1)   -3.73227108  *   2.19298962  *  -1.31975277  *
    17       H(HETATM   17 6HT  HET A   1)   -2.42126833  *   4.27251734  *  -1.79767655  *
    18       H(HETATM   18 7HT  HET A   1)   -0.04557698  *   4.41782601  *  -1.19133071  *
 

 General Reference for PM7:
 "Optimization of Parameters for Semiempirical Methods VI: More Modifications to the 
 NDDO Approximations and Re-optimization of Parameters", J. J. P. Stewart, J. Mol. Mod., 1:32, 19 (2013)
 http://www.springerlink.com/openurl.asp?genre=article&id=doi:10.1007/s00894-012-1667-x

           Empirical Formula: C10 H8  =    18 atoms



      MOLECULAR POINT GROUP   :   C1  


      RHF CALCULATION, NO. OF DOUBLY OCCUPIED LEVELS =   24



          HEAT OF FORMATION =     141.885352 KCALS/MOLE


          GRADIENT NORM =   0.26009

          MOLECULAR WEIGHT =  128.17


    FOR POINT-GROUP C1   THERE ARE   1 UNIQUE SYMMETRY FUNCTIONS.

 STEP:   1 TIME =     0.02 SECS, INTEGRAL =      0.02 TIME LEFT: 172799.98
 STEP:   2 TIME =     0.02 SECS, INTEGRAL =      0.03 TIME LEFT: 172799.97
 STEP:   3 TIME =     0.00 SECS, INTEGRAL =      0.03 TIME LEFT: 172799.97
 STEP:   4 TIME =     0.02 SECS, INTEGRAL =      0.05 TIME LEFT: 172799.95
 STEP:   5 TIME =     0.02 SECS, INTEGRAL =      0.06 TIME LEFT: 172799.94
 STEP:   6 TIME =     0.02 SECS, INTEGRAL =      0.08 TIME LEFT: 172799.92
 STEP:   7 TIME =     0.00 SECS, INTEGRAL =      0.08 TIME LEFT: 172799.92
 STEP:   8 TIME =     0.02 SECS, INTEGRAL =      0.09 TIME LEFT: 172799.91
 STEP:   9 TIME =     0.02 SECS, INTEGRAL =      0.11 TIME LEFT: 172799.89
 STEP:  10 TIME =     0.02 SECS, INTEGRAL =      0.12 TIME LEFT: 172799.88
 STEP:  11 TIME =     0.00 SECS, INTEGRAL =      0.12 TIME LEFT: 172799.88
 STEP:  12 TIME =     0.02 SECS, INTEGRAL =      0.14 TIME LEFT: 172799.86
 STEP:  13 TIME =     0.02 SECS, INTEGRAL =      0.16 TIME LEFT: 172799.84
 STEP:  14 TIME =     0.02 SECS, INTEGRAL =      0.17 TIME LEFT: 172799.83
 STEP:  15 TIME =     0.00 SECS, INTEGRAL =      0.17 TIME LEFT: 172799.83
 STEP:  16 TIME =     0.02 SECS, INTEGRAL =      0.19 TIME LEFT: 172799.81
 STEP:  17 TIME =     0.02 SECS, INTEGRAL =      0.20 TIME LEFT: 172799.80
 STEP:  18 TIME =     0.02 SECS, INTEGRAL =      0.22 TIME LEFT: 172799.78
 STEP:  19 TIME =     0.02 SECS, INTEGRAL =      0.23 TIME LEFT: 172799.77
 STEP:  20 TIME =     0.00 SECS, INTEGRAL =      0.23 TIME LEFT: 172799.77
 STEP:  21 TIME =     0.02 SECS, INTEGRAL =      0.25 TIME LEFT: 172799.75
 STEP:  22 TIME =     0.02 SECS, INTEGRAL =      0.27 TIME LEFT: 172799.73
 STEP:  23 TIME =     0.02 SECS, INTEGRAL =      0.28 TIME LEFT: 172799.72
 STEP:  24 TIME =     0.00 SECS, INTEGRAL =      0.28 TIME LEFT: 172799.72
 STEP:  25 TIME =     0.02 SECS, INTEGRAL =      0.30 TIME LEFT: 172799.70
 STEP:  26 TIME =     0.02 SECS, INTEGRAL =      0.31 TIME LEFT: 172799.69
 STEP:  27 TIME =     0.02 SECS, INTEGRAL =      0.33 TIME LEFT: 172799.67
 STEP:  28 TIME =     0.02 SECS, INTEGRAL =      0.34 TIME LEFT: 172799.66
 STEP:  29 TIME =     0.00 SECS, INTEGRAL =      0.34 TIME LEFT: 172799.66
 STEP:  30 TIME =     0.02 SECS, INTEGRAL =      0.36 TIME LEFT: 172799.64
 STEP:  31 TIME =     0.02 SECS, INTEGRAL =      0.38 TIME LEFT: 172799.62
 STEP:  32 TIME =     0.02 SECS, INTEGRAL =      0.39 TIME LEFT: 172799.61
 STEP:  33 TIME =     0.00 SECS, INTEGRAL =      0.39 TIME LEFT: 172799.61
 STEP:  34 TIME =     0.02 SECS, INTEGRAL =      0.41 TIME LEFT: 172799.59
 STEP:  35 TIME =     0.02 SECS, INTEGRAL =      0.42 TIME LEFT: 172799.58
 STEP:  36 TIME =     0.00 SECS, INTEGRAL =      0.42 TIME LEFT: 172799.58
 STEP:  37 TIME =     0.02 SECS, INTEGRAL =      0.44 TIME LEFT: 172799.56
 STEP:  38 TIME =     0.02 SECS, INTEGRAL =      0.45 TIME LEFT: 172799.55
 STEP:  39 TIME =     0.02 SECS, INTEGRAL =      0.47 TIME LEFT: 172799.53
 STEP:  40 TIME =     0.00 SECS, INTEGRAL =      0.47 TIME LEFT: 172799.53
 STEP:  41 TIME =     0.02 SECS, INTEGRAL =      0.48 TIME LEFT: 172799.52
 STEP:  42 TIME =     0.01 SECS, INTEGRAL =      0.50 TIME LEFT: 172799.50
 STEP:  43 TIME =     0.02 SECS, INTEGRAL =      0.52 TIME LEFT: 172799.48
 STEP:  44 TIME =     0.00 SECS, INTEGRAL =      0.52 TIME LEFT: 172799.48
 STEP:  45 TIME =     0.02 SECS, INTEGRAL =      0.53 TIME LEFT: 172799.47
 STEP:  46 TIME =     0.02 SECS, INTEGRAL =      0.55 TIME LEFT: 172799.45
 STEP:  47 TIME =     0.00 SECS, INTEGRAL =      0.55 TIME LEFT: 172799.45
 STEP:  48 TIME =     0.02 SECS, INTEGRAL =      0.56 TIME LEFT: 172799.44
 STEP:  49 TIME =     0.01 SECS, INTEGRAL =      0.57 TIME LEFT: 172799.43
 STEP:  50 TIME =     0.02 SECS, INTEGRAL =      0.59 TIME LEFT: 172799.41
 STEP:  51 TIME =     0.00 SECS, INTEGRAL =      0.59 TIME LEFT: 172799.41
 STEP:  52 TIME =     0.02 SECS, INTEGRAL =      0.61 TIME LEFT: 172799.39
 STEP:  53 TIME =     0.01 SECS, INTEGRAL =      0.62 TIME LEFT: 172799.38
 STEP:  54 TIME =     0.02 SECS, INTEGRAL =      0.64 TIME LEFT: 172799.36
           INITIAL VELOCITY IN DRC (Angstroms/Femtosecond)
         0.00564        -0.00793        -0.00911
        -0.00176        -0.00253        -0.00041
         0.00005         0.00304        -0.00076
         0.00327        -0.00081        -0.00014
        -0.00106         0.01315        -0.00215
        -0.02534        -0.00566         0.06390
        -0.04054        -0.02776        -0.05978
        -0.00073         0.01683        -0.00595
        -0.00978        -0.00176         0.00512
         0.01158        -0.00299         0.00185
        -0.00232        -0.00410        -0.00506
         0.00234         0.00054         0.00212
         0.00072        -0.00086         0.00064
         0.00209         0.00045        -0.00076
         0.69317         0.18913         0.11526
        -0.00017         0.00371        -0.01721
         0.00336         0.00699         0.00269
        -0.00017        -0.00021        -0.00902

 GEOMETRY PRIORITY, STEP = 0.2000 ANGSTROMS



     POINT   POTENTIAL  +  ENERGY LOST   =   TOTAL      ERROR    REF%   MOVEMENT
       1     141.88533      0.00000        141.88533   0.00000     1   %  0.0000
      17     140.15622      1.70386        141.86007   0.01747     2   %  0.1998
      34     136.96781      4.90719        141.87501   0.03240     3   %  0.3987
      49     134.17188      7.70326        141.87514   0.03253     4   %  0.5960
      62     132.35806      9.50928        141.86734   0.02473     5   %  0.7903
      72     131.38520     10.47231        141.85751   0.01490     6   %  0.9797
      80     130.94548     11.02472        141.97020   0.12759     7   %  1.1290
      89     130.71117     11.60312        142.31429   0.47168     8   %  1.2362
      98     130.59110     12.17863        142.76973   0.92712     9   %  1.3147
     107     130.49738     12.71915        143.21653   1.37392    10   %  1.3698
     115     130.43958     13.19703        143.63661   1.79401    11   %  1.4117
     124     130.39475     13.73932        144.13407   2.29147    12   %  1.4528
     132     130.35595     14.21592        144.57187   2.72926    13   %  1.4825
     141     130.31170     14.75129        145.06299   3.22038    14   %  1.5105
     149     130.28274     15.23121        145.51395   3.67134    15   %  1.5340
     158     130.26327     15.76982        146.03310   4.19049    16   %  1.5594
     166     130.24016     16.24142        146.48159   4.63898    17   %  1.5793
     175     130.20583     16.77826        146.98409   5.14149    18   %  1.5992
     183     130.18615     17.25175        147.43790   5.59529    19   %  1.6171
     192     130.17704     17.79566        147.97271   6.13010    20   %  1.6377
     200     130.16078     18.27834        148.43912   6.59651    21   %  1.6545
     209     130.12931     18.81138        148.94069   7.09808    22   %  1.6716
     217     130.11389     19.29140        149.40529   7.56268    23   %  1.6874
     226     130.11305     19.84220        149.95525   8.11265    24   %  1.7059
     235     130.08184     20.38730        150.46914   8.62653    25   %  1.7220
     243     130.06895     20.87810        150.94705   9.10444    26   %  1.7369
     252     130.07081     21.42904        151.49986   9.65725    27   %  1.7543
     260     130.06094     21.92051        151.98146  10.13885    28   %  1.7687
     269     130.03118     22.47640        152.50758  10.66497    29   %  1.7837
     277     130.02082     22.97468        152.99549  11.15288    30   %  1.7977
     286     130.03063     23.55183        153.58246  11.73985    31   %  1.8143
     294     130.02279     24.06737        154.09016  12.24755    32   %  1.8280
     303     129.99004     24.65495        154.64499  12.80238    33   %  1.8424
     311     129.98142     25.20159        155.18300  13.34040    34   %  1.8562
     320     129.99982     25.82936        155.82918  13.98657    35   %  1.8725
     328     129.99364     26.37931        156.37295  14.53034    36   %  1.8858
     337     129.95635     27.00776        156.96411  15.12151    37   %  1.8998
     345     129.94955     27.58618        157.53573  15.69312    38   %  1.9130
     354     129.97506     28.26018        158.23524  16.39263    39   %  1.9288
     362     129.97146     28.87289        158.84435  17.00174    40   %  1.9422
     371     129.92918     29.54487        159.47405  17.63144    41   %  1.9565
     379     129.92394     30.15704        160.08098  18.23837    42   %  1.9699
     388     129.95373     30.86798        160.82171  18.97910    43   %  1.9858
     396     129.95248     31.50937        161.46184  19.61924    44   %  1.9996
     405     129.90913     32.24118        162.15030  20.30770    45   %  2.0148
     413     129.90537     32.93650        162.84187  20.99927    46   %  2.0293
     421     129.90282     33.70186        163.60468  21.76207    47   %  2.0442
     430     129.94771     34.63280        164.58050  22.73789    48   %  2.0627
     438     129.94916     35.48345        165.43261  23.59000    49   %  2.0782
     447     129.89190     36.43093        166.32283  24.48022    50   %  2.0941
     455     129.89010     37.34703        167.23713  25.39452    51   %  2.1093
     463     129.88930     38.32499        168.21429  26.37168    52   %  2.1245
     472     129.94791     39.61266        169.56057  27.71796    53   %  2.1439
     480     129.95044     40.73310        170.68353  28.84093    54   %  2.1593
     488     129.96710     42.09942        172.06651  30.22391    55   %  2.1756
     497     129.89195     43.18494        173.07689  31.23428    56   %  2.1895
     505     129.89742     43.77824        173.67566  31.83305    57   %  2.1987
     513     129.89916     44.41799        174.31715  32.47454    58   %  2.2083
     522     129.85978     45.15033        175.01011  33.16750    59   %  2.2182
     530     129.85835     45.82857        175.68691  33.84431    60   %  2.2276
     539     129.90031     46.61646        176.51677  34.67416    61   %  2.2388
     547     129.90480     47.35991        177.26471  35.42210    62   %  2.2481
     556     129.85869     48.24116        178.09985  36.25724    63   %  2.2577
     564     129.86011     49.11989        178.98001  37.13740    64   %  2.2673
     573     129.92837     50.34895        180.27732  38.43471    65   %  2.2802


           POTENTIAL ENERGY HAS STOPPED DROPPING

           INITIAL VELOCITY IN DRC (Angstroms/Femtosecond)
        -0.00564         0.00793         0.00911
         0.00176         0.00253         0.00041
        -0.00005        -0.00304         0.00076
        -0.00327         0.00081         0.00014
         0.00106        -0.01315         0.00215
         0.02534         0.00566        -0.06390
         0.04054         0.02776         0.05978
         0.00073        -0.01683         0.00595
         0.00978         0.00176        -0.00512
        -0.01158         0.00299        -0.00185
         0.00232         0.00410         0.00506
        -0.00234        -0.00054        -0.00212
        -0.00072         0.00086        -0.00064
        -0.00209        -0.00045         0.00076
        -0.69317        -0.18913        -0.11526
         0.00017        -0.00371         0.01721
        -0.00336        -0.00699        -0.00269
         0.00017         0.00021         0.00902

 GEOMETRY PRIORITY, STEP = 0.2000 ANGSTROMS



     POINT   POTENTIAL  +  ENERGY LOST   =   TOTAL      ERROR    REF%   MOVEMENT
       1     141.88535      0.00000        141.88535   0.00000     1   %  0.0000
      17     139.13335      2.65966        141.79302  -0.04703     2   %  0.1999
      33     131.44123     10.33205        141.77328  -0.06676     3   %  0.3833
      50     118.13630     23.62059        141.75689  -0.08315     4   %  0.5989
      68     104.45946     37.28564        141.74511  -0.09493     5   %  0.7978
      85      91.22075     50.50757        141.72832  -0.11172     6   %  0.9959
     102      79.29745     62.41220        141.70965  -0.13039     7   %  1.1927
     119      69.05930     72.63185        141.69115  -0.14889     8   %  1.3873
     136      60.60785     81.06524        141.67309  -0.16695     9   %  1.5779
     153      53.91274     87.74278        141.65552  -0.18452    10   %  1.7618
     171      48.89939     92.73902        141.63841  -0.20163    11   %  1.9356
     188      45.43770     96.18558        141.62329  -0.21675    12   %  2.0956
     204      43.31805     98.29125        141.60931  -0.23074    13   %  2.2376
     218      42.18845     99.40927        141.59772  -0.24233    14   %  2.3550
     229      41.57137    100.01644        141.58781  -0.25224    15   %  2.4466
     238      41.20842    100.38095        141.58937  -0.25068    16   %  2.5175
     247      41.02264    100.92575        141.94840   0.10835    17   %  2.5673
     256      40.88896    101.45688        142.34584   0.50579    18   %  2.6127
     265      40.77753    101.99602        142.77355   0.93351    19   %  2.6611
     274      40.67933    102.54854        143.22786   1.38782    20   %  2.7103
     284      40.59148    103.12203        143.71351   1.87347    21   %  2.7635
     294      40.51239    103.71999        144.23238   2.39233    22   %  2.8169
     304      40.44324    104.30475        144.74799   2.90795    23   %  2.8678
     314      40.38234    104.87056        145.25289   3.41285    24   %  2.9160
     323      40.32768    105.41945        145.74713   3.90709    25   %  2.9615
     332      40.28273    105.95525        146.23797   4.39793    26   %  3.0000
     341      40.24492    106.43363        146.67854   4.83850    27   %  3.0351
     350      40.20261    107.00381        147.20642   5.36638    28   %  3.0758
     359      40.16372    107.52043        147.68415   5.84411    29   %  3.1130
     368      40.13204    108.02655        148.15860   6.31855    30   %  3.1460
     376      40.10301    108.48202        148.58503   6.74499    31   %  3.1761
     385      40.08018    109.00947        149.08966   7.24961    32   %  3.2053
     393      40.05553    109.47435        149.52988   7.68984    33   %  3.2331
     402      40.02513    109.99461        150.01974   8.17969    34   %  3.2665
     410      40.00443    110.46062        150.46505   8.62501    35   %  3.2926
     419      39.99051    110.98627        150.97679   9.13674    36   %  3.3175
     427      39.96512    111.48449        151.44961   9.60957    37   %  3.3466
     435      39.94724    111.96580        151.91304  10.07300    38   %  3.3720
     444      39.93343    112.44438        152.37781  10.53777    39   %  3.3944
     452      39.92092    112.92270        152.84362  11.00358    40   %  3.4159
     460      39.90863    113.39687        153.30550  11.46546    41   %  3.4372
     468      39.89192    113.82181        153.71373  11.87369    42   %  3.4598
     477      39.88405    114.34281        154.22686  12.38682    43   %  3.4790
     485      39.87148    114.80844        154.67992  12.83988    44   %  3.5004
     493      39.86050    115.27302        155.13352  13.29348    45   %  3.5206
     501      39.85070    115.73685        155.58755  13.74750    46   %  3.5397
     509      39.84147    116.20036        156.04183  14.20179    47   %  3.5580
     517      39.83283    116.66271        156.49554  14.65550    48   %  3.5759
     525      39.82508    117.12220        156.94728  15.10724    49   %  3.5933
     533      39.82506    117.54613        157.37119  15.53115    50   %  3.6044
     541      39.81932    118.00413        157.82345  15.98341    51   %  3.6204
     549      39.81300    118.47323        158.28623  16.44618    52   %  3.6360
     557      39.80829    118.93653        158.74482  16.90478    53   %  3.6511
     565      39.80391    119.41024        159.21415  17.37411    54   %  3.6659
     573      39.79951    119.88326        159.68276  17.84272    55   %  3.6803
     581      39.79427    120.35057        160.14485  18.30480    56   %  3.6943
     589      39.79041    120.82204        160.61245  18.77240    57   %  3.7078
     597      39.78821    121.29839        161.08659  19.24655    58   %  3.7209
     605      39.78479    121.78404        161.56884  19.72879    59   %  3.7338
     613      39.78173    122.26810        162.04982  20.20978    60   %  3.7463
     621      39.77852    122.74652        162.52504  20.68500    61   %  3.7584
     629      39.77710    123.24023        163.01733  21.17729    62   %  3.7702
     637      39.77582    123.73765        163.51347  21.67343    63   %  3.7816
     645      39.77439    124.24775        164.02214  22.18210    64   %  3.7928
     654      39.74926    124.82250        164.57177  22.73173    65   %  3.8085
     662      39.74683    125.34796        165.09479  23.25474    66   %  3.8191
     670      39.74456    125.86891        165.61347  23.77342    67   %  3.8295
     678      39.74245    126.39646        166.13891  24.29887    68   %  3.8395
     686      39.74050    126.92241        166.66291  24.82286    69   %  3.8490
     694      39.73872    127.45625        167.19497  25.35492    70   %  3.8583
     702      39.73730    128.01385        167.75114  25.91110    71   %  3.8672
     710      39.73608    128.58447        168.32055  26.48051    72   %  3.8761
     718      39.73492    129.18627        168.92119  27.08115    73   %  3.8849
     726      39.73383    129.80341        169.53724  27.69719    74   %  3.8936
     735      39.77448    130.55461        170.32909  28.48905    75   %  3.9000
     743      39.77557    131.24535        171.02092  29.18088    76   %  3.9085
     751      39.77874    131.98350        171.76223  29.92219    77   %  3.9168
     760      39.73257    132.81188        172.54445  30.70441    78   %  3.9287
     768      39.73395    133.62291        173.35686  31.51681    79   %  3.9364
     777      39.79109    134.65556        174.44665  32.60661    80   %  3.9429
     786      39.73782    135.74181        175.47963  33.63959    81   %  3.9540
     795      39.80765    137.07128        176.87892  35.03888    82   %  3.9610


           POTENTIAL ENERGY HAS STOPPED DROPPING


 **********************
 *                    *
 * JOB ENDED NORMALLY *
 *                    *
 **********************



 TOTAL JOB TIME:            11.79 SECONDS

 == MOPAC DONE ==
