 *******************************************************************************
 ** Site#: 10005        For non-commercial use only     Version 15.315W 64BITS**
 *******************************************************************************
 ** Cite this work as:                                                        **
 **                                                                           **
 ** (a) MOPAC2012, James J. P. Stewart, Stewart Computational Chemistry,      **
 **  Version 15.315W web: HTTP://OpenMOPAC.net         Days remaining: 365    **
 **                                                                           **
 **                                 AND                                       **
 **                                                                           **
 ** (b) Maia, J.D.C., et al., J. Chem. Theory Comput. 2012, 8, 3072-3081.     **
 **                DOI: 10.1021/ct3004645.                                    **
 *******************************************************************************
 **                                                                           **
 **                                MOPAC2012                                  **
 **                                                                           **
 *******************************************************************************

                              PM7 CALCULATION RESULTS


 *******************************************************************************
 *  CALCULATION DONE:                                Wed Nov 11 17:17:26 2015  *
 *  GEO_DAT    - DATA SET GEOMETRY IS IN FILE "STEP_2_3.ARC"
 *  EPS= 78.40 - USE ANDREAS KLAMT'S COSMO IMPLICIT SOLVATION MODEL
 *  IRC=N      - INTRINSIC REACTION COORDINATE -1 DEFINED
 *  DRC        - DYNAMIC REACTION COORDINATE CALCULATION
 *  LET        - OVERRIDE SOME SAFETY CHECKS
 *  PRECISE    - CRITERIA TO BE INCREASED BY 100 TIMES
 *  T=         - A TIME OF 172800.0 SECONDS REQUESTED
 *  DUMP=N     - RESTART FILE WRITTEN EVERY  7200.000 SECONDS
 *  CYCLES=    - DO A MAXIMUM OF   100 STEPS
 *  T-PRIOR    - TIME TAKES PRIORITY IN DRC
 *******************************************************************************
 irc=-1* eps=78.4 DRC let HTML T-priority=1 precise geo_dat="Step_2_3.arc" cycles=100
 Dynamic reaction coordinate for Step 2 to Step 3

   ATOM                 CHEMICAL                   X               Y               Z
  NUMBER                 SYMBOL               (ANGSTROMS)     (ANGSTROMS)     (ANGSTROMS)
 
     1       C(HETATM    1  C1  HET A   3)   -0.07683328     -0.00606870     -0.04381540   
     2       C(HETATM    2  C2  HET A   3)    1.28833238      0.21714204      0.53069205   
     3       O(HETATM    3  O1  HET A   3)    2.03858826      1.17322249      0.32908578   
     4       O(HETATM    4  O2  HET A   3)    1.98555698     -1.16335388      0.44493036   
     5       C(HETATM    5  C3  HET A   3)    3.38131874     -1.18143643      0.11319077   
     6       C(HETATM    6  C4  HET A   3)    3.74139100     -2.65019450     -0.02901221   
     7       H(HETATM    7 1H1  HET A   3)   -0.02783825     -0.45904355     -1.04519013   
     8       H(HETATM    8 2H1  HET A   3)   -0.68856805     -0.67631171      0.58187469   
     9       H(HETATM    9 3H1  HET A   3)   -0.61964541      0.94751594     -0.14056488   
    10       H(HETATM   10 1H3  HET A   3)    3.49563865     -0.61937809     -0.83122671   
    11       H(HETATM   11 2H3  HET A   3)    3.94582022     -0.67127925      0.91332436   
    12       H(HETATM   12 1H4  HET A   3)    3.45619409     -3.22806116      0.85973318   
    13       H(HETATM   13 2H4  HET A   3)    3.24220426     -3.11398578     -0.88897891   
    14       H(HETATM   14 3H4  HET A   3)    4.82299140     -2.77758469     -0.16929052   
    15       H(HETATM   15 1H   HOH A   5)    1.70589433      0.44677040      2.62313997   
    16       O(HETATM   16  O   HOH A   5)    1.12388424     -0.10121705      2.04971634   
    17       H(HETATM   17 2H   HOH A   5)    1.78642259     -1.21057849      1.73299611   
 

     ===================== shared-memory parallel CPU Section ======================
     **                                                                           **
     **  MOPAC calculations will run in shared-memory parallel CPUs               **
     **                                                                           **
     **  Number of Threads =  4                                                   **
     **                                                                           **
     **                                                                           **
     **  For information on this work, see:                                       **
     **                                                                           **
     **  Maia, J.D.C., et al., J. Chem. Theory Comput. 2012, 8, 3072-3081.        **
     **        DOI: 10.1021/ct3004645.                                            **
     **                                                                           **
     ===================== shared-memory parallel CPU Section ======================
      


 General Reference for PM7:
 "Optimization of Parameters for Semiempirical Methods VI: More Modifications to the 
 NDDO Approximations and Re-optimization of Parameters", J. J. P. Stewart, J. Mol. Mod., 1:32, 19 (2013)
 http://www.springerlink.com/openurl.asp?genre=article&id=doi:10.1007/s00894-012-1667-x

           Empirical Formula: C4 H10 O3  =    17 atoms



      MOLECULAR POINT GROUP   :   C1  


      RHF CALCULATION, NO. OF DOUBLY OCCUPIED LEVELS =   22



          HEAT OF FORMATION =    -141.117381 KCALS/MOLE


          GRADIENT NORM =   5.02471


          TIME FOR SCF CALCULATION =    0.03

          TIME FOR DERIVATIVES     =    0.03

          MOLECULAR WEIGHT =  106.12


          ESTIMATED TIME TO COMPLETE CALCULATION =       12.75 SECONDS

    FOR POINT-GROUP C1   THERE ARE   1 UNIQUE SYMMETRY FUNCTIONS.

 STEP:   1 TIME =     0.06 SECS, INTEGRAL =      0.06 TIME LEFT: 172799.88
 STEP:   2 TIME =     0.06 SECS, INTEGRAL =      0.12 TIME LEFT: 172799.81
 STEP:   3 TIME =     0.05 SECS, INTEGRAL =      0.17 TIME LEFT: 172799.77
 STEP:   4 TIME =     0.05 SECS, INTEGRAL =      0.22 TIME LEFT: 172799.72
 STEP:   5 TIME =     0.05 SECS, INTEGRAL =      0.27 TIME LEFT: 172799.67
 STEP:   6 TIME =     0.06 SECS, INTEGRAL =      0.33 TIME LEFT: 172799.61
 STEP:   7 TIME =     0.05 SECS, INTEGRAL =      0.38 TIME LEFT: 172799.56
 STEP:   8 TIME =     0.05 SECS, INTEGRAL =      0.42 TIME LEFT: 172799.52
 STEP:   9 TIME =     0.05 SECS, INTEGRAL =      0.47 TIME LEFT: 172799.47
 STEP:  10 TIME =     0.06 SECS, INTEGRAL =      0.53 TIME LEFT: 172799.41
 STEP:  11 TIME =     0.05 SECS, INTEGRAL =      0.58 TIME LEFT: 172799.36
 STEP:  12 TIME =     0.05 SECS, INTEGRAL =      0.62 TIME LEFT: 172799.31
 STEP:  13 TIME =     0.06 SECS, INTEGRAL =      0.69 TIME LEFT: 172799.25
 STEP:  14 TIME =     0.06 SECS, INTEGRAL =      0.75 TIME LEFT: 172799.19
 STEP:  15 TIME =     0.05 SECS, INTEGRAL =      0.80 TIME LEFT: 172799.14
 STEP:  16 TIME =     0.06 SECS, INTEGRAL =      0.86 TIME LEFT: 172799.08
 STEP:  17 TIME =     0.05 SECS, INTEGRAL =      0.91 TIME LEFT: 172799.03
 STEP:  18 TIME =     0.06 SECS, INTEGRAL =      0.97 TIME LEFT: 172798.97
 STEP:  19 TIME =     0.05 SECS, INTEGRAL =      1.02 TIME LEFT: 172798.92
 STEP:  20 TIME =     0.06 SECS, INTEGRAL =      1.08 TIME LEFT: 172798.86
 STEP:  21 TIME =     0.05 SECS, INTEGRAL =      1.12 TIME LEFT: 172798.81
 STEP:  22 TIME =     0.05 SECS, INTEGRAL =      1.17 TIME LEFT: 172798.77
 STEP:  23 TIME =     0.05 SECS, INTEGRAL =      1.22 TIME LEFT: 172798.72
 STEP:  24 TIME =     0.06 SECS, INTEGRAL =      1.28 TIME LEFT: 172798.66
 STEP:  25 TIME =     0.05 SECS, INTEGRAL =      1.33 TIME LEFT: 172798.61
 STEP:  26 TIME =     0.06 SECS, INTEGRAL =      1.39 TIME LEFT: 172798.55
 STEP:  27 TIME =     0.06 SECS, INTEGRAL =      1.45 TIME LEFT: 172798.48
 STEP:  28 TIME =     0.05 SECS, INTEGRAL =      1.50 TIME LEFT: 172798.44
 STEP:  29 TIME =     0.06 SECS, INTEGRAL =      1.56 TIME LEFT: 172798.38
 STEP:  30 TIME =     0.06 SECS, INTEGRAL =      1.62 TIME LEFT: 172798.31
 STEP:  31 TIME =     0.06 SECS, INTEGRAL =      1.69 TIME LEFT: 172798.25
 STEP:  32 TIME =     0.06 SECS, INTEGRAL =      1.75 TIME LEFT: 172798.19
 STEP:  33 TIME =     0.06 SECS, INTEGRAL =      1.81 TIME LEFT: 172798.12
 STEP:  34 TIME =     0.06 SECS, INTEGRAL =      1.88 TIME LEFT: 172798.06
 STEP:  35 TIME =     0.05 SECS, INTEGRAL =      1.92 TIME LEFT: 172798.02
 STEP:  36 TIME =     0.06 SECS, INTEGRAL =      1.98 TIME LEFT: 172797.95
 STEP:  37 TIME =     0.06 SECS, INTEGRAL =      2.05 TIME LEFT: 172797.89
 STEP:  38 TIME =     0.05 SECS, INTEGRAL =      2.09 TIME LEFT: 172797.84
 STEP:  39 TIME =     0.06 SECS, INTEGRAL =      2.16 TIME LEFT: 172797.78
 STEP:  40 TIME =     0.06 SECS, INTEGRAL =      2.22 TIME LEFT: 172797.72
 STEP:  41 TIME =     0.06 SECS, INTEGRAL =      2.28 TIME LEFT: 172797.66
 STEP:  42 TIME =     0.06 SECS, INTEGRAL =      2.34 TIME LEFT: 172797.60
 STEP:  43 TIME =     0.05 SECS, INTEGRAL =      2.39 TIME LEFT: 172797.55
 STEP:  44 TIME =     0.07 SECS, INTEGRAL =      2.45 TIME LEFT: 172797.48
 STEP:  45 TIME =     0.06 SECS, INTEGRAL =      2.51 TIME LEFT: 172797.43
 STEP:  46 TIME =     0.05 SECS, INTEGRAL =      2.56 TIME LEFT: 172797.38
 STEP:  47 TIME =     0.06 SECS, INTEGRAL =      2.62 TIME LEFT: 172797.32
 STEP:  48 TIME =     0.05 SECS, INTEGRAL =      2.67 TIME LEFT: 172797.27
 STEP:  49 TIME =     0.06 SECS, INTEGRAL =      2.73 TIME LEFT: 172797.21
 STEP:  50 TIME =     0.06 SECS, INTEGRAL =      2.79 TIME LEFT: 172797.14
 STEP:  51 TIME =     0.05 SECS, INTEGRAL =      2.84 TIME LEFT: 172797.10
           INITIAL VELOCITY IN DRC (Angstroms/Femtosecond)
         0.00046        -0.00023         0.00466
         0.00084         0.00024        -0.07791
        -0.00034         0.00039         0.00448
        -0.00639         0.03641        -0.00394
        -0.01298         0.00339         0.01019
        -0.00126        -0.00162         0.00277
        -0.01160        -0.00240         0.00645
         0.00618        -0.00137         0.00509
         0.00554        -0.00245         0.00679
         0.02785        -0.00169        -0.01245
        -0.01239        -0.01067         0.00939
        -0.00345         0.00338         0.00890
         0.00151        -0.00245         0.00372
        -0.00073         0.00210         0.00770
         0.02595        -0.02474         0.01519
         0.01343        -0.03824        -0.00078
         0.00914         0.04196         0.67161
 THE VIBRATIONAL FREQUENCY ( -1166.90CM(-1)) IS TOO SMALL
 FOR ONE QUANTUM TO BE USED
 INSTEAD 0.3KCAL/MOLE WILL BE USED TO START THE IRC

 TIME PRIORITY, INTERVAL = 1.00 FEMTOSECONDS



 FEMTOSECONDS  POINT  POTENTIAL + KINETIC  =   TOTAL     ERROR    REF%   MOVEMENT
     0.000       1  -141.11738    0.30000  -140.81738   0.00000     1   %  0.0000
     1.000       1  -141.18127    0.24766  -140.93361  -0.11623     2   %  0.0210
     2.000       1  -141.21344    0.32701  -140.88643  -0.06905     3   %  0.0454
     3.000       1  -141.21387    0.53804  -140.67583   0.14155     4   %  0.0730
     4.000       4  -141.37480    0.56427  -140.81052   0.00686     5   %  0.1089
     5.000       5  -141.62569    0.81019  -140.81550   0.00188     6   %  0.1467
     6.000       6  -141.91085    1.17664  -140.73422   0.08317     7   %  0.1911
     7.000       7  -142.26455    1.48359  -140.78096   0.03642     8   %  0.2433
     8.000       8  -142.92996    2.14824  -140.78172   0.03567     9   %  0.3005
     9.000      10  -143.84868    2.98023  -140.86845  -0.05106    10   %  0.3674
    10.000      12  -144.83910    4.08717  -140.75193   0.06546    11   %  0.4444
    11.000      14  -145.99829    5.28283  -140.71547   0.10193    12   %  0.5316
    12.000      16  -147.25568    6.46705  -140.78862   0.02877    13   %  0.6280
    13.000      18  -148.61179    7.58762  -141.02417  -0.20676    14   %  0.7323
    14.000      19  -149.72320    8.92989  -140.79331   0.02409    15   %  0.8435
    15.000      21  -150.96151   10.11398  -140.84753  -0.03012    16   %  0.9610
    16.000      23  -151.98665   11.26336  -140.72329   0.09413    17   %  1.0843
    17.000      26  -152.83689   12.02221  -140.81468   0.00275    18   %  1.2122
    18.000      30  -153.36409   12.52058  -140.84351  -0.02607    19   %  1.3430
    19.000      33  -154.04117   13.20283  -140.83834  -0.02089    20   %  1.4761
    20.000      37  -154.72423   13.91744  -140.80678   0.01067    21   %  1.6114
    21.000      41  -155.65541   14.79270  -140.86271  -0.04524    22   %  1.7486
    22.000      46  -156.40232   15.57622  -140.82610  -0.00862    23   %  1.8883
    23.000      51  -157.03465   16.22924  -140.80540   0.01209    24   %  2.0307
    24.000      55  -157.50593   16.70043  -140.80550   0.01201    25   %  2.1765
    25.000      59  -157.83096   17.01118  -140.81978  -0.00226    26   %  2.3263
    26.000      62  -158.44799   17.59654  -140.85145  -0.03392    27   %  2.4806
    27.000      65  -159.27117   18.45190  -140.81927  -0.00173    28   %  2.6407
    28.000      69  -160.00563   19.19082  -140.81481   0.00274    29   %  2.8068
    29.000      74  -160.72416   19.91868  -140.80547   0.01209    30   %  2.9780
    30.000      79  -161.41819   20.56483  -140.85336  -0.03579    31   %  3.1538
    31.000      84  -161.90553   21.08550  -140.82004  -0.00244    32   %  3.3336
    32.000      89  -162.40798   21.57830  -140.82968  -0.01208    33   %  3.5162
    33.000      93  -162.95790   22.11016  -140.84775  -0.03012    34   %  3.7013
    34.000      97  -163.39220   22.57161  -140.82059  -0.00295    35   %  3.8890
    35.000     101  -163.74406   22.91303  -140.83102  -0.01337    36   %  4.0792
    36.000     105  -163.94494   23.15651  -140.78843   0.02924    37   %  4.2725
    37.000     108  -164.05150   23.24990  -140.80161   0.01608    38   %  4.4689
    38.000     111  -164.29321   23.46575  -140.82746  -0.00976    39   %  4.6683
    39.000     114  -164.65470   23.81929  -140.83541  -0.01769    40   %  4.8706
    40.000     118  -164.90713   24.05939  -140.84774  -0.03000    41   %  5.0756
    41.000     122  -164.82738   24.06412  -140.76326   0.05449    42   %  5.2821
    42.000     126  -164.71386   23.88732  -140.82654  -0.00877    43   %  5.4884
    43.000     130  -164.66887   23.60945  -141.05942  -0.24164    44   %  5.6933
    44.000     133  -164.56376   23.75645  -140.80731   0.01049    45   %  5.8960
    45.000     137  -164.60996   23.76224  -140.84772  -0.02990    46   %  6.0950
    46.000     141  -164.61540   23.78925  -140.82615  -0.00832    47   %  6.2889
    47.000     146  -164.49022   23.66370  -140.82652  -0.00867    48   %  6.4763
    48.000     150  -164.32208   23.44364  -140.87844  -0.06057    49   %  6.6557
    49.000     154  -164.30898   23.48361  -140.82538  -0.00749    50   %  6.8257
    50.000     157  -164.36266   23.53287  -140.82979  -0.01189    51   %  6.9849
    51.000     159  -164.74283   23.91697  -140.82586  -0.00794    52   %  7.1319
    52.000     163  -165.23590   24.39545  -140.84045  -0.02251    53   %  7.2664
    53.000     166  -165.54725   24.73917  -140.80808   0.00987    54   %  7.3888
    54.000     170  -165.98351   25.14623  -140.83728  -0.01931    55   %  7.4998
    55.000     173  -166.47906   25.66125  -140.81781   0.00018    56   %  7.6016
    56.000     177  -166.97454   26.13325  -140.84129  -0.02329    57   %  7.6973
    57.000     182  -167.47136   26.61184  -140.85952  -0.04150    58   %  7.7910
    58.000     187  -167.55532   26.72849  -140.82684  -0.00880    59   %  7.8876
    59.000     192  -167.30284   26.48888  -140.81396   0.00410    60   %  7.9913
    60.000     196  -166.71494   25.87101  -140.84393  -0.02585    61   %  8.1050
    61.000     199  -166.32336   25.46197  -140.86139  -0.04330    62   %  8.2297
    62.000     202  -166.00457   25.18314  -140.82143  -0.00332    63   %  8.3651
    63.000     206  -165.97096   25.14972  -140.82124  -0.00311    64   %  8.5085
    64.000     211  -165.82950   25.04081  -140.78869   0.02946    65   %  8.6575
    65.000     216  -165.68206   24.79290  -140.88917  -0.07100    66   %  8.8103
    66.000     221  -165.34516   24.53982  -140.80535   0.01284    67   %  8.9667
    67.000     225  -165.21427   24.39570  -140.81857  -0.00037    68   %  9.1267
    68.000     229  -165.32965   24.50000  -140.82964  -0.01143    69   %  9.2917
    69.000     233  -165.57859   24.74122  -140.83737  -0.01913    70   %  9.4631
    70.000     238  -165.63927   24.83621  -140.80306   0.01519    71   %  9.6421
    71.000     243  -165.36954   24.61821  -140.75133   0.06694    72   %  9.8293
    72.000     248  -164.84421   24.01676  -140.82745  -0.00916    73   % 10.0244
    73.000     252  -164.31963   23.49224  -140.82739  -0.00909    74   % 10.2265
    74.000     256  -164.02763   23.18391  -140.84371  -0.02540    75   % 10.4338
    75.000     260  -163.87775   23.04007  -140.83768  -0.01935    76   % 10.6439
    76.000     264  -163.71085   22.85713  -140.85371  -0.03537    77   % 10.8541
    77.000     267  -163.53178   22.69156  -140.84022  -0.02185    78   % 11.0619
    78.000     270  -163.45170   22.64578  -140.80592   0.01246    79   % 11.2654
    79.000     273  -163.58506   22.77515  -140.80991   0.00849    80   % 11.4633
    80.000     276  -164.08309   23.29356  -140.78954   0.02888    81   % 11.6544
    81.000     279  -164.90796   24.06882  -140.83914  -0.02072    82   % 11.8382
    82.000     284  -165.57827   24.73090  -140.84736  -0.02892    83   % 12.0144
    83.000     289  -166.02806   25.18655  -140.84151  -0.02305    84   % 12.1829
    84.000     294  -166.15681   25.37963  -140.77718   0.04130    85   % 12.3434
    85.000     298  -166.35680   25.51386  -140.84294  -0.02445    86   % 12.4957
    86.000     301  -166.59164   25.79505  -140.79659   0.02193    87   % 12.6408
    87.000     305  -166.99847   26.13972  -140.85875  -0.04022    88   % 12.7800
    88.000     310  -167.20557   26.39231  -140.81326   0.00529    89   % 12.9153
    89.000     314  -167.24528   26.41833  -140.82696  -0.00839    90   % 13.0489


 GRADIENT CONSTANT AND SMALL -- ASSUME ALL MOTION STOPPED
 TO CONTINUE, USE KEYWORD 'GNORM=0'
           INITIAL VELOCITY IN DRC (Angstroms/Femtosecond)
        -0.00046         0.00023        -0.00466
        -0.00084        -0.00024         0.07791
         0.00034        -0.00039        -0.00448
         0.00639        -0.03641         0.00394
         0.01298        -0.00339        -0.01019
         0.00126         0.00162        -0.00277
         0.01160         0.00240        -0.00645
        -0.00618         0.00137        -0.00509
        -0.00554         0.00245        -0.00679
        -0.02785         0.00169         0.01245
         0.01239         0.01067        -0.00939
         0.00345        -0.00338        -0.00890
        -0.00151         0.00245        -0.00372
         0.00073        -0.00210        -0.00770
        -0.02595         0.02474        -0.01519
        -0.01343         0.03824         0.00078
        -0.00914        -0.04196        -0.67161
 THE VIBRATIONAL FREQUENCY ( -1166.90CM(-1)) IS TOO SMALL
 FOR ONE QUANTUM TO BE USED
 INSTEAD 0.3KCAL/MOLE WILL BE USED TO START THE IRC

 TIME PRIORITY, INTERVAL = 1.00 FEMTOSECONDS



 FEMTOSECONDS  POINT  POTENTIAL + KINETIC  =   TOTAL     ERROR    REF%   MOVEMENT
     0.000       1  -141.11738    0.30000  -140.81738   0.00000     1   %  0.0000
     1.000       1  -141.14613    0.22985  -140.91628  -0.09890     2   %  0.0198
     2.000       1  -141.18210    0.28834  -140.89377  -0.07639     3   %  0.0419
     3.000       1  -141.22530    0.47545  -140.74986   0.06753     4   %  0.0664
     4.000       4  -141.28288    0.53381  -140.74907   0.06831     5   %  0.0991
     5.000       4  -141.50995    0.66079  -140.84916  -0.03178     6   %  0.1346
     6.000       6  -141.87036    1.03755  -140.83281  -0.01543     7   %  0.1736
     7.000       7  -142.32076    1.54014  -140.78061   0.03677     8   %  0.2213
     8.000       8  -142.92730    2.22202  -140.70528   0.11211     9   %  0.2782
     9.000      10  -143.95519    3.13653  -140.81866  -0.00127    10   %  0.3449
    10.000      12  -145.31065    4.45092  -140.85973  -0.04234    11   %  0.4225
    11.000      14  -146.94467    6.06920  -140.87547  -0.05807    12   %  0.5120
    12.000      16  -148.54619    7.68077  -140.86542  -0.04802    13   %  0.6129
    13.000      19  -150.19808    9.35110  -140.84698  -0.02957    14   %  0.7221
    14.000      22  -151.73040   10.88222  -140.84818  -0.03077    15   %  0.8380
    15.000      24  -153.31864   12.52042  -140.79823   0.01919    16   %  0.9587
    16.000      26  -155.08968   14.15066  -140.93903  -0.12160    17   %  1.0844
    17.000      30  -156.41684   15.57526  -140.84158  -0.02414    18   %  1.2173
    18.000      34  -157.55302   16.79106  -140.76196   0.05549    19   %  1.3592
    19.000      39  -158.11961   17.29360  -140.82601  -0.00854    20   %  1.5111
    20.000      43  -158.93288   18.10304  -140.82984  -0.01236    21   %  1.6727
    21.000      47  -160.03369   19.21971  -140.81398   0.00351    22   %  1.8437
    22.000      52  -161.24858   20.42998  -140.81860  -0.00110    23   %  2.0221
    23.000      57  -162.55430   21.74199  -140.81231   0.00521    24   %  2.2065
    24.000      63  -163.62634   22.75509  -140.87125  -0.05372    25   %  2.3968
    25.000      68  -164.15743   23.35289  -140.80454   0.01301    26   %  2.5923
    26.000      73  -164.71297   23.89305  -140.81992  -0.00236    27   %  2.7918
    27.000      76  -165.27317   24.56521  -140.70796   0.10962    28   %  2.9944
    28.000      80  -166.61069   25.79776  -140.81292   0.00468    29   %  3.1983
    29.000      86  -168.02269   27.20060  -140.82209  -0.00447    30   %  3.4031
    30.000      92  -169.01040   28.20337  -140.80703   0.01061    31   %  3.6076
    31.000      98  -169.59737   28.76763  -140.82973  -0.01208    32   %  3.8103
    32.000     104  -169.82256   29.00792  -140.81464   0.00304    33   %  4.0102
    33.000     109  -169.97149   29.15906  -140.81243   0.00527    34   %  4.2074
    34.000     113  -170.16719   29.33963  -140.82756  -0.00984    35   %  4.4031
    35.000     118  -170.37248   29.54714  -140.82533  -0.00759    36   %  4.5996
    36.000     124  -170.37692   29.54116  -140.83576  -0.01800    37   %  4.7992
    37.000     129  -169.80706   28.97539  -140.83167  -0.01389    38   %  5.0030
    38.000     133  -169.13851   28.31288  -140.82563  -0.00783    39   %  5.2098
    39.000     137  -168.73153   27.88589  -140.84564  -0.02782    40   %  5.4174
    40.000     140  -168.67737   27.83521  -140.84216  -0.02432    41   %  5.6224
    41.000     144  -168.84873   28.01947  -140.82926  -0.01140    42   %  5.8211
    42.000     149  -168.95252   28.12626  -140.82626  -0.00839    43   %  6.0097
    43.000     154  -168.92463   28.11327  -140.81136   0.00654    44   %  6.1850
    44.000     159  -168.98104   28.20192  -140.77911   0.03880    45   %  6.3447
    45.000     164  -169.13446   28.32424  -140.81022   0.00772    46   %  6.4880
    46.000     169  -169.44413   28.62188  -140.82225  -0.00429    47   %  6.6148
    47.000     174  -169.83006   29.01977  -140.81029   0.00768    48   %  6.7266
    48.000     179  -169.89589   29.11771  -140.77818   0.03981    49   %  6.8258
    49.000     184  -169.96351   29.17249  -140.79102   0.02699    50   %  6.9151
    50.000     188  -169.85820   29.04855  -140.80965   0.00839    51   %  6.9976
    51.000     192  -170.07718   29.23921  -140.83797  -0.01991    52   %  7.0751
    52.000     195  -170.60879   29.79012  -140.81868  -0.00060    53   %  7.1492
    53.000     198  -171.37956   30.54798  -140.83158  -0.01348    54   %  7.2207
    54.000     203  -172.18950   31.37255  -140.81696   0.00116    55   %  7.2904
    55.000     209  -172.71757   31.86490  -140.85267  -0.03453    56   %  7.3599
    56.000     214  -173.01050   32.18841  -140.82209  -0.00393    57   %  7.4307
    57.000     220  -173.19189   32.32116  -140.87073  -0.05254    58   %  7.5042
    58.000     224  -173.00946   32.23234  -140.77712   0.04109    59   %  7.5821
    59.000     229  -172.77355   31.95603  -140.81751   0.00072    60   %  7.6655
    60.000     234  -172.56156   31.70303  -140.85853  -0.04028    61   %  7.7562
    61.000     238  -172.09028   31.24824  -140.84204  -0.02376    62   %  7.8566
    62.000     242  -171.35467   30.53400  -140.82067  -0.00237    63   %  7.9679
    63.000     247  -170.78088   29.93256  -140.84832  -0.03000    64   %  8.0890
    64.000     251  -170.30756   29.49478  -140.81278   0.00556    65   %  8.2176
    65.000     256  -170.04024   29.21274  -140.82750  -0.00915    66   %  8.3499
    66.000     261  -169.84172   29.04538  -140.79635   0.02203    67   %  8.4824
    67.000     266  -169.65859   28.83291  -140.82568  -0.00729    68   %  8.6122
    68.000     271  -169.66836   28.87113  -140.79723   0.02118    69   %  8.7378
    69.000     276  -169.59318   28.80943  -140.78375   0.03469    70   %  8.8592
    70.000     280  -169.74380   28.98499  -140.75881   0.05965    71   %  8.9774
    71.000     285  -169.84033   29.01215  -140.82818  -0.00970    72   %  9.0941
    72.000     290  -169.78136   28.96608  -140.81528   0.00321    73   %  9.2119
    73.000     296  -169.39370   28.57985  -140.81385   0.00467    74   %  9.3343
    74.000     302  -168.52138   27.68439  -140.83698  -0.01845    75   %  9.4650
    75.000     307  -167.59376   26.78011  -140.81365   0.00491    76   %  9.6071
    76.000     311  -166.91059   26.11395  -140.79663   0.02194    77   %  9.7626
    77.000     314  -166.65944   25.84287  -140.81656   0.00203    78   %  9.9314
    78.000     317  -166.94866   26.10216  -140.84649  -0.02788    79   % 10.1115
    79.000     322  -167.49713   26.67757  -140.81957  -0.00094    80   % 10.2991
    80.000     327  -168.07048   27.26831  -140.80217   0.01648    81   % 10.4889
    81.000     333  -168.67430   27.84479  -140.82951  -0.01084    82   % 10.6752
    82.000     338  -169.13121   28.35854  -140.77267   0.04601    83   % 10.8535
    83.000     343  -169.67427   28.83588  -140.83839  -0.01968    84   % 11.0208
    84.000     349  -170.26031   29.42918  -140.83113  -0.01241    85   % 11.1775
    85.000     355  -170.43040   29.58690  -140.84351  -0.02476    86   % 11.3265
    86.000     360  -170.12154   29.33300  -140.78854   0.03022    87   % 11.4715
    87.000     365  -169.48676   28.65736  -140.82940  -0.01061    88   % 11.6160
    88.000     369  -168.72800   27.91273  -140.81527   0.00354    89   % 11.7621
    89.000     372  -168.23268   27.46565  -140.76703   0.05180    90   % 11.9103
    90.000     376  -168.13938   27.30091  -140.83846  -0.01962    91   % 12.0599
    91.000     381  -168.11020   27.29414  -140.81607   0.00280    92   % 12.2092
    92.000     387  -167.92905   27.14442  -140.78464   0.03424    93   % 12.3561
    93.000     393  -167.57237   26.75360  -140.81877   0.00013    94   % 12.4986
    94.000     398  -167.18838   26.34185  -140.84653  -0.02761    95   % 12.6352
    95.000     403  -166.88103   26.06810  -140.81293   0.00601    96   % 12.7656
    96.000     407  -166.72659   25.90485  -140.82174  -0.00279    97   % 12.8906
    97.000     412  -166.47656   25.63921  -140.83735  -0.01837    98   % 13.0128
    98.000     417  -165.96151   25.16698  -140.79453   0.02446    99   % 13.1355
    99.000     422  -165.18356   24.35856  -140.82500  -0.00599   100   % 13.2617



 **********************
 *                    *
 * JOB ENDED NORMALLY *
 *                    *
 **********************



 TOTAL JOB TIME:            11.70 SECONDS

 == MOPAC DONE ==
