 *******************************************************************************
 ** Site#: 10005        For non-commercial use only     Version 15.309W 64BITS**
 *******************************************************************************
 ** Cite this work as:                                                        **
 **                                                                           **
 ** (a) MOPAC2012, James J. P. Stewart, Stewart Computational Chemistry,      **
 **  Version 15.309W web: HTTP://OpenMOPAC.net         Days remaining: 365    **
 **                                                                           **
 **                                 AND                                       **
 **                                                                           **
 ** (b) Maia, J.D.C., et al., J. Chem. Theory Comput. 2012, 8, 3072-3081.     **
 **                DOI: 10.1021/ct3004645.                                    **
 *******************************************************************************
 **                                                                           **
 **                                MOPAC2012                                  **
 **                                                                           **
 *******************************************************************************

                              PM7 CALCULATION RESULTS


 *******************************************************************************
 *  CALCULATION DONE:                                Thu Nov 05 12:24:10 2015  *
 *  GEO_DAT    - DATA SET GEOMETRY IS IN FILE "STEP_2_3.ARC"
 *  EPS= 78.40 - USE ANDREAS KLAMT'S COSMO IMPLICIT SOLVATION MODEL
 *  TS         - USE EF ROUTINE FOR TS SEARCH
 *  T=         - A TIME OF 172800.0 SECONDS REQUESTED
 *  DUMP=N     - RESTART FILE WRITTEN EVERY  7200.000 SECONDS
 *******************************************************************************
TS geo_dat="Step_2_3.arc" eps=78.4 HTML
 Transition state for Step 2 to Step 3

   ATOM                 CHEMICAL                   X               Y               Z
  NUMBER                 SYMBOL               (ANGSTROMS)     (ANGSTROMS)     (ANGSTROMS)
 
     1       C(HETATM    1  C1  HET A   3)   -0.07683328     -0.00606870     -0.04381540   
     2       C(HETATM    2  C2  HET A   3)    1.28833238  *   0.21714204  *   0.53069205  *
     3       O(HETATM    3  O1  HET A   3)    2.03858826      1.17322249      0.32908578   
     4       O(HETATM    4  O2  HET A   3)    1.98555698  *  -1.16335388  *   0.44493036  *
     5       C(HETATM    5  C3  HET A   3)    3.38131874     -1.18143643      0.11319077   
     6       C(HETATM    6  C4  HET A   3)    3.74139100     -2.65019450     -0.02901221   
     7       H(HETATM    7 1H1  HET A   3)   -0.02783825     -0.45904355     -1.04519013   
     8       H(HETATM    8 2H1  HET A   3)   -0.68856805     -0.67631171      0.58187469   
     9       H(HETATM    9 3H1  HET A   3)   -0.61964541      0.94751594     -0.14056488   
    10       H(HETATM   10 1H3  HET A   3)    3.49563865     -0.61937809     -0.83122671   
    11       H(HETATM   11 2H3  HET A   3)    3.94582022     -0.67127925      0.91332436   
    12       H(HETATM   12 1H4  HET A   3)    3.45619409     -3.22806116      0.85973318   
    13       H(HETATM   13 2H4  HET A   3)    3.24220426     -3.11398578     -0.88897891   
    14       H(HETATM   14 3H4  HET A   3)    4.82299140     -2.77758469     -0.16929052   
    15       H(HETATM   15 1H   HOH A   5)    1.70589433      0.44677040      2.62313997   
    16       O(HETATM   16  O   HOH A   5)    1.12388424  *  -0.10121705  *   2.04971634  *
    17       H(HETATM   17 2H   HOH A   5)    1.78642259  *  -1.21057849  *   1.73299611  *
 

     ===================== shared-memory parallel CPU Section ======================
     **                                                                           **
     **  MOPAC calculations will run in shared-memory parallel CPUs               **
     **                                                                           **
     **  Number of Threads =  4                                                   **
     **                                                                           **
     **                                                                           **
     **  For information on this work, see:                                       **
     **                                                                           **
     **  Maia, J.D.C., et al., J. Chem. Theory Comput. 2012, 8, 3072-3081.        **
     **        DOI: 10.1021/ct3004645.                                            **
     **                                                                           **
     ===================== shared-memory parallel CPU Section ======================
      


 General Reference for PM7:
 "Optimization of Parameters for Semiempirical Methods VI: More Modifications to the 
 NDDO Approximations and Re-optimization of Parameters", J. J. P. Stewart, J. Mol. Mod., 1:32, 19 (2013)
 http://www.springerlink.com/openurl.asp?genre=article&id=doi:10.1007/s00894-012-1667-x

           Empirical Formula: C4 H10 O3  =    17 atoms



      MOLECULAR POINT GROUP   :   C1  


      RHF CALCULATION, NO. OF DOUBLY OCCUPIED LEVELS =   22

      Transition state refinement using EF

     GRADIENT =  0.90791  IS LESS THAN CUTOFF =  1.00000



 -------------------------------------------------------------------------------
TS geo_dat="Step_2_3.arc" eps=78.4 HTML
 Transition state for Step 2 to Step 3



     GRADIENTS WERE INITIALLY ACCEPTABLY SMALL                
     SCF FIELD WAS ACHIEVED                                   


                              PM7 CALCULATION
                                                       MOPAC2012 (Version: 15.309W)
                                                       Thu Nov 05 12:24:10 2015
                                                       No. of days left = 365




          FINAL HEAT OF FORMATION =       -141.11738 KCAL/MOL =    -590.43512 KJ/MOL
          VAN DER WAALS AREA      =        145.70 SQUARE ANGSTROMS


          TOTAL ENERGY            =      -1512.30799 EV
          ELECTRONIC ENERGY       =      -1963.54372 EV  POINT GROUP:     C1  
          CORE-CORE REPULSION     =        451.23573 EV
          DIELECTRIC ENERGY       =         -0.75831 EV
          COSMO AREA              =        145.70 SQUARE ANGSTROMS
          COSMO VOLUME            =        135.46 CUBIC ANGSTROMS

          GRADIENT NORM           =          0.90791
          IONIZATION POTENTIAL    =         11.081717 EV
          HOMO LUMO ENERGIES (EV) =        -11.082  1.028
          NO. OF FILLED LEVELS    =         22
          MOLECULAR WEIGHT        =        106.121

          MOLECULAR DIMENSIONS (Angstroms)

            Atom       Atom       Distance
            H    14    H     9     6.59541
            H    15    H    13     4.06478
            H    10    H     8     2.78633


          SCF CALCULATIONS        =          2
 
          WALL-CLOCK TIME         =          0.031 SECONDS
          COMPUTATION TIME        =          0.078 SECONDS




   ATOM                 CHEMICAL                   X               Y               Z
  NUMBER                 SYMBOL               (ANGSTROMS)     (ANGSTROMS)     (ANGSTROMS)
 
     1       C(HETATM    1  C1  HET A   3)   -0.07683328     -0.00606870     -0.04381540   
     2       C(HETATM    2  C2  HET A   3)    1.28833238  *   0.21714204  *   0.53069205  *
     3       O(HETATM    3  O1  HET A   3)    2.03858826      1.17322249      0.32908578   
     4       O(HETATM    4  O2  HET A   3)    1.98555698  *  -1.16335388  *   0.44493036  *
     5       C(HETATM    5  C3  HET A   3)    3.38131874     -1.18143643      0.11319077   
     6       C(HETATM    6  C4  HET A   3)    3.74139100     -2.65019450     -0.02901221   
     7       H(HETATM    7 1H1  HET A   3)   -0.02783825     -0.45904355     -1.04519013   
     8       H(HETATM    8 2H1  HET A   3)   -0.68856805     -0.67631171      0.58187469   
     9       H(HETATM    9 3H1  HET A   3)   -0.61964541      0.94751594     -0.14056488   
    10       H(HETATM   10 1H3  HET A   3)    3.49563865     -0.61937809     -0.83122671   
    11       H(HETATM   11 2H3  HET A   3)    3.94582022     -0.67127925      0.91332436   
    12       H(HETATM   12 1H4  HET A   3)    3.45619409     -3.22806116      0.85973318   
    13       H(HETATM   13 2H4  HET A   3)    3.24220426     -3.11398578     -0.88897891   
    14       H(HETATM   14 3H4  HET A   3)    4.82299140     -2.77758469     -0.16929052   
    15       H(HETATM   15 1H   HOH A   5)    1.70589433      0.44677040      2.62313997   
    16       O(HETATM   16  O   HOH A   5)    1.12388424  *  -0.10121705  *   2.04971634  *
    17       H(HETATM   17 2H   HOH A   5)    1.78642259  *  -1.21057849  *   1.73299611  *

                             CARTESIAN COORDINATES

   1    C       -0.076833280    -0.006068700    -0.043815400
   2    C        1.288332380     0.217142040     0.530692050
   3    O        2.038588260     1.173222490     0.329085780
   4    O        1.985556980    -1.163353880     0.444930360
   5    C        3.381318740    -1.181436430     0.113190770
   6    C        3.741391000    -2.650194500    -0.029012210
   7    H       -0.027838250    -0.459043550    -1.045190130
   8    H       -0.688568050    -0.676311710     0.581874690
   9    H       -0.619645410     0.947515940    -0.140564880
  10    H        3.495638650    -0.619378090    -0.831226710
  11    H        3.945820220    -0.671279250     0.913324360
  12    H        3.456194090    -3.228061160     0.859733180
  13    H        3.242204260    -3.113985780    -0.888978910
  14    H        4.822991400    -2.777584690    -0.169290520
  15    H        1.705894330     0.446770400     2.623139970
  16    O        1.123884240    -0.101217050     2.049716340
  17    H        1.786422590    -1.210578490     1.732996110


           Empirical Formula: C4 H10 O3  =    17 atoms



      MOLECULAR POINT GROUP   :   C1  


                  EIGENVALUES  
 -30.82708 -29.15369 -28.43851 -26.87532 -25.93523 -21.55251 -20.62995 -18.11720
 -17.44331 -16.55363 -15.78860 -15.24147 -14.84853 -14.25486 -13.76187 -13.55493
 -13.14517 -12.71677 -12.52565 -11.47099 -11.20793 -11.08172   1.02751   2.08570
   3.14622   3.58180   3.87046   4.30449   4.95656   5.29862   5.39547   5.45339
   5.63136   5.77958   5.85540   5.90778   6.59598   6.87343


              NET ATOMIC CHARGES AND DIPOLE CONTRIBUTIONS

  ATOM NO.                 TYPE                        CHARGE      No. of ELECS.   s-Pop       p-Pop       
    1          C(HETATM    1  C1  HET A   3)          -0.517426        4.5174     1.06219     3.45524
    2          C(HETATM    2  C2  HET A   3)           0.790063        3.2099     1.10135     2.10859
    3          O(HETATM    3  O1  HET A   3)          -0.784651        6.7847     1.87748     4.90718
    4          O(HETATM    4  O2  HET A   3)          -0.546740        6.5467     1.88153     4.66521
    5          C(HETATM    5  C3  HET A   3)           0.016549        3.9835     1.08915     2.89431
    6          C(HETATM    6  C4  HET A   3)          -0.481784        4.4818     1.05613     3.42566
    7          H(HETATM    7 1H1  HET A   3)           0.191146        0.8089     0.80885
    8          H(HETATM    8 2H1  HET A   3)           0.192849        0.8072     0.80715
    9          H(HETATM    9 3H1  HET A   3)           0.192363        0.8076     0.80764
   10          H(HETATM   10 1H3  HET A   3)           0.143285        0.8567     0.85672
   11          H(HETATM   11 2H3  HET A   3)           0.137269        0.8627     0.86273
   12          H(HETATM   12 1H4  HET A   3)           0.163477        0.8365     0.83652
   13          H(HETATM   13 2H4  HET A   3)           0.160731        0.8393     0.83927
   14          H(HETATM   14 3H4  HET A   3)           0.168023        0.8320     0.83198
   15          H(HETATM   15 1H   HOH A   5)           0.383068        0.6169     0.61693
   16          O(HETATM   16  O   HOH A   5)          -0.690498        6.6905     1.86306     4.82744
   17          H(HETATM   17 2H   HOH A   5)           0.482277        0.5177     0.51772
 DIPOLE           X         Y         Z       TOTAL
 POINT-CHG.     0.224    -4.357     1.165     4.515
 HYBRID         0.223     0.005     0.487     0.536
 SUM            0.447    -4.352     1.652     4.676


          ATOMIC ORBITAL ELECTRON POPULATIONS

                   Atom                  s        px        py        pz   
   C(HETATM    1  C1  HET A   3)   1.06219   1.05707   1.21327   1.18490
   C(HETATM    2  C2  HET A   3)   1.10135   0.79258   0.67555   0.64046
   O(HETATM    3  O1  HET A   3)   1.87748   1.64439   1.48785   1.77494
   O(HETATM    4  O2  HET A   3)   1.88153   1.37267   1.59245   1.70009
   C(HETATM    5  C3  HET A   3)   1.08915   0.75649   1.01264   1.12518
   C(HETATM    6  C4  HET A   3)   1.05613   1.17834   1.05037   1.19694
   H(HETATM    7 1H1  HET A   3)   0.80885
   H(HETATM    8 2H1  HET A   3)   0.80715
   H(HETATM    9 3H1  HET A   3)   0.80764
   H(HETATM   10 1H3  HET A   3)   0.85672
   H(HETATM   11 2H3  HET A   3)   0.86273
   H(HETATM   12 1H4  HET A   3)   0.83652
   H(HETATM   13 2H4  HET A   3)   0.83927
   H(HETATM   14 3H4  HET A   3)   0.83198
   H(HETATM   15 1H   HOH A   5)   0.61693
   O(HETATM   16  O   HOH A   5)   1.86306   1.69495   1.63322   1.49926
   H(HETATM   17 2H   HOH A   5)   0.51772
 *******************************************************************************
 ** Site#: 10005        For non-commercial use only     Version 15.309W 64BITS**
 *******************************************************************************
 ** Cite this work as:                                                        **
 **                                                                           **
 ** (a) MOPAC2012, James J. P. Stewart, Stewart Computational Chemistry,      **
 **  Version 15.309W web: HTTP://OpenMOPAC.net         Days remaining: 365    **
 **                                                                           **
 **                                 AND                                       **
 **                                                                           **
 ** (b) Maia, J.D.C., et al., J. Chem. Theory Comput. 2012, 8, 3072-3081.     **
 **                DOI: 10.1021/ct3004645.                                    **
 *******************************************************************************
 **                                                                           **
 **                                MOPAC2012                                  **
 **                                                                           **
 *******************************************************************************

                              PM7 CALCULATION RESULTS


 *******************************************************************************
 *  CALCULATION DONE:                                Thu Nov 05 12:24:10 2015  *
 *  EPS= 78.40 - USE ANDREAS KLAMT'S COSMO IMPLICIT SOLVATION MODEL
 *  OLDGEO     - PREVIOUS GEOMETRY TO BE USED
 *  FORCE      - FORCE CALCULATION SPECIFIED
 *  T=         - A TIME OF 172800.0 SECONDS REQUESTED
 *  DUMP=N     - RESTART FILE WRITTEN EVERY  7200.000 SECONDS
 *******************************************************************************
Oldgeo FORCE  EPS=78.4

   ATOM                 CHEMICAL                   X               Y               Z
  NUMBER                 SYMBOL               (ANGSTROMS)     (ANGSTROMS)     (ANGSTROMS)
 
     1       C(HETATM    1  C1  HET A   3)   -0.07683328     -0.00606870     -0.04381540   
     2       C(HETATM    2  C2  HET A   3)    1.28833238  *   0.21714204  *   0.53069205  *
     3       O(HETATM    3  O1  HET A   3)    2.03858826      1.17322249      0.32908578   
     4       O(HETATM    4  O2  HET A   3)    1.98555698  *  -1.16335388  *   0.44493036  *
     5       C(HETATM    5  C3  HET A   3)    3.38131874     -1.18143643      0.11319077   
     6       C(HETATM    6  C4  HET A   3)    3.74139100     -2.65019450     -0.02901221   
     7       H(HETATM    7 1H1  HET A   3)   -0.02783825     -0.45904355     -1.04519013   
     8       H(HETATM    8 2H1  HET A   3)   -0.68856805     -0.67631171      0.58187469   
     9       H(HETATM    9 3H1  HET A   3)   -0.61964541      0.94751594     -0.14056488   
    10       H(HETATM   10 1H3  HET A   3)    3.49563865     -0.61937809     -0.83122671   
    11       H(HETATM   11 2H3  HET A   3)    3.94582022     -0.67127925      0.91332436   
    12       H(HETATM   12 1H4  HET A   3)    3.45619409     -3.22806116      0.85973318   
    13       H(HETATM   13 2H4  HET A   3)    3.24220426     -3.11398578     -0.88897891   
    14       H(HETATM   14 3H4  HET A   3)    4.82299140     -2.77758469     -0.16929052   
    15       H(HETATM   15  H   HOH A   5)    1.70589433      0.44677040      2.62313997   
    16       O(HETATM   16  O   HOH A   5)    1.12388424  *  -0.10121705  *   2.04971634  *
    17       H(HETATM   17 2H   HOH A   5)    1.78642259  *  -1.21057849  *   1.73299611  *
 

 General Reference for PM7:
 "Optimization of Parameters for Semiempirical Methods VI: More Modifications to the 
 NDDO Approximations and Re-optimization of Parameters", J. J. P. Stewart, J. Mol. Mod., 1:32, 19 (2013)
 http://www.springerlink.com/openurl.asp?genre=article&id=doi:10.1007/s00894-012-1667-x

           Empirical Formula: C4 H10 O3  =    17 atoms



      MOLECULAR POINT GROUP   :   C1  


      RHF CALCULATION, NO. OF DOUBLY OCCUPIED LEVELS =   22



          HEAT OF FORMATION =    -141.117381 KCALS/MOLE


          CARTESIAN COORDINATE DERIVATIVES

   NUMBER  ATOM         X            Y            Z

     1       C     -1.880743    -0.631312    -0.122259
     2       C     -0.336415    -0.096562     0.083829
     3       O      1.608504     2.062450     0.034184
     4       O      0.030815     0.413085    -0.185260
     5       C      1.137285    -0.060571    -2.012496
     6       C     -0.398688    -0.428474    -0.497139
     7       H     -0.596966    -0.149388     1.077144
     8       H      0.513808    -0.137815     0.114687
     9       H     -0.049210     0.043189    -0.580762
    10       H      0.410326    -0.093712    -0.507984
    11       H      0.243361    -0.211430     0.232576
    12       H     -0.108592     0.160029    -0.358011
    13       H      0.349455    -0.098756    -0.333847
    14       H     -0.379593    -0.031661     0.210038
    15       H     -0.382121    -0.177120     1.983984
    16       O     -0.119556    -0.482813     0.230218
    17       H     -0.041673    -0.079141     0.631096
 


          GRADIENT NORM =   5.02528


          TIME FOR SCF CALCULATION =    0.02

          TIME FOR DERIVATIVES     =    0.02

          MOLECULAR WEIGHT =  106.12



          ROTATIONAL CONSTANTS IN CM(-1)

          A =    0.14872434   B =    0.05351304   C =    0.05279885



           PRINCIPAL MOMENTS OF INERTIA IN UNITS OF 10**(-40)*GRAM-CM**2

          A =      188.2192   B =      523.1020   C =      530.1777


          ORIENTATION OF MOLECULE IN FORCE CALCULATION

    NO.       ATOM         X         Y         Z

     1          C      -1.9598    0.5997    0.6216
     2          C      -0.4619    0.5997    0.6216
     3          O       0.2870    1.5778    0.6216
     4          O      -0.0651   -0.5011   -0.3933
     5          C       1.0771   -0.2543   -1.2258
     6          C       1.1319   -1.4264   -2.1903
     7          H      -2.3667    0.7125   -0.3943
     8          H      -2.3772   -0.3340    1.0326
     9          H      -2.3495    1.4338    1.2263
    10          H       0.9028    0.7109   -1.7346
    11          H       1.9745   -0.1747   -0.5875
    12          H       1.1267   -2.3893   -1.6630
    13          H       0.2779   -1.4316   -2.8792
    14          H       2.0449   -1.3915   -2.7994
    15          H       0.7554   -0.2190    2.1879
    16          O      -0.0766   -0.4457    1.7145
    17          H       0.2404   -1.1994    0.6650


    FIRST DERIVATIVES WILL BE USED IN THE CALCULATION OF SECOND DERIVATIVES

          ESTIMATED TIME TO COMPLETE CALCULATION =        3.19 SECONDS

    FOR POINT-GROUP C1   THERE ARE   1 UNIQUE SYMMETRY FUNCTIONS.

 STEP:   1 TIME =     0.02 SECS, INTEGRAL =      0.02 TIME LEFT: 172799.95
 STEP:   2 TIME =     0.02 SECS, INTEGRAL =      0.03 TIME LEFT: 172799.94
 STEP:   3 TIME =     0.03 SECS, INTEGRAL =      0.06 TIME LEFT: 172799.91
 STEP:   4 TIME =     0.02 SECS, INTEGRAL =      0.08 TIME LEFT: 172799.89
 STEP:   5 TIME =     0.02 SECS, INTEGRAL =      0.09 TIME LEFT: 172799.88
 STEP:   6 TIME =     0.02 SECS, INTEGRAL =      0.11 TIME LEFT: 172799.86
 STEP:   7 TIME =     0.03 SECS, INTEGRAL =      0.14 TIME LEFT: 172799.83
 STEP:   8 TIME =     0.02 SECS, INTEGRAL =      0.16 TIME LEFT: 172799.81
 STEP:   9 TIME =     0.02 SECS, INTEGRAL =      0.17 TIME LEFT: 172799.80
 STEP:  10 TIME =     0.03 SECS, INTEGRAL =      0.20 TIME LEFT: 172799.77
 STEP:  11 TIME =     0.02 SECS, INTEGRAL =      0.22 TIME LEFT: 172799.75
 STEP:  12 TIME =     0.02 SECS, INTEGRAL =      0.23 TIME LEFT: 172799.73
 STEP:  13 TIME =     0.03 SECS, INTEGRAL =      0.27 TIME LEFT: 172799.70
 STEP:  14 TIME =     0.02 SECS, INTEGRAL =      0.28 TIME LEFT: 172799.69
 STEP:  15 TIME =     0.02 SECS, INTEGRAL =      0.30 TIME LEFT: 172799.67
 STEP:  16 TIME =     0.02 SECS, INTEGRAL =      0.31 TIME LEFT: 172799.66
 STEP:  17 TIME =     0.03 SECS, INTEGRAL =      0.34 TIME LEFT: 172799.62
 STEP:  18 TIME =     0.02 SECS, INTEGRAL =      0.36 TIME LEFT: 172799.61
 STEP:  19 TIME =     0.02 SECS, INTEGRAL =      0.38 TIME LEFT: 172799.59
 STEP:  20 TIME =     0.03 SECS, INTEGRAL =      0.41 TIME LEFT: 172799.56
 STEP:  21 TIME =     0.02 SECS, INTEGRAL =      0.42 TIME LEFT: 172799.55
 STEP:  22 TIME =     0.02 SECS, INTEGRAL =      0.44 TIME LEFT: 172799.53
 STEP:  23 TIME =     0.03 SECS, INTEGRAL =      0.47 TIME LEFT: 172799.50
 STEP:  24 TIME =     0.02 SECS, INTEGRAL =      0.48 TIME LEFT: 172799.48
 STEP:  25 TIME =     0.02 SECS, INTEGRAL =      0.50 TIME LEFT: 172799.47
 STEP:  26 TIME =     0.03 SECS, INTEGRAL =      0.53 TIME LEFT: 172799.44
 STEP:  27 TIME =     0.02 SECS, INTEGRAL =      0.55 TIME LEFT: 172799.42
 STEP:  28 TIME =     0.02 SECS, INTEGRAL =      0.56 TIME LEFT: 172799.41
 STEP:  29 TIME =     0.02 SECS, INTEGRAL =      0.58 TIME LEFT: 172799.39
 STEP:  30 TIME =     0.03 SECS, INTEGRAL =      0.61 TIME LEFT: 172799.36
 STEP:  31 TIME =     0.02 SECS, INTEGRAL =      0.62 TIME LEFT: 172799.34
 STEP:  32 TIME =     0.02 SECS, INTEGRAL =      0.64 TIME LEFT: 172799.33
 STEP:  33 TIME =     0.02 SECS, INTEGRAL =      0.66 TIME LEFT: 172799.31
 STEP:  34 TIME =     0.03 SECS, INTEGRAL =      0.69 TIME LEFT: 172799.28
 STEP:  35 TIME =     0.02 SECS, INTEGRAL =      0.70 TIME LEFT: 172799.27
 STEP:  36 TIME =     0.03 SECS, INTEGRAL =      0.73 TIME LEFT: 172799.23
 STEP:  37 TIME =     0.02 SECS, INTEGRAL =      0.75 TIME LEFT: 172799.22
 STEP:  38 TIME =     0.02 SECS, INTEGRAL =      0.77 TIME LEFT: 172799.20
 STEP:  39 TIME =     0.03 SECS, INTEGRAL =      0.80 TIME LEFT: 172799.17
 STEP:  40 TIME =     0.02 SECS, INTEGRAL =      0.81 TIME LEFT: 172799.16
 STEP:  41 TIME =     0.03 SECS, INTEGRAL =      0.84 TIME LEFT: 172799.12
 STEP:  42 TIME =     0.02 SECS, INTEGRAL =      0.86 TIME LEFT: 172799.11
 STEP:  43 TIME =     0.02 SECS, INTEGRAL =      0.88 TIME LEFT: 172799.09
 STEP:  44 TIME =     0.02 SECS, INTEGRAL =      0.89 TIME LEFT: 172799.08
 STEP:  45 TIME =     0.03 SECS, INTEGRAL =      0.92 TIME LEFT: 172799.05
 STEP:  46 TIME =     0.02 SECS, INTEGRAL =      0.94 TIME LEFT: 172799.03
 STEP:  47 TIME =     0.02 SECS, INTEGRAL =      0.95 TIME LEFT: 172799.02
 STEP:  48 TIME =     0.03 SECS, INTEGRAL =      0.98 TIME LEFT: 172798.98
 STEP:  49 TIME =     0.02 SECS, INTEGRAL =      1.00 TIME LEFT: 172798.97
 STEP:  50 TIME =     0.03 SECS, INTEGRAL =      1.03 TIME LEFT: 172798.94
 STEP:  51 TIME =     0.03 SECS, INTEGRAL =      1.06 TIME LEFT: 172798.91

(To convert to Hartree/Bohr^2, multiply by (10^(-21) x N x a0^2)/(4.184 x 627.51) =  0.0642)


           FORCE MATRIX IN MILLIDYNES/ANGSTROM


                  C  1       C  2       O  3       O  4       C  5       C  6
 ------------------------------------------------------------------------------
     C    1  11.361097
     C    2   3.177896  14.927392
     O    3   1.052374   9.801326  12.016497
     O    4   0.789565   1.362186   1.382860   7.847375
     C    5   0.118391   0.860216   0.141956   3.677498  11.937427
     C    6   0.054327   0.253343   0.078802   1.155972   3.212162  11.348396
     H    7   3.327743   0.763510   0.059225   0.022169   0.018159   0.009010
     H    8   3.316235   0.763461   0.055516   0.032717   0.017756   0.007794
     H    9   3.331336   0.793767   0.097373   0.053200   0.016880   0.006493
     H   10   0.013667   0.088876   0.025782   0.721968   3.302139   0.655477
     H   11   0.015215   0.082285   0.057993   0.702350   3.310282   0.659397
     H   12   0.006875   0.033859   0.011743   0.042438   0.693534   3.394912
     H   13   0.007911   0.035353   0.012338   0.031833   0.699406   3.384958
     H   14   0.006496   0.029548   0.008738   0.074119   0.680894   3.365660
     H   15   0.083554   0.812740   0.142574   0.172355   0.046121   0.019173
     O   16   0.832563   1.426601   1.454076   2.365486   0.257142   0.086909
     H   17   0.155478   1.790349   0.170007   1.379960   0.561833   0.070413


                  H  7       H  8       H  9       H 10       H 11       H 12
 ------------------------------------------------------------------------------
     H    7   4.138514
     H    8   0.447526   4.130831
     H    9   0.453591   0.443095   4.138155
     H   10   0.002868   0.002057   0.002109   4.162563
     H   11   0.003140   0.002447   0.002217   0.440346   4.174053
     H   12   0.001086   0.001455   0.000878   0.045918   0.012841   4.199437
     H   13   0.003208   0.001475   0.001036   0.015647   0.046543   0.459060
     H   14   0.001249   0.000813   0.001108   0.014282   0.013174   0.464903
     H   15   0.013108   0.012276   0.010024   0.006860   0.014875   0.008438
     O   16   0.055112   0.024374   0.036628   0.038253   0.025857   0.017545
     H   17   0.027767   0.021961   0.016310   0.068387   0.040724   0.034649


                  H 13       H 14       H 15       O 16       H 17
 ------------------------------------------------------------------
     H   13   4.187619
     H   14   0.456168   4.172536
     H   15   0.002250   0.002305   4.338290
     O   16   0.012851   0.010194   3.855078   6.219501
     H   17   0.018017   0.011608   0.329626   1.235795   2.501603


          HEAT OF FORMATION =    -141.117381 KCALS/MOLE

          ZERO POINT ENERGY      79.124 KCAL/MOL

         NOTE: SYSTEM IS NOT A GROUND STATE, THEREFORE ZERO POINT
         ENERGY IS NOT MEANINGFULL. ZERO POINT ENERGY PRINTED
         DOES NOT INCLUDE THE  2 IMAGINARY FREQUENCIES


           NORMAL COORDINATE ANALYSIS (Total motion = 1 Angstrom)


   Root No.       1         2         3         4         5         6         7         8

                 1 A       2 A       3 A       4 A       5 A       6 A       7 A       8 A   

               -1187.0     -27.6      91.4     130.9     142.3     178.9     298.0     323.1
  
           1    0.0003    0.0007    0.0035   -0.0049   -0.0055   -0.0035    0.0057    0.0055
           2   -0.0005    0.0161    0.0001   -0.0003    0.0160   -0.0258   -0.0062   -0.0221
           3    0.0051    0.0180   -0.0242    0.0180    0.0342    0.0010   -0.0607   -0.0145
           4    0.0009    0.0001    0.0037   -0.0052   -0.0053   -0.0019    0.0046    0.0070
           5    0.0003    0.0026    0.0001    0.0054   -0.0020    0.0209    0.0016   -0.0205
           6   -0.0762    0.0068    0.0019   -0.0067   -0.0016    0.0112    0.0138   -0.0131
           7   -0.0005    0.0118    0.0037   -0.0017   -0.0015   -0.0280    0.0105    0.0208
           8    0.0007   -0.0063    0.0001    0.0023   -0.0050    0.0371   -0.0026   -0.0257
           9    0.0039    0.0157    0.0142   -0.0133   -0.0229    0.0480    0.0251   -0.0475
          10   -0.0062   -0.0182    0.0151   -0.0105   -0.0296    0.0026   -0.0516   -0.0023
          11    0.0369    0.0145    0.0019    0.0003   -0.0025    0.0469   -0.0111    0.0183
          12   -0.0035   -0.0199    0.0087   -0.0090   -0.0192   -0.0326   -0.0011   -0.0042
          13   -0.0124   -0.0332    0.0030    0.0130    0.0098    0.0363   -0.0384    0.0190
          14    0.0028    0.0269    0.0022   -0.0138   -0.0118   -0.0215   -0.0075    0.0552
          15    0.0099   -0.0353   -0.0062    0.0172    0.0292   -0.0021    0.0269    0.0293
          16   -0.0010    0.0378   -0.0147    0.0071    0.0255   -0.0235    0.0024   -0.0500
          17   -0.0017   -0.0295   -0.0021   -0.0009    0.0116   -0.0407    0.0127    0.0240
          18    0.0027    0.0374   -0.0019    0.0015    0.0030    0.0137    0.0081    0.0719
          19   -0.0104   -0.0073    0.0226   -0.0224   -0.0328   -0.0014    0.0738    0.0106
          20   -0.0038    0.0465   -0.0276    0.1864   -0.0836   -0.0655    0.0067   -0.0204
          21    0.0060    0.0247   -0.0354    0.0474    0.0339   -0.0042   -0.0895   -0.0168
          22    0.0057   -0.0047   -0.0032    0.0046   -0.0072    0.0231   -0.0109    0.0087
          23   -0.0016    0.0086    0.0106   -0.0771    0.0639   -0.0274   -0.0183   -0.0262
          24    0.0053   -0.0038   -0.0072   -0.1459    0.1410    0.0243   -0.1073   -0.0206
          25    0.0045    0.0129   -0.0093    0.0078    0.0198   -0.0334   -0.0452   -0.0012
          26   -0.0030    0.0026    0.0154   -0.1112    0.0823   -0.0212   -0.0194   -0.0262
          27    0.0068    0.0450   -0.0541    0.1803   -0.0407   -0.0247   -0.0781   -0.0155
          28    0.0277   -0.0972   -0.0089    0.0472    0.0545    0.1112   -0.0283    0.0287
          29   -0.0021   -0.0160   -0.0008   -0.0023    0.0044   -0.0147   -0.0007    0.0540
          30   -0.0125   -0.0952   -0.0086    0.0275    0.0445   -0.0120    0.0343    0.0266
          31   -0.0122   -0.0362    0.0132    0.0014   -0.0140    0.0261   -0.0534    0.0119
          32   -0.0097    0.1244    0.0076   -0.0441   -0.0473   -0.0770   -0.0102    0.0497
          33    0.0100   -0.0432   -0.0221    0.0376    0.0676    0.0193    0.0498    0.0373
          34   -0.0000    0.0827    0.2105    0.0608    0.0876   -0.0535    0.0199   -0.0876
          35    0.0030    0.0025    0.0020   -0.0076   -0.0008   -0.0309    0.0021    0.0463
          36    0.0083    0.0960    0.0074   -0.0106   -0.0195    0.0310   -0.0115    0.1163
          37    0.0007    0.0447   -0.1426   -0.0234    0.0004   -0.0364    0.0137   -0.0774
          38   -0.0030   -0.1168   -0.1211   -0.0181   -0.0095   -0.0167    0.0044    0.0383
          39    0.0045    0.0294    0.1566    0.0394    0.0342    0.0295   -0.0056    0.1030
          40   -0.0008    0.0413   -0.1321   -0.0211    0.0015   -0.0329    0.0112   -0.0695
          41    0.0027   -0.0178    0.1142    0.0355    0.0660   -0.0872    0.0484   -0.0533
          42    0.0068    0.0432   -0.1710   -0.0387   -0.0301   -0.0019    0.0227    0.0424
          43    0.0327    0.0031   -0.0203    0.0123    0.0328    0.0395    0.1155   -0.0064
          44   -0.0369   -0.0335   -0.0006   -0.0007   -0.0283   -0.0363   -0.0007   -0.0151
          45    0.0064   -0.0163    0.0207   -0.0217   -0.0482   -0.0523   -0.0867   -0.0024
          46    0.0128    0.0003   -0.0118    0.0019    0.0068    0.0186    0.0572    0.0066
          47   -0.0371   -0.0202   -0.0025    0.0072   -0.0047   -0.0105    0.0138   -0.0220
          48   -0.0012   -0.0188    0.0065   -0.0069   -0.0167   -0.0304    0.0017   -0.0169
          49   -0.0011   -0.0058    0.0113   -0.0223   -0.0478   -0.0230   -0.0450    0.0044
          50    0.0367   -0.0011    0.0039   -0.0017   -0.0179    0.0096   -0.0181   -0.0172
          51    0.6678   -0.0341    0.0099   -0.0100   -0.0217   -0.0532    0.0055   -0.0593


   Root No.       9        10        11        12        13        14        15        16

                 9 A      10 A      11 A      12 A      13 A      14 A      15 A      16 A   

                 362.8     480.5     543.1     570.3     607.6     666.5     741.2     858.6
  
           1    0.0144    0.0559    0.0244    0.0138   -0.0476    0.0195   -0.0103   -0.0017
           2   -0.0733   -0.0058   -0.0052   -0.0020    0.0122    0.0070   -0.0083   -0.0006
           3    0.0109   -0.0041    0.0078   -0.0011    0.0012   -0.0167   -0.0145    0.0016
           4    0.0175    0.0523    0.0272    0.0100   -0.0472   -0.0016    0.0071   -0.0001
           5    0.0352    0.0122   -0.0308    0.0084    0.0896    0.0341   -0.0280   -0.0007
           6    0.0020    0.0222   -0.0407   -0.0269   -0.0101   -0.0996   -0.0531    0.0022
           7    0.0653   -0.0321   -0.0114    0.0041    0.0393   -0.0065    0.0036   -0.0007
           8   -0.0024    0.0784    0.0100    0.0158    0.0110    0.0213   -0.0115   -0.0002
           9   -0.0021   -0.0411    0.0460    0.0227    0.0007    0.0208    0.0038   -0.0005
          10   -0.0276   -0.0059    0.0145   -0.0243    0.0391   -0.0266    0.0022   -0.0072
          11    0.0225   -0.0082   -0.0517   -0.0212   -0.0431   -0.0264    0.0670    0.0055
          12   -0.0132    0.0290   -0.0011   -0.0012    0.0356   -0.0220    0.0714   -0.0116
          13   -0.0179   -0.0293   -0.0029   -0.0158   -0.0074    0.0177   -0.0158    0.0235
          14   -0.0066   -0.0120    0.0116   -0.0095   -0.0060    0.0096   -0.0226   -0.0165
          15    0.0001    0.0164    0.0098    0.0181    0.0193   -0.0140    0.0080    0.0228
          16    0.0079    0.0002   -0.0129   -0.0024   -0.0044    0.0002   -0.0005    0.0098
          17    0.0022    0.0045    0.0121    0.0044    0.0043    0.0077   -0.0073   -0.0093
          18   -0.0090    0.0025    0.0169    0.0094    0.0049    0.0084    0.0005    0.0085
          19   -0.0089    0.0995   -0.0389   -0.0278   -0.0855   -0.1274   -0.1003    0.0084
          20   -0.1439    0.0118    0.0001   -0.0165   -0.0495   -0.0223    0.0005    0.0019
          21    0.0139   -0.0208    0.0397    0.0162    0.0087    0.0424    0.0297   -0.0031
          22    0.1106    0.0517    0.0277    0.0461    0.0513    0.1044    0.0040   -0.0089
          23   -0.1106   -0.0165    0.0096   -0.0082   -0.0356   -0.0090    0.0067    0.0014
          24    0.0358   -0.0377    0.0445    0.0226    0.0130    0.0515    0.0342   -0.0033
          25   -0.0635    0.0361    0.0971    0.0255   -0.1445    0.0582    0.0742   -0.0043
          26   -0.1065   -0.0103    0.0066   -0.0078   -0.0378   -0.0109    0.0023    0.0014
          27    0.0013   -0.0143    0.0411    0.0152    0.0056    0.0408    0.0284   -0.0032
          28    0.0017   -0.0572   -0.0556    0.0037   -0.0691   -0.0025   -0.0303   -0.1218
          29   -0.0048   -0.0129    0.0083   -0.0003   -0.0122    0.0130   -0.0310   -0.1020
          30   -0.0056    0.0184    0.0185    0.0291    0.0243    0.0000   -0.0123   -0.1246
          31   -0.0262   -0.0208    0.0034   -0.0257    0.0194   -0.0052    0.0011    0.0026
          32   -0.0118    0.0095    0.0467   -0.0203    0.0337    0.0131   -0.0124    0.2049
          33    0.0138    0.0033   -0.0058    0.0371   -0.0248    0.0145   -0.0128   -0.0037
          34    0.0194    0.0126   -0.0269    0.0054   -0.0095   -0.0110    0.0421   -0.0493
          35   -0.0030   -0.0063    0.0187   -0.0054   -0.0006    0.0147   -0.0445   -0.0769
          36   -0.0199   -0.0180    0.0324   -0.0093   -0.0031    0.0270   -0.0769   -0.1415
          37    0.0182    0.0154   -0.0234   -0.0007   -0.0062   -0.0137    0.0393   -0.0469
          38   -0.0049    0.0003    0.0171    0.0055    0.0180    0.0063   -0.0074    0.1725
          39   -0.0209   -0.0159    0.0285    0.0060    0.0074    0.0211   -0.0488    0.0556
          40    0.0158    0.0124   -0.0200   -0.0010   -0.0049   -0.0109    0.0285   -0.0450
          41    0.0255    0.0359   -0.0136    0.0257    0.0084   -0.0289    0.0851    0.0138
          42    0.0031    0.0203    0.0085    0.0115    0.0068   -0.0106    0.0322   -0.0685
          43   -0.0395   -0.0152    0.0629   -0.2245    0.0541    0.0380    0.0179   -0.0116
          44   -0.0294   -0.1768   -0.0410    0.1853   -0.0696   -0.0185    0.0284    0.0006
          45    0.0204    0.0224   -0.1404    0.2645   -0.1141   -0.0200   -0.0682    0.0257
          46   -0.0510   -0.0255   -0.0271    0.0183    0.0119    0.0075    0.0050    0.0032
          47    0.0355   -0.0547    0.0520   -0.0083   -0.0345   -0.0372   -0.0045    0.0014
          48    0.0086   -0.0123   -0.0467   -0.0439   -0.0424    0.0920   -0.0167    0.0021
          49   -0.0765   -0.0702   -0.0739    0.1630    0.0323   -0.0475   -0.0159   -0.0237
          50    0.0131   -0.0675   -0.0679    0.0438    0.0099    0.0172   -0.0492   -0.0028
          51    0.0167   -0.0113    0.0354   -0.0311   -0.0098   -0.1545   -0.1306    0.0072


   Root No.      17        18        19        20        21        22        23        24

                17 A      18 A      19 A      20 A      21 A      22 A      23 A      24 A   

                 965.8    1004.5    1049.3    1055.2    1083.0    1099.7    1147.8    1158.3
  
           1    0.0375    0.0511   -0.0225   -0.0139    0.0004   -0.0352   -0.0017    0.0065
           2    0.0048    0.0221    0.0095   -0.0439   -0.0042    0.0242   -0.0015   -0.0049
           3   -0.0008    0.0191    0.0433    0.0145    0.0015   -0.0144    0.0080   -0.0072
           4   -0.0205   -0.0220    0.0169    0.0050   -0.0006    0.0363    0.0002   -0.0047
           5    0.0115    0.0008   -0.0126    0.0101    0.0011   -0.0304    0.0018    0.0005
           6    0.0047   -0.0060   -0.0397   -0.0050   -0.0060    0.0252   -0.0170    0.0111
           7   -0.0127   -0.0157    0.0034    0.0242    0.0000    0.0096    0.0015    0.0032
           8   -0.0151   -0.0167    0.0064    0.0295   -0.0009    0.0217    0.0009    0.0053
           9   -0.0015    0.0001    0.0067    0.0004    0.0013   -0.0033    0.0021   -0.0006
          10    0.0372   -0.0129   -0.0058    0.0006   -0.0051   -0.0023    0.0149   -0.0348
          11    0.0027    0.0063   -0.0074   -0.0074   -0.0080   -0.0107   -0.0028   -0.0112
          12   -0.0404    0.0208    0.0038   -0.0034    0.0158   -0.0019   -0.0011    0.0168
          13   -0.0302    0.0043    0.0191   -0.0060   -0.0154    0.0038   -0.0186    0.0548
          14   -0.0065    0.0028   -0.0011   -0.0011    0.0142    0.0123    0.0990    0.0168
          15    0.0199   -0.0044   -0.0161   -0.0029   -0.0283   -0.0190    0.0569    0.0150
          16   -0.0352    0.0163   -0.0172    0.0037    0.0137   -0.0036    0.0044   -0.0333
          17   -0.0068   -0.0013    0.0029    0.0019   -0.0083   -0.0062   -0.0952   -0.0089
          18    0.0309   -0.0102    0.0159    0.0043    0.0178    0.0122   -0.0531   -0.0274
          19    0.0137    0.1056    0.1755    0.0853    0.0169   -0.1212    0.0335   -0.0196
          20   -0.0032   -0.0378   -0.0098    0.0560    0.0045   -0.0332    0.0040   -0.0002
          21    0.0046   -0.0219   -0.0557   -0.0222   -0.0058    0.0303   -0.0101    0.0062
          22    0.0501    0.1256   -0.0482   -0.2271   -0.0213    0.1129   -0.0244    0.0005
          23   -0.0048   -0.0469   -0.0157    0.0673    0.0066   -0.0438    0.0054    0.0022
          24    0.0064   -0.0300   -0.0600   -0.0053   -0.0023    0.0039   -0.0057    0.0044
          25    0.0206   -0.1041   -0.1746    0.1053    0.0155   -0.0734   -0.0225    0.0405
          26   -0.0015   -0.0287   -0.0087    0.0473    0.0058   -0.0284   -0.0001    0.0040
          27    0.0067   -0.0261   -0.0642   -0.0156   -0.0012    0.0114   -0.0102    0.0085
          28    0.0309    0.0005    0.0108    0.0120    0.1408    0.0744    0.0204    0.0345
          29   -0.0137    0.0000   -0.0011    0.0005    0.0151    0.0080    0.1046   -0.0452
          30   -0.0273   -0.0024   -0.0147   -0.0055   -0.0617   -0.0429    0.0932   -0.0951
          31   -0.0009   -0.0192    0.0297   -0.0207   -0.0908   -0.0264   -0.0496    0.0139
          32   -0.0058   -0.0014   -0.0040   -0.0065   -0.0385   -0.0097    0.0306    0.1222
          33   -0.0107    0.0261   -0.0305    0.0210    0.0983    0.0293    0.0964    0.0319
          34    0.0508   -0.0238    0.0334   -0.0078   -0.0195    0.0051   -0.0065    0.0498
          35   -0.0670    0.0117   -0.0215   -0.0031   -0.0488   -0.0324   -0.0949    0.0205
          36   -0.1025    0.0175   -0.0342   -0.0058   -0.0741   -0.0495   -0.1003    0.0295
          37    0.0480   -0.0219    0.0307   -0.0073   -0.0165    0.0073   -0.0010    0.0484
          38   -0.0052    0.0219   -0.0178    0.0194    0.0935    0.0293   -0.0182   -0.1243
          39   -0.0634    0.0305   -0.0398    0.0134    0.0365   -0.0056   -0.0300   -0.1006
          40    0.0359   -0.0178    0.0197   -0.0063   -0.0230   -0.0015   -0.0055    0.0305
          41    0.2118   -0.0765    0.0853   -0.0047    0.0085    0.0467   -0.0091    0.0471
          42    0.1213   -0.0537    0.0536   -0.0093   -0.0371    0.0089   -0.0371    0.0553
          43    0.0230    0.0209   -0.0170    0.0250    0.0333    0.0113   -0.0261    0.0300
          44    0.0555    0.1699   -0.0336    0.2287   -0.1344    0.1364    0.0114   -0.0281
          45   -0.0628   -0.1321    0.0369   -0.1474   -0.0134   -0.0547    0.0407   -0.0493
          46   -0.0091   -0.0153    0.0036   -0.0156   -0.0058   -0.0056    0.0070   -0.0084
          47   -0.0034   -0.0093    0.0054   -0.0233    0.0082   -0.0122    0.0004   -0.0002
          48    0.0095   -0.0072    0.0023    0.0063   -0.0013    0.0039    0.0026   -0.0045
          49    0.0587    0.0387   -0.0355    0.0290    0.1598   -0.0307   -0.1026    0.1267
          50    0.0492    0.0102   -0.0284    0.0065    0.0647   -0.0524   -0.0589    0.0578
          51   -0.0081   -0.0063   -0.0369   -0.0041   -0.0126    0.0412   -0.0332    0.0240


   Root No.      25        26        27        28        29        30        31        32

                25 A      26 A      27 A      28 A      29 A      30 A      31 A      32 A   

                1168.2    1190.8    1229.6    1244.6    1260.7    1275.5    1312.9    1316.1
  
           1   -0.0074   -0.0263   -0.0091    0.0102    0.0021   -0.0016    0.0022    0.0029
           2    0.0038    0.0114   -0.0097   -0.0394   -0.0025    0.0011    0.0013    0.0003
           3    0.0066    0.0084   -0.0354    0.0137   -0.0001    0.0005    0.0017   -0.0006
           4    0.0061    0.0334    0.0054   -0.0023   -0.0025    0.0016    0.0016   -0.0031
           5   -0.0021   -0.0290   -0.0046    0.0023    0.0017   -0.0010   -0.0022   -0.0002
           6   -0.0109   -0.0112   -0.0005   -0.0000    0.0013   -0.0007   -0.0066    0.0019
           7   -0.0014    0.0049   -0.0011    0.0008    0.0001   -0.0000   -0.0000    0.0004
           8   -0.0022    0.0120    0.0002   -0.0017   -0.0002   -0.0000    0.0013    0.0001
           9    0.0010    0.0001   -0.0007    0.0011    0.0001    0.0001    0.0011   -0.0003
          10    0.0320    0.0068   -0.0013   -0.0009   -0.0036    0.0042   -0.0067    0.0035
          11    0.0043    0.0144    0.0006   -0.0013   -0.0019    0.0010   -0.0058    0.0047
          12   -0.0062   -0.0244   -0.0011    0.0016    0.0039   -0.0029    0.0041   -0.0011
          13   -0.0211   -0.0220    0.0001    0.0005    0.0031   -0.0071   -0.0415    0.0014
          14   -0.0201   -0.0130   -0.0006    0.0007    0.0039   -0.0020   -0.0069   -0.0315
          15    0.0176    0.0413    0.0017   -0.0013   -0.0071    0.0021    0.0330   -0.0239
          16   -0.0067    0.0078    0.0001   -0.0001   -0.0015   -0.0351    0.0132   -0.0068
          17    0.0222   -0.0010   -0.0001   -0.0008    0.0180   -0.0036   -0.0015    0.0112
          18   -0.0215   -0.0175   -0.0006    0.0021   -0.0268   -0.0013   -0.0133    0.0145
          19    0.0173   -0.0106    0.1554   -0.1158   -0.0052    0.0020   -0.0034   -0.0068
          20    0.0012   -0.0097    0.1970    0.3507    0.0166   -0.0039   -0.0065   -0.0016
          21   -0.0055    0.0016   -0.0584    0.0981    0.0044   -0.0014    0.0018    0.0030
          22   -0.0025    0.0265    0.0553    0.1106    0.0040    0.0010   -0.0179   -0.0060
          23   -0.0021   -0.0264    0.1394   -0.0535   -0.0010   -0.0010    0.0072    0.0035
          24   -0.0045   -0.0261    0.3682    0.0374    0.0037   -0.0018   -0.0038   -0.0002
          25   -0.0358   -0.0676   -0.1279   -0.0953    0.0007   -0.0007   -0.0213   -0.0055
          26   -0.0026    0.0008   -0.1685    0.1610    0.0070   -0.0005   -0.0097   -0.0035
          27   -0.0088   -0.0256    0.1291   -0.3090   -0.0119    0.0021    0.0001    0.0008
          28    0.0717   -0.1028   -0.0047    0.0079    0.0189   -0.0001    0.3261    0.0871
          29   -0.0830    0.0015    0.0001    0.0007    0.0031    0.0053   -0.0006    0.1326
          30   -0.1515    0.0821    0.0040   -0.0031   -0.0149    0.0110   -0.0856    0.2441
          31   -0.1618    0.0204    0.0025    0.0017    0.0033   -0.0194    0.1485   -0.0676
          32    0.0795    0.0112    0.0015    0.0025    0.0021    0.0155    0.1458    0.2684
          33    0.2055   -0.0221   -0.0025   -0.0033   -0.0095    0.0155   -0.2490    0.0432
          34   -0.0181   -0.0210    0.0006    0.0034    0.0372    0.3848   -0.0124   -0.0020
          35    0.0706    0.0189    0.0006    0.0029   -0.0695    0.0136    0.0402   -0.0605
          36    0.0901    0.0317    0.0011    0.0069   -0.1557    0.0344    0.0638   -0.1054
          37   -0.0122   -0.0253    0.0002    0.0119   -0.2079    0.0464   -0.0179    0.0342
          38   -0.0795   -0.0315   -0.0006    0.0077   -0.0741    0.2478    0.0411   -0.1046
          39   -0.0084    0.0270   -0.0004   -0.0134    0.2444   -0.0804    0.0250   -0.0442
          40    0.0046    0.0045   -0.0000   -0.0101    0.1963    0.0235    0.0002   -0.0270
          41   -0.0386   -0.0566   -0.0021    0.0037   -0.0982   -0.2307   -0.0104   -0.0707
          42    0.0042   -0.0071   -0.0005   -0.0140    0.2752    0.0500   -0.0177   -0.0315
          43   -0.0162    0.0532    0.0057   -0.0030   -0.0023   -0.0001   -0.0029   -0.0001
          44    0.0098   -0.0468    0.0025   -0.0028    0.0018    0.0025    0.0042    0.0022
          45    0.0283   -0.0660   -0.0095    0.0035    0.0021    0.0013    0.0010    0.0000
          46    0.0047   -0.0135   -0.0016   -0.0001    0.0005   -0.0001    0.0007    0.0002
          47    0.0002    0.0001   -0.0007    0.0013    0.0000   -0.0002   -0.0002   -0.0001
          48    0.0038    0.0113    0.0006   -0.0014   -0.0010    0.0006    0.0018   -0.0001
          49   -0.0611    0.2353    0.0185   -0.0073   -0.0119    0.0016   -0.0131   -0.0046
          50   -0.0383    0.0928    0.0049   -0.0017   -0.0057    0.0039   -0.0266   -0.0003
          51   -0.0302   -0.0387    0.0012    0.0031    0.0046   -0.0028   -0.0243    0.0099


   Root No.      33        34        35        36        37        38        39        40

                33 A      34 A      35 A      36 A      37 A      38 A      39 A      40 A   

                1347.6    1373.8    1704.0    2065.9    2642.2    2642.8    2646.8    2663.7
  
           1   -0.0600    0.0011   -0.0316   -0.0006    0.0000    0.0001   -0.0006    0.0001
           2   -0.0036    0.0002   -0.0086    0.0023    0.0054    0.0199   -0.0402    0.0002
           3    0.0054   -0.0002   -0.0004    0.0003   -0.0088   -0.0311   -0.0255    0.0008
           4   -0.0001   -0.0002    0.1936    0.0042   -0.0002    0.0003   -0.0002    0.0001
           5    0.0122   -0.0009    0.1479   -0.0410    0.0003    0.0016   -0.0029   -0.0001
           6   -0.0005    0.0005    0.0042   -0.0007   -0.0005   -0.0018   -0.0016   -0.0000
           7   -0.0030    0.0001   -0.0926    0.0066    0.0000   -0.0003    0.0004    0.0000
           8   -0.0075    0.0000   -0.1178    0.0099    0.0000   -0.0003    0.0004    0.0000
           9    0.0005   -0.0002   -0.0012    0.0002    0.0000    0.0000   -0.0001   -0.0000
          10    0.0007   -0.0010   -0.0109    0.0082    0.0004   -0.0003   -0.0002    0.0005
          11   -0.0009    0.0034   -0.0036   -0.0132   -0.0003    0.0002    0.0002   -0.0000
          12    0.0004    0.0028    0.0122    0.0174    0.0006   -0.0002    0.0003   -0.0006
          13   -0.0018    0.0089    0.0065   -0.0061    0.0165   -0.0063   -0.0003   -0.0034
          14   -0.0010   -0.0198    0.0065    0.0013   -0.0137    0.0052    0.0003    0.0048
          15    0.0009   -0.0226   -0.0007    0.0031    0.0179   -0.0068   -0.0002   -0.0017
          16    0.0006   -0.0002   -0.0021    0.0017   -0.0094    0.0031   -0.0006   -0.0382
          17   -0.0009   -0.0357   -0.0013    0.0002    0.0061   -0.0025   -0.0000   -0.0138
          18   -0.0009   -0.0243    0.0005   -0.0009   -0.0083    0.0033    0.0001    0.0153
          19    0.2199   -0.0040   -0.0570    0.0006    0.0384    0.1341    0.0840   -0.0033
          20    0.0315   -0.0001    0.0005   -0.0019   -0.0072   -0.0244   -0.0438    0.0009
          21   -0.1033    0.0016    0.0438   -0.0030    0.0833    0.2912    0.1834   -0.0073
          22    0.2635   -0.0026   -0.1022    0.0091   -0.0356   -0.1289    0.1087    0.0003
          23   -0.1341    0.0015    0.0663   -0.0123   -0.0706   -0.2552    0.2036    0.0005
          24    0.0200   -0.0002   -0.0268    0.0036    0.0279    0.1014   -0.1129    0.0001
          25    0.2597   -0.0039   -0.0303   -0.0050   -0.0029   -0.0087   -0.1840    0.0020
          26    0.1342   -0.0017   -0.0243   -0.0026    0.0093    0.0303    0.3440   -0.0039
          27    0.0174   -0.0007   -0.0145   -0.0001   -0.0003   -0.0031    0.2500   -0.0025
          28    0.0215   -0.0034    0.0074    0.0170   -0.0272    0.0102    0.0004    0.0111
          29    0.0063    0.0483    0.0089    0.0000    0.2115   -0.0806   -0.0035   -0.0759
          30    0.0059    0.1143    0.0071   -0.0086   -0.1032    0.0394    0.0016    0.0395
          31    0.0057   -0.0521    0.0002   -0.0012   -0.1942    0.0741    0.0026   -0.0007
          32    0.0212    0.0929    0.0213    0.0047   -0.0303    0.0116    0.0004    0.0038
          33   -0.0127    0.0440   -0.0067   -0.0015   -0.1345    0.0514    0.0017    0.0010
          34   -0.0028   -0.0188    0.0000   -0.0058   -0.0061    0.0021   -0.0003   -0.0187
          35    0.0014    0.0878   -0.0059   -0.0103   -0.0939    0.0381    0.0007    0.1849
          36    0.0033    0.1985   -0.0093   -0.0012    0.0469   -0.0190   -0.0004   -0.0912
          37   -0.0013   -0.0797    0.0032   -0.0010    0.1125   -0.0413    0.0022    0.1452
          38    0.0003    0.1783   -0.0045   -0.0007    0.0053   -0.0018    0.0001   -0.0026
          39    0.0012    0.0738   -0.0025    0.0001    0.0918   -0.0331    0.0023    0.1454
          40    0.0004    0.0660   -0.0004   -0.0008    0.0218   -0.0042    0.0051    0.3497
          41    0.0032    0.2031    0.0049   -0.0021    0.0038   -0.0014    0.0000   -0.0035
          42   -0.0003    0.0866    0.0041   -0.0038   -0.0233    0.0060   -0.0037   -0.2455
          43    0.0005    0.0011    0.0027    0.0301    0.0003   -0.0014   -0.0002   -0.0016
          44    0.0108    0.0001    0.0967    0.0219   -0.0003   -0.0004   -0.0003   -0.0005
          45   -0.0048   -0.0015   -0.0686    0.0218    0.0006   -0.0010   -0.0000   -0.0012
          46    0.0006   -0.0003   -0.0093    0.0031    0.0001    0.0004   -0.0001    0.0001
          47   -0.0013   -0.0001   -0.0045   -0.0134    0.0000   -0.0001   -0.0001   -0.0000
          48    0.0002   -0.0004   -0.0095   -0.0167   -0.0000    0.0003    0.0000    0.0000
          49   -0.0089    0.0036   -0.0169   -0.3182    0.0016    0.0002   -0.0011   -0.0010
          50    0.0001    0.0068    0.1139    0.7121   -0.0014   -0.0007    0.0022    0.0025
          51   -0.0009    0.0025    0.0053   -0.0428   -0.0008   -0.0002   -0.0005   -0.0005


   Root No.      41        42        43        44        45

                41 A      42 A      43 A      44 A      45 A   

                2673.0    2715.7    2760.1    2773.6    2781.6
  
           1   -0.0000   -0.0001   -0.0069   -0.0187   -0.0015
           2   -0.0002   -0.0000   -0.0002    0.0003    0.0000
           3   -0.0001   -0.0000    0.0003   -0.0003   -0.0000
           4   -0.0001    0.0001   -0.0060   -0.0066   -0.0005
           5   -0.0001    0.0005    0.0051   -0.0021   -0.0005
           6    0.0002    0.0008   -0.0054    0.0011   -0.0002
           7    0.0001   -0.0002   -0.0002    0.0014    0.0002
           8    0.0001   -0.0003   -0.0009    0.0013    0.0002
           9    0.0000   -0.0000    0.0003   -0.0000    0.0000
          10    0.0004   -0.0023   -0.0003    0.0006   -0.0004
          11   -0.0004   -0.0012   -0.0001   -0.0001   -0.0000
          12    0.0003    0.0011    0.0010   -0.0005    0.0006
          13    0.0118   -0.0190   -0.0003   -0.0001   -0.0007
          14   -0.0094   -0.0268   -0.0009    0.0007   -0.0059
          15    0.0130   -0.0032   -0.0002    0.0003   -0.0040
          16    0.0154   -0.0048   -0.0003    0.0000    0.0005
          17   -0.0196   -0.0040   -0.0002    0.0012   -0.0175
          18    0.0257    0.0010    0.0007    0.0005   -0.0124
          19    0.0005    0.0001    0.0408    0.0937    0.0075
          20   -0.0003   -0.0001   -0.0107   -0.0264   -0.0021
          21    0.0016    0.0012    0.0973    0.2318    0.0179
          22    0.0010    0.0008    0.0375    0.0960    0.0076
          23    0.0019    0.0022    0.0863    0.2090    0.0163
          24   -0.0009   -0.0009   -0.0386   -0.0928   -0.0074
          25   -0.0006    0.0011    0.0371    0.0899    0.0065
          26    0.0010   -0.0018   -0.0771   -0.1872   -0.0137
          27    0.0008   -0.0012   -0.0570   -0.1372   -0.0101
          28   -0.0168   -0.0659   -0.0027    0.0015   -0.0045
          29    0.1322    0.3570    0.0128   -0.0078    0.0244
          30   -0.0614   -0.1891   -0.0067    0.0039   -0.0108
          31   -0.1277    0.3353    0.0119   -0.0049    0.0231
          32   -0.0218    0.0278    0.0013   -0.0003    0.0037
          33   -0.0900    0.2385    0.0077   -0.0037    0.0178
          34    0.0099   -0.0025   -0.0006   -0.0000    0.0008
          35    0.2689   -0.0006    0.0010   -0.0173    0.2608
          36   -0.1293    0.0045   -0.0007    0.0096   -0.1419
          37   -0.2279   -0.0109   -0.0057   -0.0121    0.2157
          38   -0.0179    0.0007   -0.0002    0.0002   -0.0001
          39   -0.1829   -0.0039   -0.0043   -0.0096    0.1742
          40    0.0312    0.0682    0.0076    0.0133   -0.2253
          41   -0.0102   -0.0004    0.0002    0.0004   -0.0091
          42   -0.0019   -0.0473   -0.0049   -0.0091    0.1500
          43   -0.0042   -0.0192    0.4569   -0.1120   -0.0037
          44   -0.0015   -0.0039    0.1017   -0.0263   -0.0011
          45   -0.0029   -0.0130    0.2942   -0.0714   -0.0025
          46    0.0003    0.0011   -0.0267    0.0069    0.0002
          47    0.0000    0.0003   -0.0072    0.0016   -0.0000
          48   -0.0000    0.0005   -0.0144    0.0038    0.0002
          49   -0.0003   -0.0006    0.0090   -0.0037   -0.0010
          50    0.0033    0.0005   -0.0293    0.0095    0.0039
          51    0.0003    0.0039   -0.0237    0.0050   -0.0018


           MASS-WEIGHTED COORDINATE ANALYSIS (NORMAL COORDINATES)


   Root No.       1         2         3         4         5         6         7         8

                 1 A       2 A       3 A       4 A       5 A       6 A       7 A       8 A   

               -1187.0     -27.6      91.4     130.9     142.3     178.9     298.0     323.1
  
           1    0.0013    0.0050    0.0278   -0.0442   -0.0493   -0.0236    0.0388    0.0342
           2   -0.0024    0.1233    0.0009   -0.0029    0.1426   -0.1740   -0.0425   -0.1384
           3    0.0231    0.1375   -0.1896    0.1615    0.3049    0.0064   -0.4141   -0.0909
           4    0.0043    0.0007    0.0291   -0.0465   -0.0473   -0.0127    0.0314    0.0440
           5    0.0015    0.0196    0.0008    0.0485   -0.0178    0.1411    0.0109   -0.1283
           6   -0.3478    0.0520    0.0147   -0.0597   -0.0147    0.0755    0.0939   -0.0818
           7   -0.0028    0.1040    0.0335   -0.0180   -0.0157   -0.2180    0.0825    0.1505
           8    0.0039   -0.0560    0.0010    0.0242   -0.0513    0.2887   -0.0206   -0.1860
           9    0.0208    0.1387    0.1283   -0.1382   -0.2356    0.3733    0.1973   -0.3432
          10   -0.0326   -0.1612    0.1369   -0.1084   -0.3045    0.0204   -0.4059   -0.0166
          11    0.1944    0.1280    0.0173    0.0030   -0.0257    0.3645   -0.0876    0.1323
          12   -0.0183   -0.1757    0.0787   -0.0933   -0.1971   -0.2535   -0.0085   -0.0301
          13   -0.0565   -0.2539    0.0237    0.1166    0.0875    0.2447   -0.2620    0.1191
          14    0.0127    0.2055    0.0175   -0.1239   -0.1054   -0.1448   -0.0514    0.3461
          15    0.0452   -0.2700   -0.0488    0.1547    0.2603   -0.0140    0.1834    0.1836
          16   -0.0044    0.2894   -0.1154    0.0639    0.2268   -0.1580    0.0167   -0.3135
          17   -0.0079   -0.2255   -0.0164   -0.0080    0.1030   -0.2743    0.0863    0.1503
          18    0.0124    0.2859   -0.0148    0.0138    0.0271    0.0920    0.0555    0.4505
          19   -0.0137   -0.0161    0.0514   -0.0581   -0.0845   -0.0028    0.1457    0.0192
          20   -0.0050    0.1030   -0.0628    0.4843   -0.2155   -0.1279    0.0132   -0.0371
          21    0.0080    0.0548   -0.0805    0.1231    0.0874   -0.0082   -0.1767   -0.0305
          22    0.0075   -0.0104   -0.0073    0.0120   -0.0186    0.0451   -0.0215    0.0158
          23   -0.0021    0.0191    0.0242   -0.2004    0.1648   -0.0534   -0.0361   -0.0476
          24    0.0070   -0.0083   -0.0165   -0.3789    0.3637    0.0475   -0.2119   -0.0374
          25    0.0060    0.0287   -0.0211    0.0201    0.0511   -0.0651   -0.0893   -0.0021
          26   -0.0039    0.0057    0.0351   -0.2888    0.2122   -0.0414   -0.0384   -0.0475
          27    0.0089    0.0998   -0.1229    0.4683   -0.1049   -0.0481   -0.1542   -0.0281
          28    0.0366   -0.2155   -0.0202    0.1226    0.1406    0.2170   -0.0558    0.0522
          29   -0.0027   -0.0355   -0.0018   -0.0061    0.0112   -0.0287   -0.0015    0.0981
          30   -0.0166   -0.2111   -0.0195    0.0714    0.1148   -0.0234    0.0677    0.0483
          31   -0.0162   -0.0802    0.0300    0.0035   -0.0360    0.0510   -0.1054    0.0216
          32   -0.0128    0.2758    0.0173   -0.1145   -0.1219   -0.1504   -0.0202    0.0902
          33    0.0133   -0.0958   -0.0502    0.0976    0.1745    0.0377    0.0983    0.0678
          34   -0.0000    0.1833    0.4786    0.1580    0.2261   -0.1045    0.0393   -0.1590
          35    0.0039    0.0054    0.0045   -0.0198   -0.0021   -0.0603    0.0041    0.0840
          36    0.0110    0.2127    0.0167   -0.0276   -0.0504    0.0605   -0.0227    0.2111
          37    0.0009    0.0990   -0.3243   -0.0609    0.0009   -0.0711    0.0271   -0.1405
          38   -0.0040   -0.2589   -0.2753   -0.0471   -0.0244   -0.0325    0.0087    0.0695
          39    0.0059    0.0652    0.3561    0.1024    0.0882    0.0576   -0.0110    0.1870
          40   -0.0011    0.0916   -0.3004   -0.0548    0.0040   -0.0642    0.0222   -0.1261
          41    0.0035   -0.0395    0.2598    0.0922    0.1702   -0.1703    0.0955   -0.0967
          42    0.0090    0.0958   -0.3889   -0.1007   -0.0776   -0.0038    0.0448    0.0769
          43    0.0433    0.0070   -0.0462    0.0318    0.0846    0.0771    0.2282   -0.0116
          44   -0.0489   -0.0742   -0.0014   -0.0017   -0.0730   -0.0709   -0.0014   -0.0274
          45    0.0085   -0.0362    0.0471   -0.0563   -0.1243   -0.1021   -0.1712   -0.0044
          46    0.0677    0.0027   -0.1066    0.0194    0.0703    0.1446    0.4497    0.0477
          47   -0.1958   -0.1781   -0.0228    0.0741   -0.0479   -0.0816    0.1083   -0.1590
          48   -0.0066   -0.1664    0.0588   -0.0713   -0.1720   -0.2368    0.0135   -0.1226
          49   -0.0014   -0.0129    0.0257   -0.0578   -0.1234   -0.0450   -0.0889    0.0080
          50    0.0486   -0.0024    0.0088   -0.0045   -0.0461    0.0187   -0.0358   -0.0312
          51    0.8835   -0.0755    0.0226   -0.0259   -0.0561   -0.1038    0.0109   -0.1076


   Root No.       9        10        11        12        13        14        15        16

                 9 A      10 A      11 A      12 A      13 A      14 A      15 A      16 A   

                 362.8     480.5     543.1     570.3     607.6     666.5     741.2     858.6
  
           1    0.0878    0.3153    0.1556    0.0896   -0.2685    0.1036   -0.0663   -0.0140
           2   -0.4471   -0.0328   -0.0330   -0.0129    0.0687    0.0373   -0.0537   -0.0045
           3    0.0665   -0.0228    0.0499   -0.0069    0.0070   -0.0890   -0.0931    0.0129
           4    0.1068    0.2951    0.1732    0.0652   -0.2660   -0.0086    0.0458   -0.0007
           5    0.2143    0.0688   -0.1958    0.0549    0.5049    0.1814   -0.1801   -0.0056
           6    0.0121    0.1251   -0.2590   -0.1751   -0.0570   -0.5304   -0.3419    0.0181
           7    0.4594   -0.2091   -0.0838    0.0306    0.2555   -0.0401    0.0269   -0.0063
           8   -0.0170    0.5104    0.0732    0.1183    0.0717    0.1311   -0.0852   -0.0014
           9   -0.0150   -0.2674    0.3380    0.1701    0.0046    0.1277    0.0282   -0.0044
          10   -0.1943   -0.0383    0.1069   -0.1827    0.2546   -0.1636    0.0163   -0.0684
          11    0.1585   -0.0535   -0.3800   -0.1591   -0.2803   -0.1621    0.4975    0.0524
          12   -0.0926    0.1885   -0.0084   -0.0093    0.2316   -0.1352    0.5305   -0.1095
          13   -0.1093   -0.1652   -0.0186   -0.1026   -0.0418    0.0940   -0.1018    0.1929
          14   -0.0400   -0.0678    0.0736   -0.0618   -0.0340    0.0513   -0.1453   -0.1352
          15    0.0003    0.0923    0.0621    0.1180    0.1087   -0.0746    0.0518    0.1869
          16    0.0482    0.0013   -0.0818   -0.0155   -0.0246    0.0011   -0.0034    0.0801
          17    0.0135    0.0255    0.0768    0.0287    0.0244    0.0409   -0.0467   -0.0760
          18   -0.0548    0.0140    0.1077    0.0614    0.0279    0.0448    0.0033    0.0693
          19   -0.0158    0.1625   -0.0718   -0.0524   -0.1396   -0.1965   -0.1871    0.0200
          20   -0.2541    0.0193    0.0002   -0.0311   -0.0809   -0.0344    0.0009    0.0046
          21    0.0246   -0.0339    0.0732    0.0305    0.0142    0.0653    0.0553   -0.0074
          22    0.1953    0.0844    0.0511    0.0869    0.0837    0.1609    0.0074   -0.0212
          23   -0.1953   -0.0269    0.0176   -0.0154   -0.0581   -0.0139    0.0125    0.0032
          24    0.0633   -0.0615    0.0821    0.0425    0.0213    0.0795    0.0637   -0.0079
          25   -0.1122    0.0590    0.1791    0.0481   -0.2359    0.0898    0.1384   -0.0102
          26   -0.1881   -0.0169    0.0122   -0.0146   -0.0618   -0.0169    0.0043    0.0033
          27    0.0023   -0.0233    0.0758    0.0285    0.0092    0.0629    0.0530   -0.0075
          28    0.0031   -0.0935   -0.1026    0.0070   -0.1128   -0.0038   -0.0566   -0.2889
          29   -0.0085   -0.0211    0.0153   -0.0005   -0.0199    0.0200   -0.0578   -0.2420
          30   -0.0099    0.0300    0.0342    0.0549    0.0397    0.0000   -0.0230   -0.2955
          31   -0.0463   -0.0340    0.0062   -0.0484    0.0317   -0.0081    0.0021    0.0062
          32   -0.0208    0.0155    0.0862   -0.0382    0.0550    0.0202   -0.0232    0.4861
          33    0.0244    0.0053   -0.0108    0.0699   -0.0405    0.0224   -0.0238   -0.0088
          34    0.0343    0.0205   -0.0495    0.0102   -0.0156   -0.0169    0.0786   -0.1170
          35   -0.0053   -0.0102    0.0344   -0.0102   -0.0009    0.0227   -0.0829   -0.1824
          36   -0.0351   -0.0295    0.0597   -0.0175   -0.0051    0.0416   -0.1435   -0.3358
          37    0.0321    0.0252   -0.0432   -0.0013   -0.0101   -0.0212    0.0734   -0.1112
          38   -0.0086    0.0005    0.0316    0.0104    0.0294    0.0097   -0.0139    0.4093
          39   -0.0369   -0.0259    0.0526    0.0113    0.0122    0.0325   -0.0911    0.1319
          40    0.0278    0.0202   -0.0368   -0.0018   -0.0080   -0.0168    0.0531   -0.1068
          41    0.0450    0.0586   -0.0251    0.0484    0.0137   -0.0445    0.1586    0.0327
          42    0.0054    0.0331    0.0156    0.0216    0.0111   -0.0163    0.0600   -0.1624
          43   -0.0697   -0.0248    0.1160   -0.4230    0.0884    0.0586    0.0335   -0.0276
          44   -0.0520   -0.2888   -0.0756    0.3492   -0.1136   -0.0286    0.0530    0.0015
          45    0.0360    0.0366   -0.2590    0.4984   -0.1862   -0.0308   -0.1272    0.0609
          46   -0.3592   -0.1658   -0.1988    0.1372    0.0771    0.0459    0.0374    0.0299
          47    0.2500   -0.3560    0.3818   -0.0624   -0.2246   -0.2285   -0.0333    0.0128
          48    0.0608   -0.0798   -0.3430   -0.3297   -0.2761    0.5652   -0.1242    0.0196
          49   -0.1351   -0.1147   -0.1363    0.3071    0.0528   -0.0733   -0.0297   -0.0563
          50    0.0232   -0.1102   -0.1252    0.0826    0.0162    0.0265   -0.0917   -0.0066
          51    0.0294   -0.0185    0.0652   -0.0587   -0.0160   -0.2382   -0.2435    0.0171


   Root No.      17        18        19        20        21        22        23        24

                17 A      18 A      19 A      20 A      21 A      22 A      23 A      24 A   

                 965.8    1004.5    1049.3    1055.2    1083.0    1099.7    1147.8    1158.3
  
           1    0.2717    0.4128   -0.1875   -0.1008    0.0040   -0.3015   -0.0095    0.0518
           2    0.0348    0.1789    0.0793   -0.3185   -0.0380    0.2073   -0.0084   -0.0387
           3   -0.0060    0.1544    0.3619    0.1050    0.0139   -0.1239    0.0447   -0.0575
           4   -0.1482   -0.1776    0.1410    0.0363   -0.0053    0.3115    0.0010   -0.0370
           5    0.0831    0.0062   -0.1055    0.0733    0.0097   -0.2609    0.0097    0.0037
           6    0.0337   -0.0485   -0.3317   -0.0365   -0.0543    0.2161   -0.0945    0.0883
           7   -0.1062   -0.1464    0.0328    0.2028    0.0002    0.0947    0.0095    0.0297
           8   -0.1264   -0.1562    0.0616    0.2477   -0.0090    0.2150    0.0057    0.0484
           9   -0.0124    0.0012    0.0646    0.0032    0.0141   -0.0322    0.0136   -0.0053
          10    0.3109   -0.1207   -0.0559    0.0053   -0.0541   -0.0225    0.0959   -0.3192
          11    0.0227    0.0588   -0.0709   -0.0620   -0.0839   -0.1064   -0.0181   -0.1029
          12   -0.3378    0.1935    0.0366   -0.0287    0.1659   -0.0186   -0.0071    0.1542
          13   -0.2185    0.0347    0.1592   -0.0434   -0.1400    0.0327   -0.1034    0.4359
          14   -0.0467    0.0224   -0.0089   -0.0080    0.1292    0.1058    0.5510    0.1335
          15    0.1438   -0.0357   -0.1342   -0.0210   -0.2580   -0.1627    0.3168    0.1192
          16   -0.2548    0.1320   -0.1437    0.0267    0.1248   -0.0312    0.0243   -0.2648
          17   -0.0494   -0.0103    0.0246    0.0136   -0.0757   -0.0528   -0.5295   -0.0705
          18    0.2234   -0.0828    0.1329    0.0313    0.1619    0.1048   -0.2952   -0.2177
          19    0.0287    0.2471    0.4244    0.1795    0.0447   -0.3011    0.0541   -0.0451
          20   -0.0067   -0.0885   -0.0237    0.1177    0.0119   -0.0825    0.0065   -0.0004
          21    0.0097   -0.0512   -0.1346   -0.0468   -0.0153    0.0754   -0.0163    0.0144
          22    0.1051    0.2940   -0.1167   -0.4778   -0.0564    0.2805   -0.0393    0.0010
          23   -0.0101   -0.1098   -0.0380    0.1415    0.0175   -0.1088    0.0086    0.0051
          24    0.0135   -0.0702   -0.1451   -0.0112   -0.0060    0.0097   -0.0092    0.0102
          25    0.0432   -0.2437   -0.4223    0.2214    0.0408   -0.1825   -0.0362    0.0933
          26   -0.0032   -0.0672   -0.0211    0.0996    0.0152   -0.0706   -0.0002    0.0092
          27    0.0140   -0.0610   -0.1553   -0.0328   -0.0031    0.0283   -0.0165    0.0196
          28    0.0647    0.0013    0.0261    0.0253    0.3718    0.1849    0.0328    0.0795
          29   -0.0287    0.0001   -0.0026    0.0011    0.0397    0.0199    0.1686   -0.1041
          30   -0.0572   -0.0057   -0.0355   -0.0115   -0.1630   -0.1066    0.1503   -0.2191
          31   -0.0020   -0.0449    0.0718   -0.0437   -0.2396   -0.0656   -0.0800    0.0321
          32   -0.0123   -0.0032   -0.0097   -0.0137   -0.1016   -0.0240    0.0493    0.2816
          33   -0.0225    0.0611   -0.0738    0.0442    0.2594    0.0729    0.1553    0.0734
          34    0.1065   -0.0558    0.0808   -0.0164   -0.0516    0.0126   -0.0104    0.1148
          35   -0.1405    0.0274   -0.0520   -0.0065   -0.1288   -0.0804   -0.1529    0.0472
          36   -0.2149    0.0410   -0.0828   -0.0122   -0.1956   -0.1229   -0.1617    0.0681
          37    0.1007   -0.0512    0.0743   -0.0154   -0.0435    0.0181   -0.0016    0.1116
          38   -0.0109    0.0512   -0.0432    0.0409    0.2469    0.0728   -0.0293   -0.2864
          39   -0.1329    0.0713   -0.0963    0.0282    0.0963   -0.0140   -0.0484   -0.2319
          40    0.0752   -0.0417    0.0477   -0.0134   -0.0607   -0.0038   -0.0088    0.0704
          41    0.4442   -0.1790    0.2062   -0.0099    0.0224    0.1159   -0.0147    0.1085
          42    0.2543   -0.1256    0.1296   -0.0196   -0.0978    0.0222   -0.0598    0.1273
          43    0.0483    0.0489   -0.0412    0.0526    0.0879    0.0280   -0.0420    0.0691
          44    0.1163    0.3975   -0.0814    0.4812   -0.3549    0.3389    0.0183   -0.0647
          45   -0.1318   -0.3092    0.0893   -0.3101   -0.0354   -0.1359    0.0656   -0.1135
          46   -0.0758   -0.1426    0.0352   -0.1309   -0.0611   -0.0558    0.0450   -0.0770
          47   -0.0285   -0.0867    0.0521   -0.1954    0.0864   -0.1210    0.0029   -0.0022
          48    0.0796   -0.0672    0.0226    0.0527   -0.0132    0.0384    0.0165   -0.0410
          49    0.1232    0.0906   -0.0860    0.0609    0.4218   -0.0763   -0.1653    0.2920
          50    0.1033    0.0239   -0.0686    0.0138    0.1708   -0.1302   -0.0949    0.1332
          51   -0.0170   -0.0148   -0.0892   -0.0086   -0.0332    0.1023   -0.0535    0.0552


   Root No.      25        26        27        28        29        30        31        32

                25 A      26 A      27 A      28 A      29 A      30 A      31 A      32 A   

                1168.2    1190.8    1229.6    1244.6    1260.7    1275.5    1312.9    1316.1
  
           1   -0.0590   -0.2044   -0.0569    0.0627    0.0139   -0.0104    0.0149    0.0209
           2    0.0305    0.0889   -0.0607   -0.2417   -0.0166    0.0071    0.0084    0.0022
           3    0.0527    0.0650   -0.2214    0.0840   -0.0006    0.0031    0.0115   -0.0043
           4    0.0488    0.2597    0.0337   -0.0140   -0.0166    0.0105    0.0108   -0.0227
           5   -0.0171   -0.2253   -0.0286    0.0144    0.0113   -0.0062   -0.0145   -0.0013
           6   -0.0869   -0.0873   -0.0030   -0.0001    0.0084   -0.0043   -0.0439    0.0141
           7   -0.0132    0.0438   -0.0082    0.0053    0.0004   -0.0004   -0.0002    0.0030
           8   -0.0199    0.1078    0.0017   -0.0121   -0.0018   -0.0003    0.0098    0.0011
           9    0.0089    0.0012   -0.0049    0.0079    0.0009    0.0006    0.0087   -0.0025
          10    0.2951    0.0611   -0.0090   -0.0063   -0.0274    0.0306   -0.0510    0.0299
          11    0.0398    0.1295    0.0044   -0.0094   -0.0145    0.0076   -0.0444    0.0397
          12   -0.0569   -0.2192   -0.0079    0.0114    0.0293   -0.0211    0.0317   -0.0092
          13   -0.1685   -0.1708    0.0004    0.0029    0.0204   -0.0454   -0.2751    0.0102
          14   -0.1602   -0.1009   -0.0035    0.0041    0.0257   -0.0127   -0.0454   -0.2306
          15    0.1401    0.3208    0.0105   -0.0083   -0.0464    0.0133    0.2187   -0.1744
          16   -0.0537    0.0607    0.0005   -0.0007   -0.0096   -0.2241    0.0875   -0.0493
          17    0.1773   -0.0074   -0.0005   -0.0051    0.1180   -0.0228   -0.0099    0.0821
          18   -0.1713   -0.1358   -0.0036    0.0130   -0.1755   -0.0086   -0.0883    0.1059
          19    0.0401   -0.0239    0.2818   -0.2059   -0.0099    0.0036   -0.0065   -0.0143
          20    0.0027   -0.0220    0.3571    0.6236    0.0314   -0.0071   -0.0125   -0.0035
          21   -0.0126    0.0037   -0.1059    0.1745    0.0084   -0.0026    0.0035    0.0063
          22   -0.0059    0.0598    0.1002    0.1966    0.0077    0.0018   -0.0344   -0.0127
          23   -0.0049   -0.0595    0.2528   -0.0951   -0.0018   -0.0019    0.0138    0.0073
          24   -0.0105   -0.0589    0.6676    0.0664    0.0069   -0.0033   -0.0072   -0.0004
          25   -0.0828   -0.1523   -0.2319   -0.1694    0.0013   -0.0013   -0.0409   -0.0117
          26   -0.0061    0.0017   -0.3054    0.2862    0.0133   -0.0009   -0.0187   -0.0075
          27   -0.0204   -0.0577    0.2341   -0.5494   -0.0225    0.0039    0.0003    0.0017
          28    0.1658   -0.2316   -0.0085    0.0141    0.0358   -0.0001    0.6265    0.1845
          29   -0.1918    0.0035    0.0003    0.0012    0.0058    0.0098   -0.0012    0.2807
          30   -0.3503    0.1850    0.0073   -0.0054   -0.0282    0.0203   -0.1644    0.5168
          31   -0.3741    0.0460    0.0045    0.0031    0.0063   -0.0359    0.2853   -0.1431
          32    0.1837    0.0253    0.0027    0.0044    0.0039    0.0286    0.2801    0.5682
          33    0.4752   -0.0497   -0.0045   -0.0058   -0.0179    0.0286   -0.4783    0.0915
          34   -0.0419   -0.0472    0.0011    0.0061    0.0704    0.7110   -0.0239   -0.0042
          35    0.1632    0.0426    0.0012    0.0051   -0.1317    0.0251    0.0773   -0.1282
          36    0.2083    0.0714    0.0020    0.0123   -0.2951    0.0635    0.1225   -0.2230
          37   -0.0281   -0.0569    0.0004    0.0212   -0.3940    0.0858   -0.0344    0.0725
          38   -0.1837   -0.0710   -0.0011    0.0136   -0.1404    0.4578    0.0791   -0.2214
          39   -0.0194    0.0609   -0.0007   -0.0238    0.4633   -0.1486    0.0480   -0.0936
          40    0.0107    0.0102   -0.0000   -0.0179    0.3720    0.0433    0.0004   -0.0572
          41   -0.0891   -0.1276   -0.0039    0.0066   -0.1861   -0.4262   -0.0200   -0.1497
          42    0.0098   -0.0160   -0.0009   -0.0249    0.5215    0.0924   -0.0340   -0.0667
          43   -0.0375    0.1198    0.0103   -0.0053   -0.0043   -0.0002   -0.0055   -0.0002
          44    0.0227   -0.1054    0.0046   -0.0051    0.0035    0.0047    0.0081    0.0047
          45    0.0655   -0.1487   -0.0172    0.0063    0.0041    0.0024    0.0019    0.0001
          46    0.0437   -0.1210   -0.0115   -0.0004    0.0041   -0.0004    0.0054    0.0017
          47    0.0018    0.0007   -0.0049    0.0091    0.0002   -0.0017   -0.0014   -0.0008
          48    0.0354    0.1014    0.0044   -0.0096   -0.0077    0.0045    0.0139   -0.0011
          49   -0.1413    0.5301    0.0335   -0.0131   -0.0225    0.0030   -0.0251   -0.0098
          50   -0.0887    0.2089    0.0089   -0.0030   -0.0109    0.0072   -0.0511   -0.0007
          51   -0.0698   -0.0871    0.0023    0.0055    0.0088   -0.0052   -0.0466    0.0210


   Root No.      33        34        35        36        37        38        39        40

                33 A      34 A      35 A      36 A      37 A      38 A      39 A      40 A   

                1347.6    1373.8    1704.0    2065.9    2642.2    2642.8    2646.8    2663.7
  
           1   -0.3906    0.0080   -0.1023   -0.0025    0.0003    0.0009   -0.0036    0.0003
           2   -0.0236    0.0013   -0.0279    0.0097    0.0450    0.1413   -0.2343    0.0012
           3    0.0352   -0.0018   -0.0014    0.0013   -0.0730   -0.2214   -0.1488    0.0048
           4   -0.0007   -0.0018    0.6270    0.0181   -0.0020    0.0022   -0.0009    0.0009
           5    0.0795   -0.0070    0.4788   -0.1754    0.0022    0.0113   -0.0172   -0.0005
           6   -0.0032    0.0037    0.0138   -0.0030   -0.0045   -0.0131   -0.0095   -0.0001
           7   -0.0228    0.0006   -0.3463    0.0325    0.0004   -0.0024    0.0030    0.0000
           8   -0.0566    0.0002   -0.4404    0.0487    0.0003   -0.0026    0.0028    0.0001
           9    0.0036   -0.0015   -0.0044    0.0010    0.0005    0.0001   -0.0004   -0.0000
          10    0.0055   -0.0088   -0.0406    0.0402    0.0042   -0.0023   -0.0015    0.0040
          11   -0.0068    0.0296   -0.0135   -0.0649   -0.0030    0.0014    0.0011   -0.0001
          12    0.0028    0.0249    0.0457    0.0861    0.0055   -0.0016    0.0017   -0.0043
          13   -0.0118    0.0674    0.0211   -0.0260    0.1363   -0.0451   -0.0019   -0.0212
          14   -0.0067   -0.1501    0.0212    0.0056   -0.1129    0.0373    0.0017    0.0301
          15    0.0056   -0.1710   -0.0024    0.0131    0.1477   -0.0485   -0.0011   -0.0108
          16    0.0038   -0.0015   -0.0066    0.0074   -0.0775    0.0222   -0.0033   -0.2417
          17   -0.0057   -0.2706   -0.0043    0.0008    0.0503   -0.0177   -0.0003   -0.0871
          18   -0.0057   -0.1844    0.0016   -0.0038   -0.0689    0.0238    0.0006    0.0968
          19    0.4146   -0.0087   -0.0535    0.0007    0.0918    0.2763    0.1418   -0.0060
          20    0.0594   -0.0002    0.0005   -0.0023   -0.0172   -0.0502   -0.0740    0.0017
          21   -0.1948    0.0035    0.0411   -0.0037    0.1995    0.6000    0.3097   -0.0133
          22    0.4966   -0.0056   -0.0959    0.0112   -0.0853   -0.2656    0.1836    0.0005
          23   -0.2528    0.0034    0.0622   -0.0152   -0.1689   -0.5259    0.3438    0.0010
          24    0.0378   -0.0005   -0.0252    0.0044    0.0668    0.2089   -0.1907    0.0003
          25    0.4895   -0.0086   -0.0284   -0.0062   -0.0070   -0.0179   -0.3107    0.0036
          26    0.2529   -0.0037   -0.0228   -0.0032    0.0222    0.0625    0.5810   -0.0071
[...]
          50    0.0067    0.0008   -0.0491    0.0206    0.0079
          51    0.0007    0.0065   -0.0397    0.0110   -0.0037


          DESCRIPTION OF VIBRATIONS


 VIBRATION    1    1A       ATOM PAIR        ENERGY CONTRIBUTION    RADIAL
 FREQ.     -1186.95        O  4 --  H 17          -56.7% (-78.1%)    79.9%
 T-DIPOLE    3.2712        O 16 --  H 17          -56.4% (-77.9%)    85.7%
 TRAVEL      0.1679        C  1 --  C  2           -2.6% (-16.6%)     0.0%
 RED. MASS   0.8481        C  2 --  O  3           -2.5% (-16.4%)     0.0%
 EFF. MASS   2.0141

 VIBRATION    2    2A       ATOM PAIR        ENERGY CONTRIBUTION    RADIAL
 FREQ.       -27.64        C  5 --  C  6          +25.5% (-99.9%)     0.0%
 T-DIPOLE    0.1642        C  6 --  H 14          +10.7% (-99.9%)     2.6%
 TRAVEL      0.0271        C  6 --  H 12          +10.6% (-99.9%)    80.4%
 RED. MASS   1.1545        C  6 --  H 13          +10.1% (-99.9%)    95.6%
 EFF. MASS3319.2948        O  4 --  C  5          +10.0% (-99.9%)     0.1%

 VIBRATION    3    3A       ATOM PAIR        ENERGY CONTRIBUTION    RADIAL
 FREQ.        91.39        C  6 --  H 14          +27.1% (565.2%)     1.6%
 T-DIPOLE    0.1174        C  6 --  H 13          +26.9% (562.5%)     1.9%
 TRAVEL      0.1344        C  6 --  H 12          +25.8% (550.8%)     0.0%
 RED. MASS   0.2827        C  1 --  C  2           +3.4% (200.0%)     0.0%
 EFF. MASS  40.8300

 VIBRATION    4    4A       ATOM PAIR        ENERGY CONTRIBUTION    RADIAL
 FREQ.       130.88        C  1 --  H  9          +23.8% (378.2%)     2.8%
 T-DIPOLE    0.0612        C  1 --  H  7          +22.7% (368.7%)     3.4%
 TRAVEL      0.1238        C  1 --  H  8          +20.7% (352.0%)     0.9%
 RED. MASS   0.2527        O  4 --  C  5           +5.9% (187.9%)     0.1%
 EFF. MASS  33.6154

 VIBRATION    5    5A       ATOM PAIR        ENERGY CONTRIBUTION    RADIAL
 FREQ.       142.26        C  1 --  H  8          +12.5% (288.4%)     1.5%
 T-DIPOLE    0.3573        C  1 --  H  7          +10.1% (259.0%)    17.7%
 TRAVEL      0.0749        C  1 --  H  9           +9.7% (254.1%)    23.6%
 RED. MASS   0.6958        O  4 --  C  5           +9.6% (252.2%)     0.3%
 EFF. MASS  84.5237

 VIBRATION    6    6A       ATOM PAIR        ENERGY CONTRIBUTION    RADIAL
 FREQ.       178.85        C  5 --  C  6          +13.6% (225.9%)     0.2%
 T-DIPOLE    0.3353        O  4 --  C  5          +11.2% (205.5%)     0.6%
 TRAVEL      0.0848        C  6 --  H 14           +7.7% (169.8%)    62.8%
 RED. MASS   2.1503        C  6 --  H 13           +7.6% (169.3%)     3.3%
 EFF. MASS  52.4262

 VIBRATION    7    7A       ATOM PAIR        ENERGY CONTRIBUTION    RADIAL
 FREQ.       297.96        O  4 --  O 16          +10.8% (138.6%)     0.1%
 T-DIPOLE    0.2184        C  1 --  C  2          +10.4% (136.5%)     0.0%
 TRAVEL      0.0801        C  1 --  H  8           +8.9% (126.3%)    19.3%
 RED. MASS   1.7594        C  1 --  H  9           +8.0% (119.8%)    43.5%
 EFF. MASS  35.2674

 VIBRATION    8    8A       ATOM PAIR        ENERGY CONTRIBUTION    RADIAL
 FREQ.       323.11        C  5 --  C  6          +20.0% (189.9%)     0.4%
 T-DIPOLE    0.6376        C  6 --  H 12          +16.3% (171.7%)     3.9%
 TRAVEL      0.0839        C  6 --  H 13          +16.0% (169.8%)     0.9%
 RED. MASS   2.1500        C  6 --  H 14          +12.6% (150.7%)    53.5%
 EFF. MASS  29.6311

 VIBRATION    9    9A       ATOM PAIR        ENERGY CONTRIBUTION    RADIAL
 FREQ.       362.84        C  1 --  C  2          +21.5% (151.6%)     0.1%
 T-DIPOLE    0.6833        C  1 --  H  7          +13.1% (118.1%)    18.8%
 TRAVEL      0.0852        C  1 --  H  8          +12.4% (115.1%)    86.9%
 RED. MASS   2.0029        C  1 --  H  9          +11.6% (111.1%)    48.2%
 EFF. MASS  25.6001        C  2 --  O 16          +10.4% (105.5%)     5.0%

 VIBRATION   10   10A       ATOM PAIR        ENERGY CONTRIBUTION    RADIAL
 FREQ.       480.49        C  2 --  O 16          +16.2% (103.8%)     0.2%
 T-DIPOLE    1.3504        C  1 --  C  2          +12.8% ( 92.0%)     1.3%
 TRAVEL      0.0882        C  2 --  O  4          +12.6% ( 91.3%)     1.2%
 RED. MASS   2.9871        C  2 --  O  3          +11.0% ( 85.5%)     0.3%
 EFF. MASS  18.0497

 VIBRATION   11   11A       ATOM PAIR        ENERGY CONTRIBUTION    RADIAL
 FREQ.       543.14        C  2 --  O 16          +14.1% ( 78.3%)    60.3%
 T-DIPOLE    1.6717        O 16 --  H 17          +11.4% ( 70.3%)     0.1%
 TRAVEL      0.0926        O  4 --  O 16           +9.4% ( 64.0%)    12.5%
 RED. MASS   2.3626        C  2 --  O  4           +9.3% ( 63.3%)     2.5%
 EFF. MASS  14.4744

 VIBRATION   12   12A       ATOM PAIR        ENERGY CONTRIBUTION    RADIAL
 FREQ.       570.26        H 15 --  O 16          +33.1% (100.4%)     0.0%
 T-DIPOLE    0.6613        O  4 --  H 17          +15.0% ( 67.6%)     1.0%
 TRAVEL      0.1494        O 16 --  H 17          +12.1% ( 60.8%)    52.9%
 RED. MASS   0.7055        O  4 --  O 16           +7.0% ( 46.1%)    47.6%
 EFF. MASS   5.3009

 VIBRATION   13   13A       ATOM PAIR        ENERGY CONTRIBUTION    RADIAL
 FREQ.       607.63        C  2 --  O  4          +17.7% ( 92.1%)    26.0%
 T-DIPOLE    2.5430        C  2 --  O 16          +16.2% ( 88.0%)    25.3%
 TRAVEL      0.0885        C  1 --  C  2          +14.7% ( 83.8%)     0.0%
 RED. MASS   2.3625        C  2 --  O  3          +12.6% ( 77.6%)     0.2%
 EFF. MASS  14.1822

 VIBRATION   14   14A       ATOM PAIR        ENERGY CONTRIBUTION    RADIAL
 FREQ.       666.46        C  2 --  O 16          +19.7% ( 77.8%)    81.2%
 T-DIPOLE    4.7899        O  4 --  O 16          +14.4% ( 66.6%)    90.2%
 TRAVEL      0.0916        C  2 --  O  4          +10.5% ( 56.7%)     1.0%
 RED. MASS   3.5380        H 15 --  O 16           +9.7% ( 54.5%)    13.4%
 EFF. MASS  12.0578

 VIBRATION   15   15A       ATOM PAIR        ENERGY CONTRIBUTION    RADIAL
 FREQ.       741.16        C  2 --  O  4          +19.4% ( 75.2%)    92.1%
 T-DIPOLE    3.6977        O  4 --  H 17          +16.7% ( 69.8%)    11.0%
 TRAVEL      0.0908        O  4 --  C  5          +16.5% ( 69.3%)     0.8%
 RED. MASS   4.7899        O  4 --  O 16          +16.1% ( 68.6%)    62.9%
 EFF. MASS  11.0326

 VIBRATION   16   16A       ATOM PAIR        ENERGY CONTRIBUTION    RADIAL
 FREQ.       858.59        C  5 --  H 11          +25.1% ( 72.9%)    10.5%
 T-DIPOLE    0.5293        C  5 --  H 10          +25.1% ( 72.9%)     8.8%
 TRAVEL      0.1748        C  6 --  H 13          +17.7% ( 61.2%)     4.2%
 RED. MASS   0.2836        C  6 --  H 12          +14.0% ( 54.4%)     4.7%
 EFF. MASS   2.5716

 VIBRATION   17   17A       ATOM PAIR        ENERGY CONTRIBUTION    RADIAL
 FREQ.       965.84        C  6 --  H 14          +16.8% ( 66.3%)    21.1%
 T-DIPOLE    1.3934        O  4 --  C  5          +12.8% ( 57.8%)    98.3%
 TRAVEL      0.0910        C  6 --  H 12           +9.6% ( 50.1%)     5.3%
 RED. MASS   1.1137        C  2 --  O  4           +7.4% ( 44.0%)    46.3%
 EFF. MASS   8.4272

 VIBRATION   18   18A       ATOM PAIR        ENERGY CONTRIBUTION    RADIAL
 FREQ.      1004.47        C  1 --  H  9          +17.6% ( 60.5%)     1.0%
 T-DIPOLE    0.8955        C  1 --  C  2          +15.7% ( 57.2%)    83.1%
 TRAVEL      0.1029        H 15 --  O 16          +14.4% ( 54.7%)     7.5%
 RED. MASS   0.8249        C  1 --  H  8          +13.7% ( 53.4%)    28.6%
 EFF. MASS   6.3351        C  1 --  H  7          +11.8% ( 49.5%)    35.4%

 VIBRATION   19   19A       ATOM PAIR        ENERGY CONTRIBUTION    RADIAL
 FREQ.      1049.35        C  1 --  H  7          +22.6% ( 63.8%)     7.8%
 T-DIPOLE    2.4745        C  1 --  H  9          +18.2% ( 57.3%)    23.0%
 TRAVEL      0.1112        C  1 --  C  2          +13.5% ( 49.3%)    17.3%
 RED. MASS   0.7278        C  1 --  H  8          +10.4% ( 43.2%)     4.9%
 EFF. MASS   5.1983

 VIBRATION   20   20A       ATOM PAIR        ENERGY CONTRIBUTION    RADIAL
 FREQ.      1055.18        H 15 --  O 16          +26.6% ( 61.3%)     3.0%
 T-DIPOLE    0.9972        C  1 --  H  8          +25.7% ( 60.3%)    22.9%
 TRAVEL      0.1187        C  1 --  H  9          +13.5% ( 43.7%)     5.4%
 RED. MASS   0.5822        C  1 --  H  7          +12.2% ( 41.5%)     2.3%
 EFF. MASS   4.5381

 VIBRATION   21   21A       ATOM PAIR        ENERGY CONTRIBUTION    RADIAL
 FREQ.      1083.01        C  5 --  H 10          +16.8% ( 51.8%)    14.7%
 T-DIPOLE    0.9714        C  5 --  H 11          +15.7% ( 50.1%)    12.3%
 TRAVEL      0.1399        O  4 --  H 17          +12.6% ( 45.0%)    10.5%
 RED. MASS   0.2961        O 16 --  H 17          +12.4% ( 44.5%)     2.9%
 EFF. MASS   3.1827

 VIBRATION   22   22A       ATOM PAIR        ENERGY CONTRIBUTION    RADIAL
 FREQ.      1099.67        C  1 --  C  2          +17.6% ( 56.5%)    52.9%
 T-DIPOLE    1.7772        C  1 --  H  8          +14.4% ( 51.2%)     2.1%
 TRAVEL      0.0971        C  1 --  H  7          +10.0% ( 42.7%)    37.0%
 RED. MASS   0.9286        C  2 --  O  3           +9.3% ( 41.2%)    18.1%
 EFF. MASS   6.5059

 VIBRATION   23   23A       ATOM PAIR        ENERGY CONTRIBUTION    RADIAL
 FREQ.      1147.84        C  5 --  C  6          +31.5% ( 91.6%)    96.6%
 T-DIPOLE    0.9045        O  4 --  C  5          +12.5% ( 57.8%)    13.2%
 TRAVEL      0.0759        C  5 --  H 11          +12.0% ( 56.5%)     4.4%
 RED. MASS   3.7027        C  5 --  H 10          +11.0% ( 54.1%)    40.4%
 EFF. MASS  10.2013

 VIBRATION   24   24A       ATOM PAIR        ENERGY CONTRIBUTION    RADIAL
 FREQ.      1158.28        O  4 --  C  5          +16.2% ( 55.4%)    69.9%
 T-DIPOLE    1.1998        C  5 --  C  6          +15.3% ( 53.9%)    18.5%
 TRAVEL      0.0922        C  5 --  H 10          +12.1% ( 47.9%)     0.0%
 RED. MASS   1.1195        C  6 --  H 13           +9.9% ( 43.3%)    42.5%
 EFF. MASS   6.8418

 VIBRATION   25   25A       ATOM PAIR        ENERGY CONTRIBUTION    RADIAL
 FREQ.      1168.17        C  5 --  H 11          +30.8% ( 64.5%)     1.0%
 T-DIPOLE    0.4995        C  5 --  H 10          +18.5% ( 50.0%)     6.0%
 TRAVEL      0.1237        O  4 --  C  5           +9.9% ( 36.6%)    91.3%
 RED. MASS   0.4549        C  5 --  C  6           +7.5% ( 31.9%)     1.5%
 EFF. MASS   3.7715

 VIBRATION   26   26A       ATOM PAIR        ENERGY CONTRIBUTION    RADIAL
 FREQ.      1190.81        O  4 --  H 17          +16.0% ( 52.8%)    12.5%
 T-DIPOLE    1.2455        O 16 --  H 17          +15.3% ( 51.6%)     6.9%
 TRAVEL      0.0983        O  4 --  C  5           +9.3% ( 40.2%)    72.5%
 RED. MASS   0.6848        C  1 --  C  2           +8.0% ( 37.3%)    63.9%
 EFF. MASS   5.8655

 VIBRATION   27   27A       ATOM PAIR        ENERGY CONTRIBUTION    RADIAL
 FREQ.      1229.64        C  1 --  H  8          +50.8% ( 62.2%)     0.0%
 T-DIPOLE    0.7783        C  1 --  H  9          +22.0% ( 40.9%)     5.4%
 TRAVEL      0.1909        C  1 --  H  7          +21.9% ( 40.8%)    11.8%
 RED. MASS   0.3988        C  1 --  C  2           +4.5% ( 18.4%)    14.4%
 EFF. MASS   1.5043

 VIBRATION   28   28A       ATOM PAIR        ENERGY CONTRIBUTION    RADIAL
 FREQ.      1244.64        C  1 --  H  7          +46.5% ( 60.0%)     1.3%
 T-DIPOLE    0.8452        C  1 --  H  9          +40.3% ( 55.8%)     2.5%
 TRAVEL      0.1832        C  1 --  H  8           +7.3% ( 23.7%)    82.9%
 RED. MASS   0.4469        C  1 --  C  2           +5.4% ( 20.4%)     7.5%
 EFF. MASS   1.6134

 VIBRATION   29   29A       ATOM PAIR        ENERGY CONTRIBUTION    RADIAL
 FREQ.      1260.70        C  6 --  H 14          +43.8% ( 56.3%)     0.9%
 T-DIPOLE    0.6147        C  6 --  H 13          +38.7% ( 52.9%)     1.6%
 TRAVEL      0.1931        C  6 --  H 12          +12.0% ( 29.4%)    31.3%
 RED. MASS   0.3889        C  5 --  C  6           +3.4% ( 15.8%)     0.4%
 EFF. MASS   1.4338

 VIBRATION   30   30A       ATOM PAIR        ENERGY CONTRIBUTION    RADIAL
 FREQ.      1275.46        C  6 --  H 12          +50.5% ( 60.8%)     0.0%
 T-DIPOLE    0.6254        C  6 --  H 13          +24.5% ( 42.4%)     7.0%
 TRAVEL      0.1900        C  6 --  H 14          +19.7% ( 38.0%)     9.6%
 RED. MASS   0.3883        C  5 --  C  6           +3.8% ( 16.6%)     0.7%
 EFF. MASS   1.4652

 VIBRATION   31   31A       ATOM PAIR        ENERGY CONTRIBUTION    RADIAL
 FREQ.      1312.91        C  5 --  H 10          +41.3% ( 65.6%)     0.6%
 T-DIPOLE    0.2441        C  5 --  H 11          +38.4% ( 63.2%)     0.6%
 TRAVEL      0.1521        C  5 --  C  6           +8.1% ( 29.0%)    14.4%
 RED. MASS   0.5232        O  4 --  C  5           +5.6% ( 24.2%)    96.7%
 EFF. MASS   2.2194

 VIBRATION   32   32A       ATOM PAIR        ENERGY CONTRIBUTION    RADIAL
 FREQ.      1316.13        C  5 --  H 10          +36.0% ( 60.2%)     1.3%
 T-DIPOLE    0.1713        C  5 --  H 11          +33.3% ( 57.8%)     1.0%
 TRAVEL      0.1582        C  5 --  C  6           +7.9% ( 28.2%)    98.7%
 RED. MASS   0.3687        C  6 --  H 12           +6.9% ( 26.4%)     0.4%
 EFF. MASS   2.0468

 VIBRATION   33   33A       ATOM PAIR        ENERGY CONTRIBUTION    RADIAL
 FREQ.      1347.64        C  1 --  H  8          +32.3% ( 58.4%)     2.4%
 T-DIPOLE    1.2523        C  1 --  H  9          +31.9% ( 58.0%)     1.3%
 TRAVEL      0.1436        C  1 --  H  7          +24.9% ( 51.3%)     0.8%
 RED. MASS   0.5245        C  1 --  C  2           +8.7% ( 30.3%)    92.6%
 EFF. MASS   2.4266

 VIBRATION   34   34A       ATOM PAIR        ENERGY CONTRIBUTION    RADIAL
 FREQ.      1373.81        C  6 --  H 14          +26.2% ( 51.2%)     0.6%
 T-DIPOLE    0.8527        C  6 --  H 12          +23.5% ( 48.5%)     2.0%
 TRAVEL      0.1499        C  6 --  H 13          +22.7% ( 47.6%)     1.2%
 RED. MASS   0.3496        C  5 --  H 10           +9.8% ( 31.3%)     0.7%
 EFF. MASS   2.1847

 VIBRATION   35   35A       ATOM PAIR        ENERGY CONTRIBUTION    RADIAL
 FREQ.      1703.98        C  2 --  O  3          +40.3% ( 95.6%)    97.4%
 T-DIPOLE    6.7955        C  1 --  C  2          +19.5% ( 66.6%)    67.4%
 TRAVEL      0.0559        C  2 --  O  4          +18.7% ( 65.1%)     3.6%
 RED. MASS   6.2351        C  2 --  O 16          +18.6% ( 65.0%)     2.6%
 EFF. MASS  12.6812

 VIBRATION   36   36A       ATOM PAIR        ENERGY CONTRIBUTION    RADIAL
 FREQ.      2065.86        O  4 --  H 17          +48.9% ( 95.8%)    47.1%
 T-DIPOLE    1.5044        O 16 --  H 17          +48.6% ( 95.5%)    40.6%
 TRAVEL      0.1506        C  2 --  O  3           +0.7% ( 11.1%)    69.1%
 RED. MASS   0.8990        C  2 --  O  4           +0.4% (  9.0%)    83.5%
 EFF. MASS   1.4394

 VIBRATION   37   37A       ATOM PAIR        ENERGY CONTRIBUTION    RADIAL
 FREQ.      2642.19        C  5 --  H 11          +34.5% ( 60.9%)    98.2%
 T-DIPOLE    0.1582        C  5 --  H 10          +34.1% ( 60.6%)    98.2%
 TRAVEL      0.1332        C  6 --  H 13          +12.8% ( 37.1%)    99.2%
 RED. MASS   0.2702        C  6 --  H 12           +6.8% ( 27.0%)    95.7%
 EFF. MASS   1.4377

 VIBRATION   38   38A       ATOM PAIR        ENERGY CONTRIBUTION    RADIAL
 FREQ.      2642.83        C  1 --  H  7          +46.8% ( 70.7%)    98.4%
 T-DIPOLE    1.1017        C  1 --  H  8          +41.6% ( 66.7%)    97.4%
 TRAVEL      0.1329        C  5 --  H 11           +3.7% ( 20.0%)    98.2%
 RED. MASS   0.4083        C  5 --  H 10           +3.7% ( 19.9%)    98.2%
 EFF. MASS   1.4448

 VIBRATION   39   39A       ATOM PAIR        ENERGY CONTRIBUTION    RADIAL
 FREQ.      2646.83        C  1 --  H  9          +65.1% ( 83.4%)    99.6%
 T-DIPOLE    1.0662        C  1 --  H  8          +20.5% ( 46.7%)    89.5%
 TRAVEL      0.1326        C  1 --  H  7          +13.5% ( 37.9%)    82.6%
 RED. MASS   0.5000        C  1 --  C  2           +0.9% (  9.8%)     0.0%
 EFF. MASS   1.4489

 VIBRATION   40   40A       ATOM PAIR        ENERGY CONTRIBUTION    RADIAL
 FREQ.      2663.72        C  6 --  H 14          +65.0% ( 83.2%)    99.7%
 T-DIPOLE    0.8356        C  6 --  H 12          +15.9% ( 41.1%)    85.4%
 TRAVEL      0.1323        C  6 --  H 13          +15.6% ( 40.8%)    85.9%
 RED. MASS   0.4879        C  5 --  H 10           +2.5% ( 16.3%)    99.6%
 EFF. MASS   1.4473

 VIBRATION   41   41A       ATOM PAIR        ENERGY CONTRIBUTION    RADIAL
 FREQ.      2673.03        C  6 --  H 12          +39.6% ( 64.7%)    98.2%
 T-DIPOLE    1.0698        C  6 --  H 13          +37.8% ( 63.2%)    97.5%
 TRAVEL      0.1310        C  5 --  H 11          +11.0% ( 34.1%)    98.2%
 RED. MASS   0.3331        C  5 --  H 10           +9.6% ( 31.8%)    97.7%
 EFF. MASS   1.4698

 VIBRATION   42   42A       ATOM PAIR        ENERGY CONTRIBUTION    RADIAL
 FREQ.      2715.65        C  5 --  H 11          +48.8% ( 68.8%)    96.5%
 T-DIPOLE    0.3528        C  5 --  H 10          +48.0% ( 68.2%)    96.4%
 TRAVEL      0.1425        C  6 --  H 14           +2.0% ( 14.0%)    98.7%
 RED. MASS   0.4622        C  5 --  C  6           +0.5% (  6.9%)    52.7%
 EFF. MASS   1.2236

 VIBRATION   43   43A       ATOM PAIR        ENERGY CONTRIBUTION    RADIAL
 FREQ.      2760.10        H 15 --  O 16          +90.1% ( 94.6%)    99.7%
 T-DIPOLE    1.7333        C  1 --  H  7           +2.9% ( 17.1%)    95.6%
 TRAVEL      0.1360        C  1 --  H  9           +2.8% ( 16.6%)    95.8%
 RED. MASS   0.7716        C  1 --  H  8           +2.7% ( 16.5%)    96.7%
 EFF. MASS   1.3203

 VIBRATION   44   44A       ATOM PAIR        ENERGY CONTRIBUTION    RADIAL
 FREQ.      2773.57        C  1 --  H  7          +30.2% ( 52.7%)    95.4%
 T-DIPOLE    0.5714        C  1 --  H  9          +29.6% ( 52.2%)    95.0%
 TRAVEL      0.1439        C  1 --  H  8          +29.3% ( 51.9%)    94.9%
 RED. MASS   0.2731        H 15 --  O 16           +9.8% ( 30.0%)    99.7%
 EFF. MASS   1.1736

 VIBRATION   45   45A       ATOM PAIR        ENERGY CONTRIBUTION    RADIAL
 FREQ.      2781.61        C  6 --  H 12          +36.7% ( 58.1%)    96.0%
 T-DIPOLE    0.5366        C  6 --  H 13          +31.6% ( 53.9%)    95.2%
 TRAVEL      0.1455        C  6 --  H 14          +30.1% ( 52.6%)    94.7%
 RED. MASS   0.3203        C  5 --  H 11           +0.4% (  6.3%)    74.5%
 EFF. MASS   1.1457

           FORCE CONSTANT IN CARTESIAN COORDINATES (Millidynes/A)

    ATOM   CHEMICAL       X               Y               Z
   NUMBER   SYMBOL  FORCE CONSTANT  FORCE CONSTANT  FORCE CONSTANT

      1       C        7.235090        6.288327        6.136697
      2       C       10.801401        8.131489        2.126844
      3       O        4.913974        8.077063        0.920792
      4       O        4.543492        2.753057        4.983980
      5       C        6.640538        7.219727        6.741820
      6       C        6.319194        6.686149        6.620265
      7       H        1.228395        0.560534        3.447731
      8       H        1.303598        2.978296        0.994837
      9       H        1.204586        2.506913        1.549067
     10       H        0.761891        3.318668        1.435870
     11       H        2.953951        0.712912        1.843207
     12       H        0.545367        3.427713        1.402657
     13       H        2.637777        0.678891        2.023596
     14       H        2.942307        0.668760        1.718700
     15       H        2.997902        0.646548        1.480812
     16       O        3.927957        1.788795        3.776496
     17       H        0.919938        2.121149       -0.565932

 **********************
 *                    *
 * JOB ENDED NORMALLY *
 *                    *
 **********************



 TOTAL JOB TIME:             1.16 SECONDS

 == MOPAC DONE ==
