 *******************************************************************************
 ** Site#: 10005        For non-commercial use only     Version 15.315W 64BITS**
 *******************************************************************************
 ** Cite this work as:                                                        **
 **                                                                           **
 ** (a) MOPAC2012, James J. P. Stewart, Stewart Computational Chemistry,      **
 **  Version 15.315W web: HTTP://OpenMOPAC.net         Days remaining: 365    **
 **                                                                           **
 **                                 AND                                       **
 **                                                                           **
 ** (b) Maia, J.D.C., et al., J. Chem. Theory Comput. 2012, 8, 3072-3081.     **
 **                DOI: 10.1021/ct3004645.                                    **
 *******************************************************************************
 **                                                                           **
 **                                MOPAC2012                                  **
 **                                                                           **
 *******************************************************************************

                              PM7 CALCULATION RESULTS


 *******************************************************************************
 *  CALCULATION DONE:                                Wed Nov 11 17:16:35 2015  *
 *  GEO_DAT    - DATA SET GEOMETRY IS IN FILE "STEP_2_3.ARC"
 *  EPS= 78.40 - USE ANDREAS KLAMT'S COSMO IMPLICIT SOLVATION MODEL
 *  IRC=N      - INTRINSIC REACTION COORDINATE -1 DEFINED
 *  LET        - OVERRIDE SOME SAFETY CHECKS
 *  PRECISE    - CRITERIA TO BE INCREASED BY 100 TIMES
 *  T=         - A TIME OF 172800.0 SECONDS REQUESTED
 *  DUMP=N     - RESTART FILE WRITTEN EVERY  7200.000 SECONDS
 *  X-PRIOR    - GEOMETRY CHANGES TAKE PRIORITY IN DRC
 *******************************************************************************
 irc=-1* eps=78.4  let HTML x-priority=0.2 precise geo_dat="Step_2_3.arc"
 Transition state for Step 2 to Step 3

   ATOM                 CHEMICAL                   X               Y               Z
  NUMBER                 SYMBOL               (ANGSTROMS)     (ANGSTROMS)     (ANGSTROMS)
 
     1       C(HETATM    1  C1  HET A   3)   -0.07683328     -0.00606870     -0.04381540   
     2       C(HETATM    2  C2  HET A   3)    1.28833238      0.21714204      0.53069205   
     3       O(HETATM    3  O1  HET A   3)    2.03858826      1.17322249      0.32908578   
     4       O(HETATM    4  O2  HET A   3)    1.98555698     -1.16335388      0.44493036   
     5       C(HETATM    5  C3  HET A   3)    3.38131874     -1.18143643      0.11319077   
     6       C(HETATM    6  C4  HET A   3)    3.74139100     -2.65019450     -0.02901221   
     7       H(HETATM    7 1H1  HET A   3)   -0.02783825     -0.45904355     -1.04519013   
     8       H(HETATM    8 2H1  HET A   3)   -0.68856805     -0.67631171      0.58187469   
     9       H(HETATM    9 3H1  HET A   3)   -0.61964541      0.94751594     -0.14056488   
    10       H(HETATM   10 1H3  HET A   3)    3.49563865     -0.61937809     -0.83122671   
    11       H(HETATM   11 2H3  HET A   3)    3.94582022     -0.67127925      0.91332436   
    12       H(HETATM   12 1H4  HET A   3)    3.45619409     -3.22806116      0.85973318   
    13       H(HETATM   13 2H4  HET A   3)    3.24220426     -3.11398578     -0.88897891   
    14       H(HETATM   14 3H4  HET A   3)    4.82299140     -2.77758469     -0.16929052   
    15       H(HETATM   15 1H   HOH A   5)    1.70589433      0.44677040      2.62313997   
    16       O(HETATM   16  O   HOH A   5)    1.12388424     -0.10121705      2.04971634   
    17       H(HETATM   17 2H   HOH A   5)    1.78642259     -1.21057849      1.73299611   
 

     ===================== shared-memory parallel CPU Section ======================
     **                                                                           **
     **  MOPAC calculations will run in shared-memory parallel CPUs               **
     **                                                                           **
     **  Number of Threads =  4                                                   **
     **                                                                           **
     **                                                                           **
     **  For information on this work, see:                                       **
     **                                                                           **
     **  Maia, J.D.C., et al., J. Chem. Theory Comput. 2012, 8, 3072-3081.        **
     **        DOI: 10.1021/ct3004645.                                            **
     **                                                                           **
     ===================== shared-memory parallel CPU Section ======================
      


 General Reference for PM7:
 "Optimization of Parameters for Semiempirical Methods VI: More Modifications to the 
 NDDO Approximations and Re-optimization of Parameters", J. J. P. Stewart, J. Mol. Mod., 1:32, 19 (2013)
 http://www.springerlink.com/openurl.asp?genre=article&id=doi:10.1007/s00894-012-1667-x

           Empirical Formula: C4 H10 O3  =    17 atoms



      MOLECULAR POINT GROUP   :   C1  


      RHF CALCULATION, NO. OF DOUBLY OCCUPIED LEVELS =   22



          HEAT OF FORMATION =    -141.117381 KCALS/MOLE


          GRADIENT NORM =   5.02471


          TIME FOR SCF CALCULATION =    0.03

          TIME FOR DERIVATIVES     =    0.03

          MOLECULAR WEIGHT =  106.12


          ESTIMATED TIME TO COMPLETE CALCULATION =       12.75 SECONDS

    FOR POINT-GROUP C1   THERE ARE   1 UNIQUE SYMMETRY FUNCTIONS.

 STEP:   1 TIME =     0.05 SECS, INTEGRAL =      0.05 TIME LEFT: 172799.89
 STEP:   2 TIME =     0.06 SECS, INTEGRAL =      0.11 TIME LEFT: 172799.83
 STEP:   3 TIME =     0.06 SECS, INTEGRAL =      0.17 TIME LEFT: 172799.77
 STEP:   4 TIME =     0.06 SECS, INTEGRAL =      0.23 TIME LEFT: 172799.70
 STEP:   5 TIME =     0.05 SECS, INTEGRAL =      0.28 TIME LEFT: 172799.66
 STEP:   6 TIME =     0.05 SECS, INTEGRAL =      0.33 TIME LEFT: 172799.61
 STEP:   7 TIME =     0.05 SECS, INTEGRAL =      0.38 TIME LEFT: 172799.56
 STEP:   8 TIME =     0.06 SECS, INTEGRAL =      0.44 TIME LEFT: 172799.50
 STEP:   9 TIME =     0.06 SECS, INTEGRAL =      0.50 TIME LEFT: 172799.44
 STEP:  10 TIME =     0.05 SECS, INTEGRAL =      0.55 TIME LEFT: 172799.39
 STEP:  11 TIME =     0.06 SECS, INTEGRAL =      0.61 TIME LEFT: 172799.33
 STEP:  12 TIME =     0.06 SECS, INTEGRAL =      0.67 TIME LEFT: 172799.27
 STEP:  13 TIME =     0.05 SECS, INTEGRAL =      0.72 TIME LEFT: 172799.22
 STEP:  14 TIME =     0.05 SECS, INTEGRAL =      0.77 TIME LEFT: 172799.17
 STEP:  15 TIME =     0.05 SECS, INTEGRAL =      0.81 TIME LEFT: 172799.12
 STEP:  16 TIME =     0.06 SECS, INTEGRAL =      0.88 TIME LEFT: 172799.06
 STEP:  17 TIME =     0.05 SECS, INTEGRAL =      0.92 TIME LEFT: 172799.02
 STEP:  18 TIME =     0.06 SECS, INTEGRAL =      0.98 TIME LEFT: 172798.95
 STEP:  19 TIME =     0.05 SECS, INTEGRAL =      1.03 TIME LEFT: 172798.91
 STEP:  20 TIME =     0.06 SECS, INTEGRAL =      1.09 TIME LEFT: 172798.84
 STEP:  21 TIME =     0.05 SECS, INTEGRAL =      1.14 TIME LEFT: 172798.80
 STEP:  22 TIME =     0.05 SECS, INTEGRAL =      1.19 TIME LEFT: 172798.75
 STEP:  23 TIME =     0.06 SECS, INTEGRAL =      1.25 TIME LEFT: 172798.69
 STEP:  24 TIME =     0.05 SECS, INTEGRAL =      1.30 TIME LEFT: 172798.64
 STEP:  25 TIME =     0.05 SECS, INTEGRAL =      1.34 TIME LEFT: 172798.59
 STEP:  26 TIME =     0.04 SECS, INTEGRAL =      1.39 TIME LEFT: 172798.55
 STEP:  27 TIME =     0.05 SECS, INTEGRAL =      1.43 TIME LEFT: 172798.50
 STEP:  28 TIME =     0.05 SECS, INTEGRAL =      1.48 TIME LEFT: 172798.46
 STEP:  29 TIME =     0.06 SECS, INTEGRAL =      1.54 TIME LEFT: 172798.39
 STEP:  30 TIME =     0.05 SECS, INTEGRAL =      1.59 TIME LEFT: 172798.35
 STEP:  31 TIME =     0.05 SECS, INTEGRAL =      1.64 TIME LEFT: 172798.30
 STEP:  32 TIME =     0.05 SECS, INTEGRAL =      1.68 TIME LEFT: 172798.25
 STEP:  33 TIME =     0.05 SECS, INTEGRAL =      1.73 TIME LEFT: 172798.21
 STEP:  34 TIME =     0.05 SECS, INTEGRAL =      1.78 TIME LEFT: 172798.16
 STEP:  35 TIME =     0.05 SECS, INTEGRAL =      1.82 TIME LEFT: 172798.11
 STEP:  36 TIME =     0.05 SECS, INTEGRAL =      1.87 TIME LEFT: 172798.07
 STEP:  37 TIME =     0.05 SECS, INTEGRAL =      1.92 TIME LEFT: 172798.02
 STEP:  38 TIME =     0.05 SECS, INTEGRAL =      1.96 TIME LEFT: 172797.97
 STEP:  39 TIME =     0.06 SECS, INTEGRAL =      2.03 TIME LEFT: 172797.91
 STEP:  40 TIME =     0.06 SECS, INTEGRAL =      2.09 TIME LEFT: 172797.85
 STEP:  41 TIME =     0.05 SECS, INTEGRAL =      2.14 TIME LEFT: 172797.80
 STEP:  42 TIME =     0.05 SECS, INTEGRAL =      2.18 TIME LEFT: 172797.75
 STEP:  43 TIME =     0.05 SECS, INTEGRAL =      2.23 TIME LEFT: 172797.71
 STEP:  44 TIME =     0.05 SECS, INTEGRAL =      2.28 TIME LEFT: 172797.66
 STEP:  45 TIME =     0.05 SECS, INTEGRAL =      2.32 TIME LEFT: 172797.61
 STEP:  46 TIME =     0.05 SECS, INTEGRAL =      2.37 TIME LEFT: 172797.57
 STEP:  47 TIME =     0.05 SECS, INTEGRAL =      2.42 TIME LEFT: 172797.52
 STEP:  48 TIME =     0.05 SECS, INTEGRAL =      2.46 TIME LEFT: 172797.47
 STEP:  49 TIME =     0.05 SECS, INTEGRAL =      2.51 TIME LEFT: 172797.43
 STEP:  50 TIME =     0.06 SECS, INTEGRAL =      2.57 TIME LEFT: 172797.36
 STEP:  51 TIME =     0.05 SECS, INTEGRAL =      2.62 TIME LEFT: 172797.32
           INITIAL VELOCITY IN DRC (Angstroms/Femtosecond)
         0.00046        -0.00023         0.00466
         0.00084         0.00024        -0.07791
        -0.00034         0.00039         0.00448
        -0.00639         0.03641        -0.00394
        -0.01298         0.00339         0.01019
        -0.00126        -0.00162         0.00277
        -0.01160        -0.00240         0.00645
         0.00618        -0.00137         0.00509
         0.00554        -0.00245         0.00679
         0.02785        -0.00169        -0.01245
        -0.01239        -0.01067         0.00939
        -0.00345         0.00338         0.00890
         0.00151        -0.00245         0.00372
        -0.00073         0.00210         0.00770
         0.02595        -0.02474         0.01519
         0.01343        -0.03824        -0.00078
         0.00914         0.04196         0.67161

 GEOMETRY PRIORITY, STEP = 0.2000 ANGSTROMS



     POINT   POTENTIAL  +  ENERGY LOST   =   TOTAL      ERROR    REF%   MOVEMENT
       1    -141.11738      0.00000       -141.11738   0.00000     1   %  0.0000
      13    -141.54138      0.89792       -140.64346   0.47392     2   %  0.1612
      28    -143.58076      3.21927       -140.36150   0.75588     3   %  0.3495
      43    -146.76566      6.40328       -140.36238   0.75500     4   %  0.5490
      55    -149.55052      9.14051       -140.41001   0.70737     5   %  0.7308
      65    -152.24636     11.57922       -140.66714   0.45024     6   %  0.9124
      75    -154.54433     13.92190       -140.62243   0.49496     7   %  1.1144
      83    -156.26761     15.65488       -140.61274   0.50464     8   %  1.2854
      91    -158.02009     17.43203       -140.58806   0.52932     9   %  1.4793
      98    -159.49772     18.90694       -140.59078   0.52660    10   %  1.6490
     105    -160.85284     20.37344       -140.47939   0.63799    11   %  1.8248
     112    -162.35882     21.80636       -140.55247   0.56491    12   %  2.0043
     119    -163.77332     23.17939       -140.59393   0.52345    13   %  2.1885
     125    -165.11450     24.29330       -140.82120   0.29618    14   %  2.3496
     132    -166.43180     25.58040       -140.85141   0.26598    15   %  2.5561
     139    -167.50912     26.59109       -140.91803   0.19936    16   %  2.7358
     145    -168.33280     27.48863       -140.84418   0.27321    17   %  2.9132
     151    -169.02787     28.22129       -140.80658   0.31080    18   %  3.0634
     158    -169.73346     29.01916       -140.71430   0.40308    19   %  3.2179
     165    -170.22298     29.66844       -140.55455   0.56283    20   %  3.3432
     172    -170.66108     30.30683       -140.35425   0.76313    21   %  3.4629
     179    -171.05077     30.89875       -140.15202   0.96536    22   %  3.5730
     186    -171.38103     31.48004       -139.90099   1.21639    23   %  3.6757
     193    -171.67190     32.05055       -139.62135   1.49603    24   %  3.7721
     201    -171.94884     32.61440       -139.33443   1.78295    25   %  3.8634
     209    -172.17385     33.13371       -139.04014   2.07724    26   %  3.9431
     217    -172.34861     33.68567       -138.66294   2.45444    27   %  4.0218
     226    -172.54454     34.30087       -138.24367   2.87371    28   %  4.1041
     235    -172.77659     34.88928       -137.88730   3.23008    29   %  4.1784
     244    -172.91795     35.48511       -137.43284   3.68454    30   %  4.2487
     253    -173.06256     36.06059       -137.00198   4.11541    31   %  4.3125
     263    -173.15684     36.70933       -136.44751   4.66987    32   %  4.3794
     273    -173.27699     37.35584       -135.92115   5.19623    33   %  4.4404
     283    -173.35589     38.01368       -135.34220   5.77518    34   %  4.4982
     294    -173.42573     38.76570       -134.66002   6.45736    35   %  4.5596
     304    -173.43296     39.46949       -133.96347   7.15391    36   %  4.6138
     315    -173.62602     40.25825       -133.36778   7.74961    37   %  4.6632
     325    -173.68317     41.01702       -132.66615   8.45123    38   %  4.7092
     336    -173.59811     41.89612       -131.70198   9.41540    39   %  4.7604
     347    -173.67566     42.82564       -130.85001  10.26737    40   %  4.8037
     360    -173.66588     44.31358       -129.35230  11.76508    41   %  4.8645
     372    -173.69608     45.98832       -127.70776  13.40963    42   %  4.9181
     385    -173.79348     48.03895       -125.75452  15.36286    43   %  4.9699
     399    -173.81267     49.45806       -124.35461  16.76277    44   %  5.0138
     412    -173.87041     50.48933       -123.38108  17.73630    45   %  5.0449
     426    -173.86005     51.99814       -121.86191  19.25547    46   %  5.0827
     439    -173.75837     54.07500       -119.68337  21.43401    47   %  5.1243
     454    -173.88895     55.56528       -118.32367  22.79371    48   %  5.1552
     468    -173.83512     56.82335       -117.01177  24.10561    49   %  5.1818
     482    -173.74090     58.52122       -115.21968  25.89770    50   %  5.2108
     497    -173.80538     60.17920       -113.62618  27.49120    51   %  5.2368


           POTENTIAL ENERGY HAS STOPPED DROPPING

           INITIAL VELOCITY IN DRC (Angstroms/Femtosecond)
        -0.00046         0.00023        -0.00466
        -0.00084        -0.00024         0.07791
         0.00034        -0.00039        -0.00448
         0.00639        -0.03641         0.00394
         0.01298        -0.00339        -0.01019
         0.00126         0.00162        -0.00277
         0.01160         0.00240        -0.00645
        -0.00618         0.00137        -0.00509
        -0.00554         0.00245        -0.00679
        -0.02785         0.00169         0.01245
         0.01239         0.01067        -0.00939
         0.00345        -0.00338        -0.00890
        -0.00151         0.00245        -0.00372
         0.00073        -0.00210        -0.00770
        -0.02595         0.02474        -0.01519
        -0.01343         0.03824         0.00078
        -0.00914        -0.04196        -0.67161

 GEOMETRY PRIORITY, STEP = 0.2000 ANGSTROMS



     POINT   POTENTIAL  +  ENERGY LOST   =   TOTAL      ERROR    REF%   MOVEMENT
       1    -141.11738      0.00000       -141.11738   0.00000     1   %  0.0000
      11    -141.23086      0.62531       -140.60556   0.51182     2   %  0.1273
      28    -143.45475      2.98225       -140.47250   0.64488     3   %  0.3255
      43    -147.04866      6.47546       -140.57319   0.54419     4   %  0.5027
      57    -150.61980     10.07897       -140.54084   0.57654     5   %  0.6788
      69    -153.80151     13.27367       -140.52784   0.58954     6   %  0.8537
      79    -156.61792     15.96986       -140.64806   0.46933     7   %  1.0290
      88    -159.31367     18.48731       -140.82636   0.29102     8   %  1.2207
      96    -161.52899     20.65049       -140.87850   0.23888     9   %  1.4001
     104    -163.77528     22.83704       -140.93824   0.17914    10   %  1.5880
     112    -165.95918     24.99390       -140.96528   0.15210    11   %  1.7785
     120    -168.26091     27.09695       -141.16396  -0.04658    12   %  1.9721
     127    -169.93871     28.79455       -141.14417  -0.02678    13   %  2.1419
     134    -171.50790     30.38704       -141.12086  -0.00348    14   %  2.3217
     142    -172.92647     31.85381       -141.07266   0.04472    15   %  2.5189
     149    -173.79946     32.90622       -140.89324   0.22414    16   %  2.6642
     158    -174.33913     33.77696       -140.56217   0.55521    17   %  2.7765
     168    -174.86432     34.70904       -140.15529   0.96209    18   %  2.8937
     177    -175.18771     35.46807       -139.71964   1.39774    19   %  2.9829
     188    -175.49286     36.29132       -139.20154   1.91584    20   %  3.0780
     199    -175.73300     37.06876       -138.66424   2.45314    21   %  3.1601
     210    -175.86864     37.80051       -138.06814   3.04925    22   %  3.2335
     221    -175.99507     38.52507       -137.47001   3.64738    23   %  3.2994
     232    -176.12883     39.22152       -136.90731   4.21007    24   %  3.3609
     244    -176.23948     39.97916       -136.26032   4.85706    25   %  3.4216
     256    -176.34163     40.73360       -135.60802   5.50936    26   %  3.4776
     268    -176.41497     41.49924       -134.91573   6.20165    27   %  3.5301
     280    -176.47667     42.29258       -134.18409   6.93329    28   %  3.5793
     292    -176.52624     43.11085       -133.41539   7.70200    29   %  3.6264
     305    -176.53192     44.02746       -132.50446   8.61293    30   %  3.6759
     317    -176.58128     44.94954       -131.63174   9.48564    31   %  3.7210
     329    -176.58703     46.00895       -130.57808  10.53930    32   %  3.7665
     342    -176.70343     47.29530       -129.40813  11.70925    33   %  3.8159
     354    -176.73817     48.74950       -127.98867  13.12871    34   %  3.8635
     366    -176.75770     50.24212       -126.51558  14.60180    35   %  3.9108
     378    -176.77280     51.86351       -124.90930  16.20808    36   %  3.9579
     390    -176.79549     53.68649       -123.10900  18.00838    37   %  4.0052
     402    -176.80624     55.72495       -121.08129  20.03609    38   %  4.0521
     414    -176.82227     57.98026       -118.84202  22.27537    39   %  4.0982
     427    -176.85754     59.33212       -117.52543  23.59195    40   %  4.1317
     441    -176.86279     60.46973       -116.39306  24.72432    41   %  4.1636
     454    -176.80648     61.86147       -114.94501  26.17237    42   %  4.1962
     467    -176.87296     63.46624       -113.40672  27.71066    43   %  4.2222
     481    -176.86428     65.32620       -111.53808  29.57930    44   %  4.2443
     493    -176.89961     67.31249       -109.58712  31.53026    45   %  4.2671
     508    -176.92092     68.53934       -108.38158  32.73580    46   %  4.2876
     522    -176.91823     69.81777       -107.10046  34.01692    47   %  4.3055
     535    -176.86825     71.41977       -105.44848  35.66890    48   %  4.3252
     549    -176.84396     72.97658       -103.86739  37.25000    49   %  4.3475


           POTENTIAL ENERGY HAS STOPPED DROPPING


 **********************
 *                    *
 * JOB ENDED NORMALLY *
 *                    *
 **********************



 TOTAL JOB TIME:            13.45 SECONDS

 == MOPAC DONE ==
