 *******************************************************************************
 ** Site#: 37037        For non-commercial use only           Version 21.151W **
 *******************************************************************************
 ** Cite this program as: MOPAC2016, Version: 21.151W, James J. P. Stewart,   **
 ** Stewart Computational Chemistry, web: HTTP://OpenMOPAC.net. Days left: 365**
 *******************************************************************************
 **                                                                           **
 **                                MOPAC2016                                  **
 **                                                                           **
 *******************************************************************************

                              PM7 CALCULATION RESULTS

 *******************************************************************************
 *  CALCULATION DONE:                                Mon May 31 17:38:34 2021  *
 *  GEO_DAT    - DATA SET GEOMETRY IS IN FILE "Locate-TS.arc"
 *  EPS=78.4   - USE ANDREAS KLAMT'S COSMO IMPLICIT SOLVATION MODEL
 *  IRC=N      - INTRINSIC REACTION COORDINATE  1 DEFINED
 *  DRC        - DYNAMIC REACTION COORDINATE CALCULATION
 *  LET        - OVERRIDE SOME SAFETY CHECKS
 *  PRECISE    - TIGHTER CRITERIA TO BE USED
 *  T=         - A TIME OF 172800.0 SECONDS REQUESTED
 *  DUMP=N     - RESTART FILE WRITTEN EVERY 7200.0 SECONDS REQUESTED
 *  CYCLES=    - DO A MAXIMUM OF 100 STEPS
 *  HTML       - WRITE HTML SCRIPT TO GENERATE ANIMATION USING JSMOL
 *             - TO DISPLAY IN PDB FORMAT, ADD "PDBOUT"
 *  X-PRIOR    - GEOMETRY CHANGES TAKE PRIORITY IN DRC
 *******************************************************************************
 irc=1* eps=78.4  let HTML x-priority=0.2 precise geo_dat="Locate-TS.arc" DRC cycles=100
 Dynamic Reaction Coordinate for Uncatalyzed Ester Hydrolysis

   ATOM                 CHEMICAL                   X               Y               Z
  NUMBER                 SYMBOL               (ANGSTROMS)     (ANGSTROMS)     (ANGSTROMS)
 
     1       C(HETATM    1  C1  HET A   3)   -0.07027133      0.00171893     -0.32939464   
     2       C(HETATM    2  C2  HET A   3)    1.39892676      0.03228252     -0.60733204   
     3       O(HETATM    3  O1  HET A   3)    2.21954406      0.84390729     -0.17902839   
     4       O(HETATM    4  O2  HET A   3)    1.52265440     -0.26333365     -2.11725251   
     5       C(HETATM    5  C3  HET A   3)    2.52677773      0.45200526     -2.84575751   
     6       C(HETATM    6  C4  HET A   3)    2.32951266      0.04590637     -4.29663835   
     7       H(HETATM    7 1H1  HET A   3)   -0.61718913      0.68177950     -1.00314220   
     8       H(HETATM    8 2H1  HET A   3)   -0.50420477     -1.00227321     -0.46569976   
     9       H(HETATM    9 3H1  HET A   3)   -0.28285889      0.30912597      0.70753834   
    10       H(HETATM   10 1H3  HET A   3)    2.34458818      1.52813456     -2.67167319   
    11       H(HETATM   11 2H3  HET A   3)    3.52244234      0.18229181     -2.45307325   
    12       H(HETATM   12 1H4  HET A   3)    2.34877830     -1.04554991     -4.42072274   
    13       H(HETATM   13 2H4  HET A   3)    1.36564386      0.39585040     -4.68862893   
    14       H(HETATM   14 3H4  HET A   3)    3.11826327      0.46287124     -4.93658218   
    15       H(HETATM   15 1H   HOH A   5)    2.79539801     -1.49566498     -0.06883149   
    16       O(HETATM   16  O   HOH A   5)    1.87474532     -1.44521236     -0.41189424   
    17       H(HETATM   17 2H   HOH A   5)    1.94867931     -1.44271601     -1.73401967   
 

 General Reference for PM7:
 "Optimization of Parameters for Semiempirical Methods VI: More Modifications to the 
 NDDO Approximations and Re-optimization of Parameters", J. J. P. Stewart, J. Mol. Mod., 1:32, 19 (2013)
 https://link.springer.com/article/10.1007/s00894-012-1667-x

           Empirical Formula: C4 H10 O3  =    17 atoms



      MOLECULAR POINT GROUP   :   C1  


      RHF CALCULATION, NO. OF DOUBLY OCCUPIED LEVELS = 22



          HEAT OF FORMATION =    -141.191635 KCALS/MOLE


          GRADIENT NORM =   2.79282


          TIME FOR SCF CALCULATION =    0.02

          TIME FOR DERIVATIVES     =    0.02

          MOLECULAR WEIGHT =  106.12


          ESTIMATED TIME TO COMPLETE CALCULATION =        6.38 SECONDS

    FOR POINT-GROUP C1   THERE ARE   1 UNIQUE SYMMETRY FUNCTIONS.

 STEP:   1 TIME =     0.08 SECS, INTEGRAL =      0.08 TIME LEFT: 172799.89
 STEP:   2 TIME =     0.06 SECS, INTEGRAL =      0.14 TIME LEFT: 172799.83
 STEP:   3 TIME =     0.08 SECS, INTEGRAL =      0.22 TIME LEFT: 172799.75
 STEP:   4 TIME =     0.06 SECS, INTEGRAL =      0.28 TIME LEFT: 172799.69
 STEP:   5 TIME =     0.06 SECS, INTEGRAL =      0.34 TIME LEFT: 172799.62
 STEP:   6 TIME =     0.06 SECS, INTEGRAL =      0.41 TIME LEFT: 172799.56
 STEP:   7 TIME =     0.06 SECS, INTEGRAL =      0.47 TIME LEFT: 172799.50
 STEP:   8 TIME =     0.08 SECS, INTEGRAL =      0.55 TIME LEFT: 172799.42
 STEP:   9 TIME =     0.06 SECS, INTEGRAL =      0.61 TIME LEFT: 172799.36
 STEP:  10 TIME =     0.06 SECS, INTEGRAL =      0.67 TIME LEFT: 172799.30
 STEP:  11 TIME =     0.08 SECS, INTEGRAL =      0.75 TIME LEFT: 172799.22
 STEP:  12 TIME =     0.06 SECS, INTEGRAL =      0.81 TIME LEFT: 172799.16
 STEP:  13 TIME =     0.06 SECS, INTEGRAL =      0.88 TIME LEFT: 172799.09
 STEP:  14 TIME =     0.08 SECS, INTEGRAL =      0.95 TIME LEFT: 172799.02
 STEP:  15 TIME =     0.06 SECS, INTEGRAL =      1.02 TIME LEFT: 172798.95
 STEP:  16 TIME =     0.06 SECS, INTEGRAL =      1.08 TIME LEFT: 172798.89
 STEP:  17 TIME =     0.08 SECS, INTEGRAL =      1.16 TIME LEFT: 172798.81
 STEP:  18 TIME =     0.06 SECS, INTEGRAL =      1.22 TIME LEFT: 172798.75
 STEP:  19 TIME =     0.06 SECS, INTEGRAL =      1.28 TIME LEFT: 172798.69
 STEP:  20 TIME =     0.08 SECS, INTEGRAL =      1.36 TIME LEFT: 172798.61
 STEP:  21 TIME =     0.06 SECS, INTEGRAL =      1.42 TIME LEFT: 172798.55
 STEP:  22 TIME =     0.06 SECS, INTEGRAL =      1.48 TIME LEFT: 172798.48
 STEP:  23 TIME =     0.08 SECS, INTEGRAL =      1.56 TIME LEFT: 172798.41
 STEP:  24 TIME =     0.08 SECS, INTEGRAL =      1.64 TIME LEFT: 172798.33
 STEP:  25 TIME =     0.06 SECS, INTEGRAL =      1.70 TIME LEFT: 172798.27
 STEP:  26 TIME =     0.06 SECS, INTEGRAL =      1.77 TIME LEFT: 172798.20
 STEP:  27 TIME =     0.08 SECS, INTEGRAL =      1.84 TIME LEFT: 172798.12
 STEP:  28 TIME =     0.06 SECS, INTEGRAL =      1.91 TIME LEFT: 172798.06
 STEP:  29 TIME =     0.06 SECS, INTEGRAL =      1.97 TIME LEFT: 172798.00
 STEP:  30 TIME =     0.08 SECS, INTEGRAL =      2.05 TIME LEFT: 172797.92
 STEP:  31 TIME =     0.06 SECS, INTEGRAL =      2.11 TIME LEFT: 172797.86
 STEP:  32 TIME =     0.06 SECS, INTEGRAL =      2.17 TIME LEFT: 172797.80
 STEP:  33 TIME =     0.08 SECS, INTEGRAL =      2.25 TIME LEFT: 172797.72
 STEP:  34 TIME =     0.06 SECS, INTEGRAL =      2.31 TIME LEFT: 172797.66
 STEP:  35 TIME =     0.06 SECS, INTEGRAL =      2.38 TIME LEFT: 172797.59
 STEP:  36 TIME =     0.06 SECS, INTEGRAL =      2.44 TIME LEFT: 172797.53
 STEP:  37 TIME =     0.06 SECS, INTEGRAL =      2.50 TIME LEFT: 172797.47
 STEP:  38 TIME =     0.08 SECS, INTEGRAL =      2.58 TIME LEFT: 172797.39
 STEP:  39 TIME =     0.06 SECS, INTEGRAL =      2.64 TIME LEFT: 172797.33
 STEP:  40 TIME =     0.06 SECS, INTEGRAL =      2.70 TIME LEFT: 172797.27
 STEP:  41 TIME =     0.08 SECS, INTEGRAL =      2.78 TIME LEFT: 172797.19
 STEP:  42 TIME =     0.06 SECS, INTEGRAL =      2.84 TIME LEFT: 172797.12
 STEP:  43 TIME =     0.08 SECS, INTEGRAL =      2.92 TIME LEFT: 172797.05
 STEP:  44 TIME =     0.06 SECS, INTEGRAL =      2.98 TIME LEFT: 172796.98
 STEP:  45 TIME =     0.06 SECS, INTEGRAL =      3.05 TIME LEFT: 172796.92
 STEP:  46 TIME =     0.08 SECS, INTEGRAL =      3.12 TIME LEFT: 172796.84
 STEP:  47 TIME =     0.06 SECS, INTEGRAL =      3.19 TIME LEFT: 172796.78
 STEP:  48 TIME =     0.08 SECS, INTEGRAL =      3.27 TIME LEFT: 172796.70
 STEP:  49 TIME =     0.06 SECS, INTEGRAL =      3.33 TIME LEFT: 172796.64
 STEP:  50 TIME =     0.08 SECS, INTEGRAL =      3.41 TIME LEFT: 172796.56
 STEP:  51 TIME =     0.06 SECS, INTEGRAL =      3.47 TIME LEFT: 172796.50
           INITIAL VELOCITY IN DRC (Angstroms/Femtosecond)
        -0.00030         0.00048         0.00461
        -0.00008        -0.00008        -0.07824
        -0.00074         0.00045         0.00508
        -0.00750         0.03692        -0.00450
        -0.01250         0.00249         0.01052
        -0.00096        -0.00184         0.00303
        -0.01088        -0.00210         0.00576
         0.00470        -0.00062         0.00418
         0.00543        -0.00081         0.00546
         0.02695        -0.00234        -0.01128
        -0.01406        -0.01170         0.01161
        -0.00465         0.00289         0.00592
         0.00049        -0.00146         0.00403
        -0.00064         0.00259         0.00766
         0.03216        -0.01983         0.01562
         0.01460        -0.03879        -0.00087
         0.02446         0.04336         0.67163
 THE VIBRATIONAL FREQUENCY ( -1164.38CM(-1)) IS TOO SMALL
 FOR ONE QUANTUM TO BE USED
 INSTEAD 0.3KCAL/MOLE WILL BE USED TO START THE IRC

 GEOMETRY PRIORITY, STEP = 0.2000 ANGSTROMS



 FEMTOSECONDS  POINT  POTENTIAL + KINETIC  =   TOTAL     ERROR    REF%   MOVEMENT
     0.000       1  -141.19163    0.30000  -140.89163   0.00000     1   %  0.0000
     6.319       7  -142.43784    1.54348  -140.89436  -0.00272     2   %  0.1933
     9.258      12  -145.36883    4.50323  -140.86560   0.02605     3   %  0.3864
    11.374      17  -148.80494    7.90480  -140.90015  -0.00849     4   %  0.5877
    13.145      21  -151.67084   10.76305  -140.90779  -0.01612     5   %  0.7898
    14.177      24  -153.39011   12.45486  -140.93525  -0.04358     6   %  0.9168
    15.970      28  -156.11964   15.20269  -140.91695  -0.02526     7   %  1.1520
    17.201      33  -157.65166   16.75156  -140.90011  -0.00840     8   %  1.3272
    18.370      38  -158.26473   17.39285  -140.87188   0.01984     9   %  1.5065
    19.501      43  -159.31601   18.36580  -140.95021  -0.05847    10   %  1.6916
    20.585      48  -160.54463   19.63879  -140.90584  -0.01409    11   %  1.8788
    21.620      53  -161.87852   20.98299  -140.89553  -0.00376    12   %  2.0648
    22.608      59  -163.12567   22.24198  -140.88369   0.00809    13   %  2.2486
    23.564      64  -163.95150   23.02919  -140.92231  -0.03052    14   %  2.4318
    24.502      69  -164.40728   23.51416  -140.89312  -0.00132    15   %  2.6162
    25.431      73  -164.78216   24.05839  -140.72377   0.16805    16   %  2.8025
    26.352      76  -165.57618   24.70434  -140.87184   0.02000    17   %  2.9896
    27.256      79  -166.82396   25.97470  -140.84926   0.04260    18   %  3.1752
    28.136      84  -168.05000   27.14086  -140.90914  -0.01727    19   %  3.3570
    28.995      89  -168.99899   28.09313  -140.90587  -0.01398    20   %  3.5347
    29.834      95  -169.57846   28.68589  -140.89257  -0.00067    21   %  3.7077
    30.662     100  -169.90489   29.01828  -140.88661   0.00531    22   %  3.8765
    31.480     104  -170.04303   29.12032  -140.92271  -0.03077    23   %  4.0416
    32.290     108  -170.16794   29.24765  -140.92029  -0.02834    24   %  4.2032
    33.090     112  -170.34673   29.45758  -140.88915   0.00282    25   %  4.3618
    33.877     115  -170.47242   29.53841  -140.93401  -0.04202    26   %  4.5181
    34.652     119  -170.56818   29.61372  -140.95446  -0.06245    27   %  4.6732
    35.415     123  -170.39291   29.48749  -140.90542  -0.01340    28   %  4.8286
    36.172     127  -169.96166   29.08135  -140.88031   0.01172    29   %  4.9853
    36.929     131  -169.44633   28.56491  -140.88141   0.01063    30   %  5.1438
    37.687     133  -169.05710   28.16926  -140.88785   0.00422    31   %  5.3034
    38.449     136  -168.74687   27.85593  -140.89095   0.00113    32   %  5.4633
    39.220     139  -168.72073   27.79636  -140.92437  -0.03228    33   %  5.6226
    40.004     142  -168.82452   27.90716  -140.91736  -0.02525    34   %  5.7803
    40.810     146  -168.95483   28.01640  -140.93843  -0.04631    35   %  5.9365
    41.618     150  -168.90806   28.05233  -140.85573   0.03641    36   %  6.0854
    42.393     154  -168.94266   28.01770  -140.92496  -0.03281    37   %  6.2195
    43.459     159  -169.03862   28.06575  -140.97286  -0.08069    38   %  6.3891
    44.559     164  -169.23261   28.31046  -140.92215  -0.02995    39   %  6.5448
    45.728     169  -169.71289   28.77406  -140.93883  -0.04661    40   %  6.6893
    46.915     175  -169.89652   28.98561  -140.91090  -0.01866    41   %  6.8161
    48.080     181  -169.95994   29.04922  -140.91071  -0.01845    42   %  6.9249
    49.206     186  -169.99672   29.09850  -140.89822  -0.00593    43   %  7.0195
    50.263     189  -170.17735   29.29218  -140.88517   0.00714    44   %  7.1017
    51.246     192  -170.67625   29.77421  -140.90204  -0.00971    45   %  7.1739
    51.927     195  -171.18999   30.31029  -140.87969   0.01265    46   %  7.2221
    52.862     199  -171.97060   31.01410  -140.95649  -0.06413    47   %  7.2864
    53.791     203  -172.57010   31.62511  -140.94499  -0.05261    48   %  7.3496
    54.555     208  -172.95204   32.04678  -140.90526  -0.01285    49   %  7.4020
    55.306     212  -173.12608   32.22899  -140.89709  -0.00467    50   %  7.4549
    56.051     216  -173.27354   32.31134  -140.96220  -0.06976    51   %  7.5095
    56.798     219  -173.29317   32.42910  -140.86406   0.02839    52   %  7.5669
    57.549     223  -173.04309   32.16321  -140.87988   0.01259    53   %  7.6279
    58.310     227  -172.97155   32.07459  -140.89696  -0.00448    54   %  7.6933
    59.079     230  -172.76032   31.85399  -140.90633  -0.01383    55   %  7.7638
    59.861     234  -172.41244   31.50961  -140.90283  -0.01031    56   %  7.8408
    60.659     237  -171.84176   30.99331  -140.84845   0.04409    57   %  7.9254
    61.480     241  -171.32064   30.41883  -140.90180  -0.00925    58   %  8.0186
    62.323     244  -170.77897   29.82214  -140.95684  -0.06427    59   %  8.1201
    63.194     248  -170.30303   29.41046  -140.89257   0.00002    60   %  8.2295
    64.093     252  -170.06163   29.15371  -140.90792  -0.01531    61   %  8.3452
    65.017     257  -169.82068   28.96365  -140.85703   0.03559    62   %  8.4647
    65.957     262  -169.61640   28.78290  -140.83351   0.05914    63   %  8.5850
    66.903     266  -169.58591   28.67954  -140.90636  -0.01370    64   %  8.7038
    67.854     271  -169.52110   28.58255  -140.93854  -0.04586    65   %  8.8206
    68.816     275  -169.50864   28.59993  -140.90871  -0.01601    66   %  8.9363
    69.791     280  -169.59365   28.67205  -140.92159  -0.02887    67   %  9.0516
    70.772     285  -169.60889   28.70760  -140.90128  -0.00854    68   %  9.1670
    71.745     290  -169.32892   28.48228  -140.84664   0.04612    69   %  9.2835
    72.707     296  -168.83050   27.91873  -140.91177  -0.01899    70   %  9.4042
    73.664     301  -167.92899   27.05556  -140.87343   0.01937    71   %  9.5329
    74.614     306  -167.09905   26.26004  -140.83900   0.05381    72   %  9.6717
    75.548     309  -166.61617   25.72789  -140.88828   0.00455    73   %  9.8202
    76.451     312  -166.54256   25.64326  -140.89930  -0.00645    74   %  9.9750
    77.330     315  -166.83363   25.93149  -140.90215  -0.00928    75   % 10.1339
    78.192     319  -167.46333   26.56761  -140.89572  -0.00284    76   % 10.2953
    79.051     323  -167.95810   27.09478  -140.86332   0.02958    77   % 10.4579
    79.923     328  -168.42806   27.56402  -140.86404   0.02887    78   % 10.6206
    80.818     333  -168.95445   28.06675  -140.88770   0.00523    79   % 10.7816
    81.737     337  -169.39262   28.50211  -140.89051   0.00244    80   % 10.9380
    82.678     342  -169.95534   29.04151  -140.91383  -0.02087    81   % 11.0875
    83.629     348  -170.43361   29.53730  -140.89631  -0.00332    82   % 11.2297
    84.583     354  -170.43345   29.53302  -140.90044  -0.00743    83   % 11.3669
    85.547     359  -170.02641   29.13863  -140.88778   0.00525    84   % 11.5035
    86.526     364  -169.34818   28.44935  -140.89883  -0.00579    85   % 11.6437
    87.509     368  -168.57510   27.68051  -140.89459  -0.00153    86   % 11.7881
    88.473     371  -168.23705   27.35004  -140.88701   0.00607    87   % 11.9332
    89.401     375  -168.17266   27.33102  -140.84164   0.05146    88   % 12.0757
    90.300     379  -168.14232   27.26491  -140.87740   0.01571    89   % 12.2153
    91.184     384  -167.99093   27.11204  -140.87888   0.01425    90   % 12.3524
    92.066     389  -167.76929   26.86324  -140.90605  -0.01290    91   % 12.4872
    92.954     394  -167.29816   26.43290  -140.86526   0.02791    92   % 12.6197
    93.854     398  -167.04803   26.15292  -140.89511  -0.00193    93   % 12.7487
    94.758     402  -166.91232   25.94141  -140.97091  -0.07771    94   % 12.8731
    95.655     406  -166.65308   25.75323  -140.89985  -0.00664    95   % 12.9920
    96.542     411  -166.39431   25.44963  -140.94467  -0.05145    96   % 13.1072
    97.421     415  -165.78575   24.89952  -140.88623   0.00701    97   % 13.2222
    98.301     419  -165.01814   24.10859  -140.90955  -0.01629    98   % 13.3398
    99.179     423  -164.45852   23.54800  -140.91052  -0.01724    99   % 13.4609
   100.044     426  -164.32027   23.36806  -140.95221  -0.05892   100   % 13.5840


           INITIAL VELOCITY IN DRC (Angstroms/Femtosecond)
         0.00030        -0.00048        -0.00461
         0.00008         0.00008         0.07824
         0.00074        -0.00045        -0.00508
         0.00750        -0.03692         0.00450
         0.01250        -0.00249        -0.01052
         0.00096         0.00184        -0.00303
         0.01088         0.00210        -0.00576
        -0.00470         0.00062        -0.00418
        -0.00543         0.00081        -0.00546
        -0.02695         0.00234         0.01128
         0.01406         0.01170        -0.01161
         0.00465        -0.00289        -0.00592
        -0.00049         0.00146        -0.00403
         0.00064        -0.00259        -0.00766
        -0.03216         0.01983        -0.01562
        -0.01460         0.03879         0.00087
        -0.02446        -0.04336        -0.67163
 THE VIBRATIONAL FREQUENCY ( -1164.38CM(-1)) IS TOO SMALL
 FOR ONE QUANTUM TO BE USED
 INSTEAD 0.3KCAL/MOLE WILL BE USED TO START THE IRC

 GEOMETRY PRIORITY, STEP = 0.2000 ANGSTROMS



 FEMTOSECONDS  POINT  POTENTIAL + KINETIC  =   TOTAL     ERROR    REF%   MOVEMENT
     0.000       1  -141.19164    0.30000  -140.89164   0.00000     1   %  0.0000
     6.286       6  -141.86034    0.97709  -140.88325   0.00839     2   %  0.1707
    10.173      11  -144.13590    3.15745  -140.97844  -0.08680     3   %  0.3845
    12.538      15  -146.89710    6.03149  -140.86561   0.02604     4   %  0.5808
    14.563      18  -149.49057    8.61020  -140.88037   0.01129     5   %  0.7888
    16.192      21  -151.43621   10.51298  -140.92323  -0.03156     6   %  0.9772
    17.689      25  -152.72808   11.85275  -140.87533   0.01636     7   %  1.1632
    19.124      29  -153.70914   12.68632  -141.02282  -0.13112     8   %  1.3501
    20.513      34  -154.49199   13.59657  -140.89542  -0.00371     9   %  1.5365
    21.842      40  -155.45912   14.53762  -140.92151  -0.02978    10   %  1.7190
    23.096      45  -156.51524   15.62880  -140.88644   0.00529    11   %  1.8952
    24.279      50  -157.11309   16.28444  -140.82866   0.06309    12   %  2.0657
    25.407      55  -157.81256   16.93078  -140.88178   0.00998    13   %  2.2330
    26.492      59  -158.40349   17.41955  -140.98395  -0.09217    14   %  2.3995
    27.540      62  -159.17414   18.19798  -140.97616  -0.08437    15   %  2.5663
    28.552      65  -160.07060   19.09460  -140.97601  -0.08421    16   %  2.7336
    29.535      70  -160.90085   20.00224  -140.89861  -0.00679    17   %  2.9015
    30.498      74  -161.53659   20.63839  -140.89820  -0.00637    18   %  3.0709
    31.449      79  -162.05683   21.15217  -140.90465  -0.01281    19   %  3.2421
    32.389      84  -162.57163   21.67931  -140.89232  -0.00047    20   %  3.4145
    33.312      88  -163.04231   22.17136  -140.87096   0.02091    21   %  3.5864
    34.211      91  -163.36032   22.47103  -140.88929   0.00259    22   %  3.7560
    35.080      95  -163.72664   22.83129  -140.89535  -0.00345    23   %  3.9218
    35.923      98  -164.01744   23.11790  -140.89954  -0.00763    24   %  4.0844
    36.740     101  -164.20567   23.35275  -140.85291   0.03901    25   %  4.2441
    37.537     103  -164.29843   23.45916  -140.83928   0.05266    26   %  4.4017
    38.313     106  -164.51974   23.63381  -140.88593   0.00602    27   %  4.5566
    39.072     108  -164.77089   23.87509  -140.89580  -0.00384    28   %  4.7099
    39.812     110  -165.02963   24.12010  -140.90954  -0.01756    29   %  4.8611
    40.537     113  -165.35915   24.41003  -140.94911  -0.05713    30   %  5.0104
    41.248     116  -165.46502   24.58475  -140.88027   0.01173    31   %  5.1585
    41.951     119  -165.60044   24.59171  -141.00873  -0.11672    32   %  5.3059
    42.652     121  -165.28816   24.58236  -140.70579   0.18623    33   %  5.4532
    43.358     124  -165.09232   24.20641  -140.88591   0.00612    34   %  5.6011
    44.076     127  -164.97177   24.05921  -140.91256  -0.02051    35   %  5.7505
    44.810     129  -164.95958   24.07047  -140.88911   0.00295    36   %  5.9017
    45.554     132  -165.03730   24.15682  -140.88048   0.01160    37   %  6.0534
    46.294     135  -165.02872   24.12064  -140.90808  -0.01599    38   %  6.2020
    47.031     138  -164.97968   24.07297  -140.90672  -0.01462    39   %  6.3469
    47.771     141  -164.85165   23.95892  -140.89274  -0.00063    40   %  6.4884
    48.513     144  -164.78260   23.87937  -140.90323  -0.01111    41   %  6.6261
    49.253     147  -164.61008   23.78803  -140.82205   0.07008    42   %  6.7588
    49.989     150  -164.48757   23.64416  -140.84341   0.04873    43   %  6.8850
    50.719     152  -164.64270   23.70622  -140.93648  -0.04432    44   %  7.0041
    51.438     154  -164.91105   24.01084  -140.90021  -0.00804    45   %  7.1153
    52.146     156  -165.26657   24.35864  -140.90793  -0.01575    46   %  7.2190
    52.846     158  -165.57728   24.67767  -140.89960  -0.00741    47   %  7.3156
    53.540     161  -165.73211   24.93822  -140.79389   0.09832    48   %  7.4059
    54.233     163  -166.03247   25.12832  -140.90415  -0.01193    49   %  7.4906
    54.925     165  -166.34884   25.43348  -140.91536  -0.02313    50   %  7.5705
    55.615     168  -166.65825   25.78661  -140.87164   0.02060    51   %  7.6464
    56.305     171  -166.93007   26.05190  -140.87818   0.01407    52   %  7.7196
    56.993     173  -167.28053   26.39872  -140.88182   0.01045    53   %  7.7911
    57.675     176  -167.63714   26.69794  -140.93920  -0.04692    54   %  7.8618
    58.352     180  -167.73803   26.83800  -140.90003  -0.00774    55   %  7.9332
    59.026     183  -167.74654   26.81683  -140.92971  -0.03741    56   %  8.0066
    59.702     186  -167.58159   26.67350  -140.90809  -0.01577    57   %  8.0830
    60.385     189  -167.21175   26.41090  -140.80085   0.09148    58   %  8.1635
    61.081     192  -166.93755   26.01508  -140.92247  -0.03013    59   %  8.2490
    61.792     195  -166.56200   25.65120  -140.91080  -0.01844    60   %  8.3402
    62.516     197  -166.31989   25.42299  -140.89689  -0.00453    61   %  8.4371
    63.238     200  -166.23457   25.33841  -140.89616  -0.00378    62   %  8.5382
    63.954     202  -166.18674   25.28009  -140.90665  -0.01426    63   %  8.6424
    64.666     206  -166.17068   25.26686  -140.90381  -0.01141    64   %  8.7493
    65.377     209  -165.98778   25.11465  -140.87313   0.01929    65   %  8.8591
    66.095     213  -165.80681   24.92419  -140.88262   0.00981    66   %  8.9724
    66.824     216  -165.60083   24.76105  -140.83978   0.05266    67   %  9.0898
    67.565     219  -165.50559   24.58952  -140.91607  -0.02362    68   %  9.2121
    68.313     222  -165.49526   24.58792  -140.90733  -0.01487    69   %  9.3391
    69.047     225  -165.58768   24.66155  -140.92613  -0.03365    70   %  9.4677
    69.763     228  -165.73002   24.82692  -140.90310  -0.01060    71   %  9.5970
    70.463     231  -165.81686   24.90988  -140.90698  -0.01448    72   %  9.7278
    71.153     234  -165.81610   24.89194  -140.92416  -0.03164    73   %  9.8612
    71.842     238  -165.58101   24.74094  -140.84007   0.05246    74   %  9.9983
    72.535     241  -165.25321   24.32274  -140.93046  -0.03792    75   % 10.1401
    73.240     245  -164.91233   24.01307  -140.89925  -0.00670    76   % 10.2876
    73.958     248  -164.59829   23.69054  -140.90775  -0.01519    77   % 10.4405
    74.687     250  -164.38011   23.46869  -140.91142  -0.01885    78   % 10.5975
    75.422     253  -164.25160   23.31705  -140.93455  -0.04196    79   % 10.7568
    76.164     256  -164.17613   23.26417  -140.91196  -0.01936    80   % 10.9173
    76.916     258  -164.07448   23.16405  -140.91042  -0.01781    81   % 11.0790
    77.687     261  -163.96556   23.01392  -140.95164  -0.05902    82   % 11.2427
    78.482     264  -163.84264   22.94983  -140.89281  -0.00018    83   % 11.4086
    79.302     266  -163.83943   22.96021  -140.87921   0.01344    84   % 11.5761
    80.140     268  -164.06387   23.15460  -140.90927  -0.01661    85   % 11.7426
    80.982     271  -164.51571   23.63270  -140.88301   0.00967    86   % 11.9043
    81.818     274  -165.12739   24.18787  -140.93952  -0.04683    87   % 12.0594
    82.650     277  -165.76371   24.86250  -140.90120  -0.00850    88   % 12.2080
    83.487     281  -166.15983   25.30162  -140.85821   0.03451    89   % 12.3515
    84.340     285  -166.42093   25.52320  -140.89774  -0.00500    90   % 12.4913
    85.216     289  -166.53986   25.68206  -140.85779   0.03496    91   % 12.6285
    86.117     293  -166.72639   25.81993  -140.90645  -0.01369    92   % 12.7629
    87.024     296  -166.99814   26.10500  -140.89314  -0.00036    93   % 12.8925
    87.922     299  -167.34285   26.41615  -140.92670  -0.03390    94   % 13.0163
    88.812     303  -167.55471   26.72213  -140.83257   0.06024    95   % 13.1364
    89.702     307  -167.66468   26.75465  -140.91003  -0.01720    96   % 13.2555
    90.600     311  -167.53283   26.64792  -140.88491   0.00794    97   % 13.3759


 GRADIENT CONSTANT AND SMALL -- ASSUME ALL MOTION STOPPED
 TO CONTINUE, USE KEYWORD 'GNORM=0'

 **********************
 *                    *
 * JOB ENDED NORMALLY *
 *                    *
 **********************



 TOTAL JOB TIME:            17.06 SECONDS

 == MOPAC DONE ==
