 *******************************************************************************
 ** Site#: 37037        For non-commercial use only           Version 21.153W **
 *******************************************************************************
 ** Cite this program as: MOPAC2016, Version: 21.153W, James J. P. Stewart,   **
 ** Stewart Computational Chemistry, web: HTTP://OpenMOPAC.net. Days left: 362**
 *******************************************************************************
 **                                                                           **
 **                                MOPAC2016                                  **
 **                                                                           **
 *******************************************************************************

                              PM7 CALCULATION RESULTS

 *******************************************************************************
 *  CALCULATION DONE:                                Sat Jun  5 15:51:33 2021  *
 *  GEO_DAT    - DATA SET GEOMETRY IS IN FILE "Locate-TS.arc"
 *  EPS=78.4   - USE ANDREAS KLAMT'S COSMO IMPLICIT SOLVATION MODEL
 *  IRC=N      - INTRINSIC REACTION COORDINATE -1 DEFINED
 *  LET        - OVERRIDE SOME SAFETY CHECKS
 *  PRECISE    - TIGHTER CRITERIA TO BE USED
 *  T=         - A TIME OF 172800.0 SECONDS REQUESTED
 *  DUMP=N     - RESTART FILE WRITTEN EVERY 7200.0 SECONDS REQUESTED
 *  HTML       - WRITE HTML SCRIPT TO GENERATE ANIMATION USING JSMOL
 *             - TO DISPLAY IN PDB FORMAT, ADD "PDBOUT"
 *  X-PRIOR    - GEOMETRY CHANGES TAKE PRIORITY IN DRC
 *******************************************************************************
 irc=-1* eps=78.4  let HTML x-priority=0.1 precise geo_dat="Locate-TS.arc"
 Intrinsic Reaction Coordinate for Uncatalyzed Ester Hydrolysis

   ATOM                 CHEMICAL                   X               Y               Z
  NUMBER                 SYMBOL               (ANGSTROMS)     (ANGSTROMS)     (ANGSTROMS)
 
     1       C(HETATM    1  C1  HET A   3)   -0.07027133      0.00171893     -0.32939464   
     2       C(HETATM    2  C2  HET A   3)    1.39892676      0.03228252     -0.60733204   
     3       O(HETATM    3  O1  HET A   3)    2.21954406      0.84390729     -0.17902839   
     4       O(HETATM    4  O2  HET A   3)    1.52265440     -0.26333365     -2.11725251   
     5       C(HETATM    5  C3  HET A   3)    2.52677773      0.45200526     -2.84575751   
     6       C(HETATM    6  C4  HET A   3)    2.32951266      0.04590637     -4.29663835   
     7       H(HETATM    7 1H1  HET A   3)   -0.61718913      0.68177950     -1.00314220   
     8       H(HETATM    8 2H1  HET A   3)   -0.50420477     -1.00227321     -0.46569976   
     9       H(HETATM    9 3H1  HET A   3)   -0.28285889      0.30912597      0.70753834   
    10       H(HETATM   10 1H3  HET A   3)    2.34458818      1.52813456     -2.67167319   
    11       H(HETATM   11 2H3  HET A   3)    3.52244234      0.18229181     -2.45307325   
    12       H(HETATM   12 1H4  HET A   3)    2.34877830     -1.04554991     -4.42072274   
    13       H(HETATM   13 2H4  HET A   3)    1.36564386      0.39585040     -4.68862893   
    14       H(HETATM   14 3H4  HET A   3)    3.11826327      0.46287124     -4.93658218   
    15       H(HETATM   15 1H   HOH A   5)    2.79539801     -1.49566498     -0.06883149   
    16       O(HETATM   16  O   HOH A   5)    1.87474532     -1.44521236     -0.41189424   
    17       H(HETATM   17 2H   HOH A   5)    1.94867931     -1.44271601     -1.73401967   
 

 General Reference for PM7:
 "Optimization of Parameters for Semiempirical Methods VI: More Modifications to the 
 NDDO Approximations and Re-optimization of Parameters", J. J. P. Stewart, J. Mol. Mod., 1:32, 19 (2013)
 https://link.springer.com/article/10.1007/s00894-012-1667-x

           Empirical Formula: C4 H10 O3  =    17 atoms



      MOLECULAR POINT GROUP   :   C1  


      RHF CALCULATION, NO. OF DOUBLY OCCUPIED LEVELS = 22



          HEAT OF FORMATION =    -141.191635 KCALS/MOLE


          GRADIENT NORM =   2.79282


          TIME FOR SCF CALCULATION =    0.02

          TIME FOR DERIVATIVES     =    0.02

          MOLECULAR WEIGHT =  106.12


          ESTIMATED TIME TO COMPLETE CALCULATION =        6.38 SECONDS

    FOR POINT-GROUP C1   THERE ARE   1 UNIQUE SYMMETRY FUNCTIONS.

 STEP:   1 TIME =     0.08 SECS, INTEGRAL =      0.08 TIME LEFT: 172799.89
 STEP:   2 TIME =     0.06 SECS, INTEGRAL =      0.14 TIME LEFT: 172799.83
 STEP:   3 TIME =     0.06 SECS, INTEGRAL =      0.20 TIME LEFT: 172799.77
 STEP:   4 TIME =     0.06 SECS, INTEGRAL =      0.27 TIME LEFT: 172799.70
 STEP:   5 TIME =     0.06 SECS, INTEGRAL =      0.33 TIME LEFT: 172799.64
 STEP:   6 TIME =     0.08 SECS, INTEGRAL =      0.41 TIME LEFT: 172799.56
 STEP:   7 TIME =     0.08 SECS, INTEGRAL =      0.48 TIME LEFT: 172799.48
 STEP:   8 TIME =     0.06 SECS, INTEGRAL =      0.55 TIME LEFT: 172799.42
 STEP:   9 TIME =     0.06 SECS, INTEGRAL =      0.61 TIME LEFT: 172799.36
 STEP:  10 TIME =     0.08 SECS, INTEGRAL =      0.69 TIME LEFT: 172799.28
 STEP:  11 TIME =     0.06 SECS, INTEGRAL =      0.75 TIME LEFT: 172799.22
 STEP:  12 TIME =     0.06 SECS, INTEGRAL =      0.81 TIME LEFT: 172799.16
 STEP:  13 TIME =     0.08 SECS, INTEGRAL =      0.89 TIME LEFT: 172799.08
 STEP:  14 TIME =     0.08 SECS, INTEGRAL =      0.97 TIME LEFT: 172799.00
 STEP:  15 TIME =     0.08 SECS, INTEGRAL =      1.05 TIME LEFT: 172798.92
 STEP:  16 TIME =     0.06 SECS, INTEGRAL =      1.11 TIME LEFT: 172798.86
 STEP:  17 TIME =     0.08 SECS, INTEGRAL =      1.19 TIME LEFT: 172798.78
 STEP:  18 TIME =     0.08 SECS, INTEGRAL =      1.27 TIME LEFT: 172798.70
 STEP:  19 TIME =     0.06 SECS, INTEGRAL =      1.33 TIME LEFT: 172798.64
 STEP:  20 TIME =     0.06 SECS, INTEGRAL =      1.39 TIME LEFT: 172798.58
 STEP:  21 TIME =     0.08 SECS, INTEGRAL =      1.47 TIME LEFT: 172798.50
 STEP:  22 TIME =     0.08 SECS, INTEGRAL =      1.55 TIME LEFT: 172798.42
 STEP:  23 TIME =     0.06 SECS, INTEGRAL =      1.61 TIME LEFT: 172798.36
 STEP:  24 TIME =     0.08 SECS, INTEGRAL =      1.69 TIME LEFT: 172798.28
 STEP:  25 TIME =     0.08 SECS, INTEGRAL =      1.77 TIME LEFT: 172798.20
 STEP:  26 TIME =     0.06 SECS, INTEGRAL =      1.83 TIME LEFT: 172798.14
 STEP:  27 TIME =     0.06 SECS, INTEGRAL =      1.89 TIME LEFT: 172798.08
 STEP:  28 TIME =     0.08 SECS, INTEGRAL =      1.97 TIME LEFT: 172798.00
 STEP:  29 TIME =     0.08 SECS, INTEGRAL =      2.05 TIME LEFT: 172797.92
 STEP:  30 TIME =     0.08 SECS, INTEGRAL =      2.12 TIME LEFT: 172797.84
 STEP:  31 TIME =     0.06 SECS, INTEGRAL =      2.19 TIME LEFT: 172797.78
 STEP:  32 TIME =     0.06 SECS, INTEGRAL =      2.25 TIME LEFT: 172797.72
 STEP:  33 TIME =     0.08 SECS, INTEGRAL =      2.33 TIME LEFT: 172797.64
 STEP:  34 TIME =     0.06 SECS, INTEGRAL =      2.39 TIME LEFT: 172797.58
 STEP:  35 TIME =     0.08 SECS, INTEGRAL =      2.47 TIME LEFT: 172797.50
 STEP:  36 TIME =     0.06 SECS, INTEGRAL =      2.53 TIME LEFT: 172797.44
 STEP:  37 TIME =     0.06 SECS, INTEGRAL =      2.59 TIME LEFT: 172797.38
 STEP:  38 TIME =     0.08 SECS, INTEGRAL =      2.67 TIME LEFT: 172797.30
 STEP:  39 TIME =     0.06 SECS, INTEGRAL =      2.73 TIME LEFT: 172797.23
 STEP:  40 TIME =     0.06 SECS, INTEGRAL =      2.80 TIME LEFT: 172797.17
 STEP:  41 TIME =     0.06 SECS, INTEGRAL =      2.86 TIME LEFT: 172797.11
 STEP:  42 TIME =     0.08 SECS, INTEGRAL =      2.94 TIME LEFT: 172797.03
 STEP:  43 TIME =     0.06 SECS, INTEGRAL =      3.00 TIME LEFT: 172796.97
 STEP:  44 TIME =     0.08 SECS, INTEGRAL =      3.08 TIME LEFT: 172796.89
 STEP:  45 TIME =     0.06 SECS, INTEGRAL =      3.14 TIME LEFT: 172796.83
 STEP:  46 TIME =     0.06 SECS, INTEGRAL =      3.20 TIME LEFT: 172796.77
 STEP:  47 TIME =     0.08 SECS, INTEGRAL =      3.28 TIME LEFT: 172796.69
 STEP:  48 TIME =     0.06 SECS, INTEGRAL =      3.34 TIME LEFT: 172796.62
 STEP:  49 TIME =     0.06 SECS, INTEGRAL =      3.41 TIME LEFT: 172796.56
 STEP:  50 TIME =     0.08 SECS, INTEGRAL =      3.48 TIME LEFT: 172796.48
 STEP:  51 TIME =     0.06 SECS, INTEGRAL =      3.55 TIME LEFT: 172796.42
           INITIAL VELOCITY IN DRC (Angstroms/Femtosecond)
        -0.00030         0.00048         0.00461
        -0.00008        -0.00008        -0.07824
        -0.00074         0.00045         0.00508
        -0.00750         0.03692        -0.00450
        -0.01250         0.00249         0.01052
        -0.00096        -0.00184         0.00303
        -0.01088        -0.00210         0.00576
         0.00470        -0.00062         0.00418
         0.00543        -0.00081         0.00546
         0.02695        -0.00234        -0.01128
        -0.01406        -0.01170         0.01161
        -0.00465         0.00289         0.00592
         0.00049        -0.00146         0.00403
        -0.00064         0.00259         0.00766
         0.03216        -0.01983         0.01562
         0.01460        -0.03879        -0.00087
         0.02446         0.04336         0.67163

 GEOMETRY PRIORITY, STEP = 0.1000 ANGSTROMS



     POINT   POTENTIAL  +  ENERGY LOST   =   TOTAL      ERROR    REF%   MOVEMENT
       1    -141.19163      0.00000       -141.19163   0.00000     1   %  0.0000
       3    -141.40200      0.00000       -141.40200  -0.09554     2   %  0.0944
      66    -141.88202      0.80793       -141.07408   0.23238     3   %  0.1963
     162    -143.13704      2.06405       -141.07300   0.23346     4   %  0.2969
     259    -144.67417      3.55580       -141.11837   0.18809     5   %  0.3962
     335    -146.13173      5.09338       -141.03835   0.26811     6   %  0.4941
     407    -147.69604      6.56357       -141.13247   0.17399     7   %  0.5890
     467    -149.17655      8.01613       -141.16042   0.14605     8   %  0.6870
     549    -150.66910      9.34732       -141.32178  -0.01532     9   %  0.7819
     601    -151.94304     10.60421       -141.33883  -0.03237    10   %  0.8779
     651    -153.11371     11.76559       -141.34812  -0.04166    11   %  0.9735
     702    -154.13281     12.82399       -141.30882  -0.00236    12   %  1.0674
     742    -155.10560     13.81428       -141.29132   0.01514    13   %  1.1616
     773    -156.03836     14.73659       -141.30177   0.00469    14   %  1.2552
     808    -156.85250     15.56654       -141.28596   0.02051    15   %  1.3438
     856    -157.70623     16.43128       -141.27495   0.03151    16   %  1.4400
     879    -158.45245     17.17861       -141.27384   0.03262    17   %  1.5255
     933    -159.09964     17.96477       -141.13486   0.17160    18   %  1.6171
     977    -159.90739     18.74421       -141.16317   0.14329    19   %  1.7100
    1007    -160.63898     19.48263       -141.15635   0.15012    20   %  1.7996
    1039    -161.35213     20.19410       -141.15803   0.14843    21   %  1.8876
    1088    -162.20650     20.89926       -141.30724  -0.00078    22   %  1.9773
    1148    -162.90035     21.56372       -141.33663  -0.03017    23   %  2.0642
    1214    -163.62233     22.23538       -141.38695  -0.08049    24   %  2.1548
    1287    -164.22909     22.88785       -141.34124  -0.03478    25   %  2.2465
    1341    -164.95080     23.50015       -141.45065  -0.14419    26   %  2.3368
    1358    -165.52702     24.08516       -141.44187  -0.13540    27   %  2.4273
    1389    -166.11196     24.62252       -141.48944  -0.18298    28   %  2.5141
    1414    -166.68017     25.19394       -141.48623  -0.17977    29   %  2.6107
    1437    -167.20596     25.69705       -141.50891  -0.20245    30   %  2.7004
    1465    -167.70157     26.18648       -141.51509  -0.20863    31   %  2.7924
    1504    -168.14077     26.65871       -141.48206  -0.17560    32   %  2.8860
    1527    -168.60132     27.11483       -141.48649  -0.18002    33   %  2.9817
    1555    -168.99207     27.53215       -141.45992  -0.15346    34   %  3.0748
    1576    -169.39258     27.92190       -141.47068  -0.16421    35   %  3.1667
    1606    -169.85724     28.29842       -141.55881  -0.25235    36   %  3.2607
    1629    -170.21800     28.64882       -141.56917  -0.26271    37   %  3.3531
    1658    -170.54631     28.96948       -141.57682  -0.27036    38   %  3.4423
    1689    -170.87627     29.27823       -141.59804  -0.29158    39   %  3.5329
    1724    -171.18647     29.56424       -141.62223  -0.31577    40   %  3.6216
    1755    -171.44293     29.82369       -141.61925  -0.31278    41   %  3.7067
    1790    -171.69787     30.06607       -141.63180  -0.32533    42   %  3.7908
    1821    -171.93632     30.28853       -141.64779  -0.34133    43   %  3.8726
    1861    -172.17153     30.49257       -141.67896  -0.37250    44   %  3.9517
    1897    -172.36802     30.68106       -141.68696  -0.38049    45   %  4.0296
    1932    -172.56257     30.85500       -141.70758  -0.40112    46   %  4.1065
    1978    -172.77220     31.01426       -141.75794  -0.45147    47   %  4.1821
    2019    -172.91983     31.15917       -141.76066  -0.45420    48   %  4.2564
    2057    -173.06912     31.29196       -141.77716  -0.47070    49   %  4.3306
    2098    -173.24065     31.41288       -141.82777  -0.52131    50   %  4.4045

           NUMBER OF CYCLES EXCEEDED, RESTART FILE WRITTEN
           Number of cycles allowed in this run =   5000
           To increase the number of cycles, use keyword "CYCLES=n",
           where "n" is the number of cycles you want to run
           INITIAL VELOCITY IN DRC (Angstroms/Femtosecond)
         0.00030        -0.00048        -0.00461
         0.00008         0.00008         0.07824
         0.00074        -0.00045        -0.00508
         0.00750        -0.03692         0.00450
         0.01250        -0.00249        -0.01052
         0.00096         0.00184        -0.00303
         0.01088         0.00210        -0.00576
        -0.00470         0.00062        -0.00418
        -0.00543         0.00081        -0.00546
        -0.02695         0.00234         0.01128
         0.01406         0.01170        -0.01161
         0.00465        -0.00289        -0.00592
        -0.00049         0.00146        -0.00403
         0.00064        -0.00259        -0.00766
        -0.03216         0.01983        -0.01562
        -0.01460         0.03879         0.00087
        -0.02446        -0.04336        -0.67163

 GEOMETRY PRIORITY, STEP = 0.1000 ANGSTROMS



     POINT   POTENTIAL  +  ENERGY LOST   =   TOTAL      ERROR    REF%   MOVEMENT
       1    -141.19164      0.00000       -141.19164   0.00000     1   %  0.0000
       3    -141.51733      0.00000       -141.51733  -0.12400     2   %  0.0938
     112    -142.61010      1.11881       -141.49129  -0.09797     3   %  0.1990
     247    -144.11756      2.70741       -141.41016  -0.01683     4   %  0.2985
     409    -145.84782      4.55150       -141.29632   0.09700     5   %  0.3963
     537    -147.88921      6.47077       -141.41844  -0.02512     6   %  0.4938
     669    -149.75397      8.29485       -141.45912  -0.06580     7   %  0.5884
     790    -151.49564      9.99837       -141.49727  -0.10395     8   %  0.6818
     895    -153.02827     11.58329       -141.44498  -0.05166     9   %  0.7755
     997    -154.54728     13.05207       -141.49521  -0.10189    10   %  0.8692
    1089    -155.93637     14.42666       -141.50971  -0.11639    11   %  0.9637
    1196    -157.48052     15.73472       -141.74580  -0.35248    12   %  1.0604
    1293    -158.69788     16.96961       -141.72827  -0.33495    13   %  1.1567
    1353    -159.93065     18.13651       -141.79414  -0.40082    14   %  1.2518
    1398    -161.06738     19.26938       -141.79801  -0.40468    15   %  1.3470
    1434    -162.21457     20.40777       -141.80680  -0.41348    16   %  1.4444
    1474    -163.34418     21.51925       -141.82493  -0.43160    17   %  1.5404
    1525    -164.45907     22.60005       -141.85902  -0.46570    18   %  1.6351
    1585    -165.44872     23.58145       -141.86727  -0.47395    19   %  1.7220
    1599    -166.54898     24.67871       -141.87027  -0.47695    20   %  1.8206
    1650    -167.58648     25.67813       -141.90835  -0.51503    21   %  1.9126
    1697    -168.71092     26.65196       -142.05896  -0.66564    22   %  2.0056
    1732    -169.59930     27.55941       -142.03989  -0.64657    23   %  2.0965
    1767    -170.45654     28.43958       -142.01697  -0.62364    24   %  2.1899
    1792    -171.22711     29.22180       -142.00532  -0.61199    25   %  2.2785
    1828    -171.93364     29.96577       -141.96786  -0.57454    26   %  2.3699
    1878    -172.54569     30.63619       -141.90950  -0.51617    27   %  2.4607
    1905    -173.16813     31.25022       -141.91791  -0.52459    28   %  2.5525
    1952    -173.71876     31.79705       -141.92171  -0.52839    29   %  2.6431
    1994    -174.21716     32.29487       -141.92229  -0.52897    30   %  2.7353
    2036    -174.63515     32.72929       -141.90586  -0.51254    31   %  2.8257
    2079    -174.97905     33.11043       -141.86861  -0.47529    32   %  2.9154
    2118    -175.27917     33.44061       -141.83856  -0.44524    33   %  3.0032
    2145    -175.53678     33.73736       -141.79942  -0.40610    34   %  3.0931
    2172    -175.73254     33.98514       -141.74741  -0.35408    35   %  3.1804
    2211    -175.93521     34.18940       -141.74581  -0.35249    36   %  3.2643
    2243    -176.09934     34.36561       -141.73373  -0.34040    37   %  3.3508
    2264    -176.25150     34.50850       -141.74300  -0.34968    38   %  3.4336
    2278    -176.38135     34.62783       -141.75352  -0.36020    39   %  3.5152
    2298    -176.47297     34.72641       -141.74656  -0.35324    40   %  3.5958
    2321    -176.53717     34.81006       -141.72711  -0.33379    41   %  3.6758
    2337    -176.62693     34.87775       -141.74917  -0.35585    42   %  3.7539
    2359    -176.66360     34.94156       -141.72204  -0.32872    43   %  3.8332
    2381    -176.72110     34.99341       -141.72769  -0.33437    44   %  3.9133

           NUMBER OF CYCLES EXCEEDED, RESTART FILE WRITTEN
           Number of cycles allowed in this run =   5000
           To increase the number of cycles, use keyword "CYCLES=n",
           where "n" is the number of cycles you want to run

 **********************
 *                    *
 * JOB ENDED NORMALLY *
 *                    *
 **********************



 TOTAL JOB TIME:           163.11 SECONDS

 == MOPAC DONE ==
