 *******************************************************************************
 ** Site#: 10005        For non-commercial use only     Version 15.317W 64BITS**
 *******************************************************************************
 ** Cite this work as:                                                        **
 **                                                                           **
 ** (a) MOPAC2012, James J. P. Stewart, Stewart Computational Chemistry,      **
 **  Version 15.317W web: HTTP://OpenMOPAC.net         Days remaining: 362    **
 **                                                                           **
 **                                 AND                                       **
 **                                                                           **
 ** (b) Maia, J.D.C., et al., J. Chem. Theory Comput. 2012, 8, 3072-3081.     **
 **                DOI: 10.1021/ct3004645.                                    **
 *******************************************************************************
 **                                                                           **
 **                                MOPAC2012                                  **
 **                                                                           **
 *******************************************************************************

                              PM7 CALCULATION RESULTS


 *******************************************************************************
 *  CALCULATION DONE:                                Mon Nov 16 10:12:19 2015  *
 *  GEO_DAT    - DATA SET GEOMETRY IS IN FILE "LOCATE-TS.ARC"
 *  EPS= 78.40 - USE ANDREAS KLAMT'S COSMO IMPLICIT SOLVATION MODEL
 *  TS         - USE EF ROUTINE FOR TS SEARCH
 *  T=         - A TIME OF 172800.0 SECONDS REQUESTED
 *  DUMP=N     - RESTART FILE WRITTEN EVERY  7200.000 SECONDS
 *******************************************************************************
TS geo_dat="Locate-TS.arc" eps=78.4 HTML
 Refine transition state for uncatalyzed ester hydrolysis

   ATOM                 CHEMICAL                   X               Y               Z
  NUMBER                 SYMBOL               (ANGSTROMS)     (ANGSTROMS)     (ANGSTROMS)
 
     1       C(HETATM    1  C1  HET A   3)   -0.07517373     -0.00670135     -0.04383859   
     2       C(HETATM    2  C2  HET A   3)    1.28887080  *   0.21358412  *   0.52853175  *
     3       O(HETATM    3  O1  HET A   3)    2.03727265      1.17055667      0.33230043   
     4       O(HETATM    4  O2  HET A   3)    1.98638884  *  -1.16475529  *   0.44814199  *
     5       C(HETATM    5  C3  HET A   3)    3.38092089     -1.18182526      0.11374776   
     6       C(HETATM    6  C4  HET A   3)    3.74201506     -2.64925620     -0.02919353   
     7       H(HETATM    7 1H1  HET A   3)   -0.03177215     -0.46021752     -1.04571399   
     8       H(HETATM    8 2H1  HET A   3)   -0.68540999     -0.67733358      0.58215512   
     9       H(HETATM    9 3H1  HET A   3)   -0.61943580      0.94528278     -0.14164057   
    10       H(HETATM   10 1H3  HET A   3)    3.49540022     -0.62047918     -0.83078180   
    11       H(HETATM   11 2H3  HET A   3)    3.94703178     -0.67184086      0.91225904   
    12       H(HETATM   12 1H4  HET A   3)    3.45719787     -3.22823528      0.85919573   
    13       H(HETATM   13 2H4  HET A   3)    3.24385071     -3.11441779     -0.88953322   
    14       H(HETATM   14 3H4  HET A   3)    4.82510636     -2.77744605     -0.16924025   
    15       H(HETATM   15 1H   HOH A   5)    1.69483900      0.44905715      2.62635999   
    16       O(HETATM   16  O   HOH A   5)    1.12244617  *  -0.10542583  *   2.05258174  *
    17       H(HETATM   17 2H   HOH A   5)    1.79577352  *  -1.20378923  *   1.74139781  *
 

     ===================== shared-memory parallel CPU Section ======================
     **                                                                           **
     **  MOPAC calculations will run in shared-memory parallel CPUs               **
     **                                                                           **
     **  Number of Threads =  4                                                   **
     **                                                                           **
     **                                                                           **
     **  For information on this work, see:                                       **
     **                                                                           **
     **  Maia, J.D.C., et al., J. Chem. Theory Comput. 2012, 8, 3072-3081.        **
     **        DOI: 10.1021/ct3004645.                                            **
     **                                                                           **
     ===================== shared-memory parallel CPU Section ======================
      


 General Reference for PM7:
 "Optimization of Parameters for Semiempirical Methods VI: More Modifications to the 
 NDDO Approximations and Re-optimization of Parameters", J. J. P. Stewart, J. Mol. Mod., 1:32, 19 (2013)
 http://www.springerlink.com/openurl.asp?genre=article&id=doi:10.1007/s00894-012-1667-x

           Empirical Formula: C4 H10 O3  =    17 atoms



      MOLECULAR POINT GROUP   :   C1  


      RHF CALCULATION, NO. OF DOUBLY OCCUPIED LEVELS =   22

      Transition state refinement using EF

          HESSIAN CALCULATED NUMERICALLY

 CYCLE:     1 TIME:   0.156 TIME LEFT:  2.00D  GRAD.:     2.142 HEAT: -141.1825
 CYCLE:     2 TIME:   0.047 TIME LEFT:  2.00D  GRAD.:     1.565 HEAT: -141.1886
 CYCLE:     3 TIME:   0.027 TIME LEFT:  2.00D  GRAD.:     1.167 HEAT: -141.1896
 CYCLE:     4 TIME:   0.062 TIME LEFT:  2.00D  GRAD.:     1.123 HEAT: -141.1897

     TRUST RADIUS NOW LESS THAN  0.00010 OPTIMIZATION TERMINATING
      THE GEOMETRY MAY NOT BE COMPLETELY OPTIMIZED
      (TO CONTINUE, ADD 'LET DDMIN=0.0' TO THE KEYWORD LINE)

 -------------------------------------------------------------------------------
TS geo_dat="Locate-TS.arc" eps=78.4 HTML
 Refine transition state for uncatalyzed ester hydrolysis



     GEOMETRY OPTIMISED USING EIGENVECTOR FOLLOWING (TS).     
     SCF FIELD WAS ACHIEVED                                   


                              PM7 CALCULATION
                                                       MOPAC2012 (Version: 15.317W)
                                                       Mon Nov 16 10:12:19 2015
                                                       No. of days left = 362




          FINAL HEAT OF FORMATION =       -141.18970 KCAL/MOL =    -590.73771 KJ/MOL
          VAN DER WAALS AREA      =        145.92 SQUARE ANGSTROMS


          TOTAL ENERGY            =      -1512.31112 EV
          ELECTRONIC ENERGY       =      -1961.99686 EV  POINT GROUP:     C1  
          CORE-CORE REPULSION     =        449.68574 EV
          DIELECTRIC ENERGY       =         -0.76291 EV
          COSMO AREA              =        145.92 SQUARE ANGSTROMS
          COSMO VOLUME            =        135.57 CUBIC ANGSTROMS

          GRADIENT NORM           =          0.98191
          IONIZATION POTENTIAL    =         11.091536 EV
          HOMO LUMO ENERGIES (EV) =        -11.092  1.028
          NO. OF FILLED LEVELS    =         22
          MOLECULAR WEIGHT        =        106.121

          MOLECULAR DIMENSIONS (Angstroms)

            Atom       Atom       Distance
            H    14    H     9     6.59564
            H    15    H    13     4.06673
            H    10    H     8     2.78351


          SCF CALCULATIONS        =         37
 




   ATOM                 CHEMICAL                   X               Y               Z
  NUMBER                 SYMBOL               (ANGSTROMS)     (ANGSTROMS)     (ANGSTROMS)
 
     1       C(HETATM    1  C1  HET A   3)   -0.07517373     -0.00670135     -0.04383859   
     2       C(HETATM    2  C2  HET A   3)    1.28883315  *   0.21316390  *   0.53013099  *
     3       O(HETATM    3  O1  HET A   3)    2.03727265      1.17055667      0.33230043   
     4       O(HETATM    4  O2  HET A   3)    1.98637583  *  -1.16503871  *   0.44832577  *
     5       C(HETATM    5  C3  HET A   3)    3.38092089     -1.18182526      0.11374776   
     6       C(HETATM    6  C4  HET A   3)    3.74201506     -2.64925620     -0.02919353   
     7       H(HETATM    7 1H1  HET A   3)   -0.03177215     -0.46021752     -1.04571399   
     8       H(HETATM    8 2H1  HET A   3)   -0.68540999     -0.67733358      0.58215512   
     9       H(HETATM    9 3H1  HET A   3)   -0.61943580      0.94528278     -0.14164057   
    10       H(HETATM   10 1H3  HET A   3)    3.49540022     -0.62047918     -0.83078180   
    11       H(HETATM   11 2H3  HET A   3)    3.94703178     -0.67184086      0.91225904   
    12       H(HETATM   12 1H4  HET A   3)    3.45719787     -3.22823528      0.85919573   
    13       H(HETATM   13 2H4  HET A   3)    3.24385071     -3.11441779     -0.88953322   
    14       H(HETATM   14 3H4  HET A   3)    4.82510636     -2.77744605     -0.16924025   
    15       H(HETATM   15 1H   HOH A   5)    1.69483900      0.44905715      2.62635999   
    16       O(HETATM   16  O   HOH A   5)    1.12199622  *  -0.10519690  *   2.05154442  *
    17       H(HETATM   17 2H   HOH A   5)    1.79550657  *  -1.20515935  *   1.74032804  *

                             CARTESIAN COORDINATES

   1    C       -0.075173730    -0.006701350    -0.043838590
   2    C        1.288833148     0.213163897     0.530130992
   3    O        2.037272650     1.170556670     0.332300430
   4    O        1.986375829    -1.165038713     0.448325772
   5    C        3.380920890    -1.181825260     0.113747760
   6    C        3.742015060    -2.649256200    -0.029193530
   7    H       -0.031772150    -0.460217520    -1.045713990
   8    H       -0.685409990    -0.677333580     0.582155120
   9    H       -0.619435800     0.945282780    -0.141640570
  10    H        3.495400220    -0.620479180    -0.830781800
  11    H        3.947031780    -0.671840860     0.912259040
  12    H        3.457197870    -3.228235280     0.859195730
  13    H        3.243850710    -3.114417790    -0.889533220
  14    H        4.825106360    -2.777446050    -0.169240250
  15    H        1.694839000     0.449057150     2.626359990
  16    O        1.121996222    -0.105196896     2.051544417
  17    H        1.795506572    -1.205159350     1.740328042


           Empirical Formula: C4 H10 O3  =    17 atoms



      MOLECULAR POINT GROUP   :   C1  


                  EIGENVALUES  
 -30.84481 -29.16905 -28.44316 -26.88574 -25.94449 -21.55163 -20.63761 -18.13042
 -17.44309 -16.55440 -15.79168 -15.25473 -14.85447 -14.25562 -13.76385 -13.55024
 -13.14901 -12.71435 -12.52636 -11.47715 -11.20712 -11.09154   1.02788   2.08249
   3.15346   3.59088   3.86851   4.30848   4.95548   5.29672   5.38915   5.45894
   5.62789   5.78494   5.85425   5.90882   6.59922   6.86904


              NET ATOMIC CHARGES AND DIPOLE CONTRIBUTIONS

  ATOM NO.                 TYPE                        CHARGE      No. of ELECS.   s-Pop       p-Pop       
    1          C(HETATM    1  C1  HET A   3)          -0.518414        4.5184     1.06165     3.45676
    2          C(HETATM    2  C2  HET A   3)           0.791232        3.2088     1.10053     2.10824
    3          O(HETATM    3  O1  HET A   3)          -0.785927        6.7859     1.87696     4.90896
    4          O(HETATM    4  O2  HET A   3)          -0.545931        6.5459     1.88153     4.66440
    5          C(HETATM    5  C3  HET A   3)           0.015805        3.9842     1.08860     2.89560
    6          C(HETATM    6  C4  HET A   3)          -0.482123        4.4821     1.05617     3.42595
    7          H(HETATM    7 1H1  HET A   3)           0.191634        0.8084     0.80837
    8          H(HETATM    8 2H1  HET A   3)           0.193018        0.8070     0.80698
    9          H(HETATM    9 3H1  HET A   3)           0.192478        0.8075     0.80752
   10          H(HETATM   10 1H3  HET A   3)           0.143347        0.8567     0.85665
   11          H(HETATM   11 2H3  HET A   3)           0.137334        0.8627     0.86267
   12          H(HETATM   12 1H4  HET A   3)           0.163450        0.8365     0.83655
   13          H(HETATM   13 2H4  HET A   3)           0.160810        0.8392     0.83919
   14          H(HETATM   14 3H4  HET A   3)           0.168376        0.8316     0.83162
   15          H(HETATM   15 1H   HOH A   5)           0.382912        0.6171     0.61709
   16          O(HETATM   16  O   HOH A   5)          -0.690202        6.6902     1.86275     4.82745
   17          H(HETATM   17 2H   HOH A   5)           0.482203        0.5178     0.51780
 DIPOLE           X         Y         Z       TOTAL
 POINT-CHG.     0.228    -4.343     1.157     4.500
 HYBRID         0.220     0.006     0.487     0.535
 SUM            0.448    -4.337     1.644     4.659


          ATOMIC ORBITAL ELECTRON POPULATIONS

                   Atom                  s        px        py        pz   
   C(HETATM    1  C1  HET A   3)   1.06165   1.05751   1.21377   1.18548
   C(HETATM    2  C2  HET A   3)   1.10053   0.79264   0.67566   0.63993
   O(HETATM    3  O1  HET A   3)   1.87696   1.64669   1.48761   1.77467
   O(HETATM    4  O2  HET A   3)   1.88153   1.37246   1.59038   1.70156
   C(HETATM    5  C3  HET A   3)   1.08860   0.75719   1.01307   1.12534
   C(HETATM    6  C4  HET A   3)   1.05617   1.17850   1.05040   1.19706
   H(HETATM    7 1H1  HET A   3)   0.80837
   H(HETATM    8 2H1  HET A   3)   0.80698
   H(HETATM    9 3H1  HET A   3)   0.80752
   H(HETATM   10 1H3  HET A   3)   0.85665
   H(HETATM   11 2H3  HET A   3)   0.86267
   H(HETATM   12 1H4  HET A   3)   0.83655
   H(HETATM   13 2H4  HET A   3)   0.83919
   H(HETATM   14 3H4  HET A   3)   0.83162
   H(HETATM   15 1H   HOH A   5)   0.61709
   O(HETATM   16  O   HOH A   5)   1.86275   1.69726   1.62979   1.50041
   H(HETATM   17 2H   HOH A   5)   0.51780
 *******************************************************************************
 ** Site#: 10005        For non-commercial use only     Version 15.317W 64BITS**
 *******************************************************************************
 ** Cite this work as:                                                        **
 **                                                                           **
 ** (a) MOPAC2012, James J. P. Stewart, Stewart Computational Chemistry,      **
 **  Version 15.317W web: HTTP://OpenMOPAC.net         Days remaining: 362    **
 **                                                                           **
 **                                 AND                                       **
 **                                                                           **
 ** (b) Maia, J.D.C., et al., J. Chem. Theory Comput. 2012, 8, 3072-3081.     **
 **                DOI: 10.1021/ct3004645.                                    **
 *******************************************************************************
 **                                                                           **
 **                                MOPAC2012                                  **
 **                                                                           **
 *******************************************************************************

                              PM7 CALCULATION RESULTS


 *******************************************************************************
 *  CALCULATION DONE:                                Mon Nov 16 10:12:20 2015  *
 *  EPS= 78.40 - USE ANDREAS KLAMT'S COSMO IMPLICIT SOLVATION MODEL
 *  OLDGEO     - PREVIOUS GEOMETRY TO BE USED
 *  FORCE      - FORCE CALCULATION SPECIFIED
 *  T=         - A TIME OF 172800.0 SECONDS REQUESTED
 *  DUMP=N     - RESTART FILE WRITTEN EVERY  7200.000 SECONDS
 *******************************************************************************
Oldgeo FORCE  EPS=78.4

   ATOM                 CHEMICAL                   X               Y               Z
  NUMBER                 SYMBOL               (ANGSTROMS)     (ANGSTROMS)     (ANGSTROMS)
 
     1       C(HETATM    1  C1  HET A   3)   -0.07517373     -0.00670135     -0.04383859   
     2       C(HETATM    2  C2  HET A   3)    1.28883315  *   0.21316390  *   0.53013099  *
     3       O(HETATM    3  O1  HET A   3)    2.03727265      1.17055667      0.33230043   
     4       O(HETATM    4  O2  HET A   3)    1.98637583  *  -1.16503871  *   0.44832577  *
     5       C(HETATM    5  C3  HET A   3)    3.38092089     -1.18182526      0.11374776   
     6       C(HETATM    6  C4  HET A   3)    3.74201506     -2.64925620     -0.02919353   
     7       H(HETATM    7 1H1  HET A   3)   -0.03177215     -0.46021752     -1.04571399   
     8       H(HETATM    8 2H1  HET A   3)   -0.68540999     -0.67733358      0.58215512   
     9       H(HETATM    9 3H1  HET A   3)   -0.61943580      0.94528278     -0.14164057   
    10       H(HETATM   10 1H3  HET A   3)    3.49540022     -0.62047918     -0.83078180   
    11       H(HETATM   11 2H3  HET A   3)    3.94703178     -0.67184086      0.91225904   
    12       H(HETATM   12 1H4  HET A   3)    3.45719787     -3.22823528      0.85919573   
    13       H(HETATM   13 2H4  HET A   3)    3.24385071     -3.11441779     -0.88953322   
    14       H(HETATM   14 3H4  HET A   3)    4.82510636     -2.77744605     -0.16924025   
    15       H(HETATM   15  H   HOH A   5)    1.69483900      0.44905715      2.62635999   
    16       O(HETATM   16  O   HOH A   5)    1.12199622  *  -0.10519690  *   2.05154442  *
    17       H(HETATM   17 2H   HOH A   5)    1.79550657  *  -1.20515935  *   1.74032804  *
 

 General Reference for PM7:
 "Optimization of Parameters for Semiempirical Methods VI: More Modifications to the 
 NDDO Approximations and Re-optimization of Parameters", J. J. P. Stewart, J. Mol. Mod., 1:32, 19 (2013)
 http://www.springerlink.com/openurl.asp?genre=article&id=doi:10.1007/s00894-012-1667-x

           Empirical Formula: C4 H10 O3  =    17 atoms



      MOLECULAR POINT GROUP   :   C1  


      RHF CALCULATION, NO. OF DOUBLY OCCUPIED LEVELS =   22



          HEAT OF FORMATION =    -141.189702 KCALS/MOLE


          CARTESIAN COORDINATE DERIVATIVES

   NUMBER  ATOM         X            Y            Z

     1       C     -0.464560    -0.064462     0.379362
     2       C     -0.216722     0.373474     0.271203
     3       O      0.530068     0.926381     0.212576
     4       O      0.097425    -0.203984     0.167107
     5       C      0.758885    -0.470584    -1.459863
     6       C     -0.856126     0.504748     0.493271
     7       H     -1.070074    -0.158284     1.105275
     8       H      0.914846     0.209278    -0.160775
     9       H     -0.258016    -0.242243    -0.894236
    10       H      0.578449    -0.382769    -0.561848
    11       H      0.025226    -0.290076    -0.061727
    12       H     -0.101887     0.093563    -0.319940
    13       H      0.193062    -0.201485    -0.519937
    14       H      0.298001    -0.150774    -0.327479
    15       H     -0.945824    -0.363323     1.716419
    16       O     -0.001757     0.182440     0.520451
    17       H      0.518999     0.238095    -0.559861
 


          GRADIENT NORM =   4.09393


          TIME FOR SCF CALCULATION =    0.01

          TIME FOR DERIVATIVES     =    0.00

          MOLECULAR WEIGHT =  106.12



          ROTATIONAL CONSTANTS IN CM(-1)

          A =    0.14881535   B =    0.05352457   C =    0.05284450



           PRINCIPAL MOMENTS OF INERTIA IN UNITS OF 10**(-40)*GRAM-CM**2

          A =      188.1041   B =      522.9892   C =      529.7197


          ORIENTATION OF MOLECULE IN FORCE CALCULATION

    NO.       ATOM         X         Y         Z

     1          C      -1.9603    0.6011    0.6152
     2          C      -0.4642    0.6011    0.6152
     3          O       0.2830    1.5797    0.6152
     4          O      -0.0622   -0.5042   -0.3895
     5          C       1.0784   -0.2572   -1.2232
     6          C       1.1371   -1.4326   -2.1819
     7          H      -2.3717    0.7073   -0.4000
     8          H      -2.3751   -0.3316    1.0300
     9          H      -2.3541    1.4367    1.2142
    10          H       0.9029    0.7044   -1.7377
    11          H       1.9758   -0.1719   -0.5863
    12          H       1.1332   -2.3935   -1.6506
    13          H       0.2845   -1.4438   -2.8730
    14          H       2.0520   -1.3999   -2.7910
    15          H       0.7448   -0.2045    2.1976
    16          O      -0.0794   -0.4393    1.7168
    17          H       0.2536   -1.1917    0.6759


    FIRST DERIVATIVES WILL BE USED IN THE CALCULATION OF SECOND DERIVATIVES

          ESTIMATED TIME TO COMPLETE CALCULATION =        1.20 SECONDS

    FOR POINT-GROUP C1   THERE ARE   1 UNIQUE SYMMETRY FUNCTIONS.

 STEP:   1 TIME =     0.03 SECS, INTEGRAL =      0.03 TIME LEFT: 172799.96
 STEP:   2 TIME =     0.02 SECS, INTEGRAL =      0.05 TIME LEFT: 172799.94
 STEP:   3 TIME =     0.02 SECS, INTEGRAL =      0.06 TIME LEFT: 172799.93
 STEP:   4 TIME =     0.03 SECS, INTEGRAL =      0.09 TIME LEFT: 172799.89
 STEP:   5 TIME =     0.02 SECS, INTEGRAL =      0.11 TIME LEFT: 172799.88
 STEP:   6 TIME =     0.02 SECS, INTEGRAL =      0.12 TIME LEFT: 172799.86
 STEP:   7 TIME =     0.03 SECS, INTEGRAL =      0.16 TIME LEFT: 172799.83
 STEP:   8 TIME =     0.02 SECS, INTEGRAL =      0.17 TIME LEFT: 172799.82
 STEP:   9 TIME =     0.03 SECS, INTEGRAL =      0.20 TIME LEFT: 172799.79
 STEP:  10 TIME =     0.02 SECS, INTEGRAL =      0.22 TIME LEFT: 172799.77
 STEP:  11 TIME =     0.02 SECS, INTEGRAL =      0.23 TIME LEFT: 172799.75
 STEP:  12 TIME =     0.03 SECS, INTEGRAL =      0.27 TIME LEFT: 172799.72
 STEP:  13 TIME =     0.02 SECS, INTEGRAL =      0.28 TIME LEFT: 172799.71
 STEP:  14 TIME =     0.02 SECS, INTEGRAL =      0.30 TIME LEFT: 172799.69
 STEP:  15 TIME =     0.03 SECS, INTEGRAL =      0.33 TIME LEFT: 172799.66
 STEP:  16 TIME =     0.02 SECS, INTEGRAL =      0.34 TIME LEFT: 172799.64
 STEP:  17 TIME =     0.02 SECS, INTEGRAL =      0.36 TIME LEFT: 172799.63
 STEP:  18 TIME =     0.03 SECS, INTEGRAL =      0.39 TIME LEFT: 172799.60
 STEP:  19 TIME =     0.02 SECS, INTEGRAL =      0.41 TIME LEFT: 172799.58
 STEP:  20 TIME =     0.03 SECS, INTEGRAL =      0.44 TIME LEFT: 172799.55
 STEP:  21 TIME =     0.03 SECS, INTEGRAL =      0.47 TIME LEFT: 172799.52
 STEP:  22 TIME =     0.02 SECS, INTEGRAL =      0.48 TIME LEFT: 172799.50
 STEP:  23 TIME =     0.03 SECS, INTEGRAL =      0.52 TIME LEFT: 172799.47
 STEP:  24 TIME =     0.02 SECS, INTEGRAL =      0.53 TIME LEFT: 172799.46
 STEP:  25 TIME =     0.03 SECS, INTEGRAL =      0.56 TIME LEFT: 172799.43
 STEP:  26 TIME =     0.02 SECS, INTEGRAL =      0.58 TIME LEFT: 172799.41
 STEP:  27 TIME =     0.03 SECS, INTEGRAL =      0.61 TIME LEFT: 172799.38
 STEP:  28 TIME =     0.02 SECS, INTEGRAL =      0.62 TIME LEFT: 172799.36
 STEP:  29 TIME =     0.02 SECS, INTEGRAL =      0.64 TIME LEFT: 172799.35
 STEP:  30 TIME =     0.02 SECS, INTEGRAL =      0.66 TIME LEFT: 172799.33
 STEP:  31 TIME =     0.02 SECS, INTEGRAL =      0.67 TIME LEFT: 172799.32
 STEP:  32 TIME =     0.02 SECS, INTEGRAL =      0.69 TIME LEFT: 172799.30
 STEP:  33 TIME =     0.02 SECS, INTEGRAL =      0.70 TIME LEFT: 172799.29
 STEP:  34 TIME =     0.03 SECS, INTEGRAL =      0.73 TIME LEFT: 172799.25
 STEP:  35 TIME =     0.03 SECS, INTEGRAL =      0.77 TIME LEFT: 172799.22
 STEP:  36 TIME =     0.02 SECS, INTEGRAL =      0.78 TIME LEFT: 172799.21
 STEP:  37 TIME =     0.02 SECS, INTEGRAL =      0.80 TIME LEFT: 172799.19
 STEP:  38 TIME =     0.03 SECS, INTEGRAL =      0.83 TIME LEFT: 172799.16
 STEP:  39 TIME =     0.02 SECS, INTEGRAL =      0.84 TIME LEFT: 172799.14
 STEP:  40 TIME =     0.02 SECS, INTEGRAL =      0.86 TIME LEFT: 172799.13
 STEP:  41 TIME =     0.03 SECS, INTEGRAL =      0.89 TIME LEFT: 172799.10
 STEP:  42 TIME =     0.02 SECS, INTEGRAL =      0.91 TIME LEFT: 172799.08
 STEP:  43 TIME =     0.02 SECS, INTEGRAL =      0.92 TIME LEFT: 172799.07
 STEP:  44 TIME =     0.03 SECS, INTEGRAL =      0.95 TIME LEFT: 172799.04
 STEP:  45 TIME =     0.02 SECS, INTEGRAL =      0.97 TIME LEFT: 172799.02
 STEP:  46 TIME =     0.02 SECS, INTEGRAL =      0.98 TIME LEFT: 172799.00
 STEP:  47 TIME =     0.03 SECS, INTEGRAL =      1.02 TIME LEFT: 172798.97
 STEP:  48 TIME =     0.02 SECS, INTEGRAL =      1.03 TIME LEFT: 172798.96
 STEP:  49 TIME =     0.03 SECS, INTEGRAL =      1.06 TIME LEFT: 172798.93
 STEP:  50 TIME =     0.02 SECS, INTEGRAL =      1.08 TIME LEFT: 172798.91
 STEP:  51 TIME =     0.03 SECS, INTEGRAL =      1.11 TIME LEFT: 172798.88

(To convert to Hartree/Bohr^2, multiply by (10^(-21) x N x a0^2)/(4.184 x 627.51) =  0.0642)


           FORCE MATRIX IN MILLIDYNES/ANGSTROM


                  C  1       C  2       O  3       O  4       C  5       C  6
 ------------------------------------------------------------------------------
     C    1  11.332745
     C    2   3.234593  14.912718
     O    3   1.040154   9.844038  12.106590
     O    4   0.791083   1.312585   1.405962   7.868857
     C    5   0.116709   0.881909   0.183083   3.713972  11.964273
     C    6   0.055716   0.254311   0.078523   1.155659   3.238777  11.351536
     H    7   3.321678   0.751189   0.053912   0.024056   0.016306   0.009014
     H    8   3.322747   0.764233   0.056940   0.027590   0.015982   0.007711
     H    9   3.327826   0.754713   0.057208   0.058059   0.019405   0.008377
     H   10   0.013759   0.079933   0.024578   0.724287   3.308519   0.656330
     H   11   0.011511   0.063658   0.014953   0.697820   3.304312   0.654926
     H   12   0.007531   0.038055   0.012640   0.035170   0.695187   3.375508
     H   13   0.007755   0.036681   0.012468   0.033078   0.697598   3.386192
     H   14   0.006608   0.029661   0.009339   0.073573   0.680833   3.342613
     H   15   0.083904   0.812864   0.149582   0.164464   0.053424   0.019772
     O   16   0.838636   1.467195   1.452873   2.359808   0.250669   0.089200
     H   17   0.152704   1.781671   0.162508   1.323479   0.554973   0.071633


                  H  7       H  8       H  9       H 10       H 11       H 12
 ------------------------------------------------------------------------------
     H    7   4.140555
     H    8   0.447904   4.144966
     H    9   0.443710   0.444079   4.132073
     H   10   0.002839   0.002036   0.005769   4.182460
     H   11   0.002231   0.001683   0.001461   0.442371   4.154316
     H   12   0.001211   0.001611   0.001073   0.046057   0.011974   4.178143
     H   13   0.002529   0.001357   0.001219   0.016166   0.047208   0.456661
     H   14   0.001311   0.000817   0.001076   0.015742   0.014965   0.457161
     H   15   0.012894   0.011957   0.012425   0.006888   0.005258   0.007888
     O   16   0.053499   0.025247   0.053081   0.040013   0.034116   0.019025
     H   17   0.027312   0.021501   0.019662   0.066035   0.050566   0.027478


                  H 13       H 14       H 15       O 16       H 17
 ------------------------------------------------------------------
     H   13   4.184990
     H   14   0.456840   4.152538
     H   15   0.002486   0.002250   4.350634
     O   16   0.013780   0.010389   3.863220   6.175267
     H   17   0.019288   0.012191   0.317527   1.243676   2.560417


          HEAT OF FORMATION =    -141.189702 KCALS/MOLE

          ZERO POINT ENERGY      78.883 KCAL/MOL

         NOTE: SYSTEM IS NOT A GROUND STATE, THEREFORE ZERO POINT
         ENERGY IS NOT MEANINGFULL. ZERO POINT ENERGY PRINTED
         DOES NOT INCLUDE THE  2 IMAGINARY FREQUENCIES


           NORMAL COORDINATE ANALYSIS (Total motion = 1 Angstrom)


   Root No.       1         2         3         4         5         6         7         8

                 1 A       2 A       3 A       4 A       5 A       6 A       7 A       8 A   

               -1225.2     -72.6      50.2     123.4     162.7     169.8     290.2     316.5
  
           1    0.0002    0.0007   -0.0013   -0.0070   -0.0028   -0.0002    0.0044    0.0071
           2    0.0005   -0.0049    0.0175   -0.0004    0.0140   -0.0257   -0.0007   -0.0273
           3    0.0044   -0.0037    0.0278    0.0344    0.0131   -0.0143   -0.0611   -0.0203
           4    0.0010    0.0001   -0.0015   -0.0070   -0.0030    0.0011    0.0026    0.0091
           5    0.0004    0.0011    0.0043    0.0059   -0.0026    0.0203    0.0024   -0.0196
           6   -0.0748   -0.0004    0.0027   -0.0051   -0.0053    0.0056    0.0141   -0.0124
           7   -0.0004   -0.0008    0.0072   -0.0112    0.0055   -0.0237    0.0077    0.0262
           8    0.0005    0.0033   -0.0034    0.0074   -0.0086    0.0353   -0.0021   -0.0262
           9    0.0044   -0.0046    0.0115   -0.0213   -0.0215    0.0488    0.0267   -0.0450
          10   -0.0058    0.0018   -0.0289   -0.0267   -0.0137    0.0090   -0.0482   -0.0081
          11    0.0319   -0.0006    0.0176    0.0039   -0.0095    0.0417   -0.0166    0.0213
          12   -0.0041    0.0034   -0.0276   -0.0207   -0.0034   -0.0217    0.0019   -0.0023
          13   -0.0126   -0.0024   -0.0265    0.0223    0.0086    0.0327   -0.0395    0.0128
          14    0.0032   -0.0017    0.0200   -0.0233   -0.0092   -0.0195   -0.0099    0.0524
          15    0.0096   -0.0025   -0.0234    0.0357    0.0244   -0.0021    0.0240    0.0301
          16   -0.0011   -0.0020    0.0421    0.0126    0.0122   -0.0306    0.0055   -0.0486
          17   -0.0003   -0.0077   -0.0275    0.0069    0.0146   -0.0358    0.0135    0.0254
          18    0.0009    0.0049    0.0395   -0.0016   -0.0029    0.0103    0.0011    0.0684
          19   -0.0090    0.0095   -0.0194   -0.0376   -0.0153    0.0097    0.0720    0.0184
          20   -0.0026    0.2895    0.0243    0.0097    0.0256   -0.0447   -0.0062   -0.0367
          21    0.0050    0.0239    0.0360    0.0484    0.0196   -0.0204   -0.0918   -0.0264
          22    0.0048    0.0026   -0.0029    0.0073   -0.0087    0.0243   -0.0170    0.0147
          23   -0.0006   -0.1233    0.0204   -0.0057    0.0169   -0.0382   -0.0024   -0.0326
          24    0.0035   -0.2694    0.0327    0.0369    0.0136   -0.0172   -0.0892   -0.0236
          25    0.0046   -0.0041    0.0174    0.0080    0.0153   -0.0348   -0.0401   -0.0103
          26   -0.0011   -0.1750    0.0192   -0.0082    0.0152   -0.0368    0.0004   -0.0320
          27    0.0051    0.2297    0.0381    0.0559    0.0235   -0.0217   -0.0933   -0.0292
          28    0.0258   -0.0076   -0.0658    0.0945    0.0342    0.0934   -0.0356    0.0239
          29   -0.0013   -0.0055   -0.0149    0.0021    0.0051   -0.0138   -0.0034    0.0520
          30   -0.0107   -0.0080   -0.0746    0.0591    0.0412   -0.0097    0.0322    0.0275
          31   -0.0133   -0.0003   -0.0386   -0.0032   -0.0031    0.0299   -0.0523    0.0054
          32   -0.0111    0.0055    0.0961   -0.0885   -0.0375   -0.0689   -0.0095    0.0475
          33    0.0096   -0.0065   -0.0160    0.0812    0.0447    0.0080    0.0438    0.0393
          34   -0.0029    0.0007    0.0746   -0.0793    0.2227    0.0265    0.0240   -0.0814
          35    0.0047   -0.0044   -0.0002   -0.0117    0.0048   -0.0271    0.0012    0.0434
          36    0.0050    0.0109    0.0892   -0.0360   -0.0197    0.0260   -0.0215    0.1041
          37    0.0004   -0.0029    0.0548    0.0568   -0.0958   -0.0906    0.0184   -0.0720
          38   -0.0001   -0.0136   -0.1009    0.0829   -0.0837   -0.0565    0.0060    0.0384
          39    0.0030    0.0062    0.0247   -0.0571    0.1312    0.0845   -0.0145    0.0947
          40   -0.0012   -0.0030    0.0511    0.0535   -0.0876   -0.0832    0.0153   -0.0649
          41    0.0042   -0.0099   -0.0197   -0.0266    0.1480   -0.0328    0.0537   -0.0427
          42    0.0052    0.0032    0.0535    0.0577   -0.1458   -0.0676    0.0171    0.0434
          43    0.0302   -0.0006    0.0229    0.0452    0.0032    0.0310    0.1141    0.0002
          44   -0.0372    0.0142   -0.0451   -0.0216   -0.0087   -0.0349    0.0021   -0.0142
          45    0.0117    0.0043   -0.0400   -0.0552   -0.0129   -0.0393   -0.0822   -0.0062
          46    0.0123    0.0016    0.0078    0.0164   -0.0054    0.0134    0.0569    0.0076
          47   -0.0352    0.0083   -0.0231    0.0020    0.0009   -0.0096    0.0132   -0.0183
          48   -0.0010    0.0024   -0.0251   -0.0160   -0.0030   -0.0206    0.0061   -0.0131
          49    0.0141    0.0070   -0.0255   -0.0521   -0.0271   -0.0207   -0.0380   -0.0085
          50    0.0451    0.0047   -0.0080   -0.0142   -0.0115    0.0068   -0.0169   -0.0209
          51    0.6892    0.0082   -0.0448   -0.0254   -0.0008   -0.0393    0.0104   -0.0511


   Root No.       9        10        11        12        13        14        15        16

                 9 A      10 A      11 A      12 A      13 A      14 A      15 A      16 A   

                 361.4     471.2     548.9     590.7     610.8     638.4     726.1     857.9
  
           1    0.0140    0.0543   -0.0318   -0.0068   -0.0417   -0.0267   -0.0128   -0.0018
           2   -0.0664   -0.0031    0.0073    0.0042    0.0092   -0.0024   -0.0084   -0.0006
           3    0.0091   -0.0064   -0.0084   -0.0016    0.0002    0.0191   -0.0113    0.0017
           4    0.0161    0.0503   -0.0325   -0.0106   -0.0421   -0.0082    0.0077    0.0003
           5    0.0353    0.0119    0.0242    0.0400    0.0764   -0.0178   -0.0325   -0.0009
           6    0.0018    0.0265    0.0452   -0.0056   -0.0183    0.1161   -0.0432    0.0031
           7    0.0608   -0.0314    0.0102    0.0149    0.0326    0.0113    0.0046   -0.0006
           8    0.0002    0.0744   -0.0185    0.0167    0.0058   -0.0185   -0.0135   -0.0010
           9    0.0028   -0.0451   -0.0501    0.0069   -0.0037   -0.0226    0.0032   -0.0005
          10   -0.0297   -0.0044   -0.0094   -0.0108    0.0385    0.0309    0.0076   -0.0064
          11    0.0196   -0.0057    0.0651   -0.0230   -0.0332    0.0119    0.0694    0.0067
          12   -0.0114    0.0301    0.0010    0.0075    0.0305    0.0082    0.0786   -0.0104
          13   -0.0213   -0.0297    0.0092   -0.0163    0.0014   -0.0108   -0.0232    0.0221
          14   -0.0105   -0.0109   -0.0098   -0.0116    0.0002   -0.0034   -0.0262   -0.0165
          15   -0.0021    0.0136   -0.0185    0.0209    0.0080    0.0099    0.0127    0.0227
          16    0.0125    0.0014    0.0150   -0.0022   -0.0035    0.0011    0.0001    0.0106
          17   -0.0002    0.0051   -0.0159    0.0022    0.0042   -0.0082   -0.0075   -0.0098
          18   -0.0132   -0.0006   -0.0223    0.0075    0.0026   -0.0066   -0.0035    0.0079
          19   -0.0059    0.1028    0.0420   -0.0258   -0.0833    0.1271   -0.0793    0.0107
          20   -0.1225   -0.0050    0.0027   -0.0199   -0.0296   -0.0022    0.0068    0.0019
          21    0.0123   -0.0278   -0.0452    0.0035    0.0116   -0.0471    0.0235   -0.0039
          22    0.1049    0.0457   -0.0469    0.0408    0.0416   -0.0948   -0.0093   -0.0099
          23   -0.1096   -0.0073   -0.0022   -0.0190   -0.0338    0.0061    0.0076    0.0018
          24    0.0159   -0.0277   -0.0468    0.0020    0.0025   -0.0413    0.0250   -0.0036
          25   -0.0631    0.0271   -0.1024   -0.0439   -0.1146   -0.1025    0.0647   -0.0045
          26   -0.1086   -0.0028    0.0018   -0.0173   -0.0330    0.0037    0.0034    0.0018
          27    0.0111   -0.0273   -0.0497    0.0038    0.0113   -0.0504    0.0230   -0.0040
          28   -0.0039   -0.0590    0.0623   -0.0007   -0.0643    0.0096   -0.0337   -0.1209
          29   -0.0091   -0.0130   -0.0089   -0.0038   -0.0084   -0.0057   -0.0338   -0.1014
          30   -0.0077    0.0135   -0.0314    0.0306    0.0095    0.0005   -0.0067   -0.1198
          31   -0.0298   -0.0202    0.0062   -0.0191    0.0256    0.0079    0.0001    0.0018
          32   -0.0146    0.0115   -0.0463   -0.0217    0.0443   -0.0137   -0.0208    0.2051
          33    0.0120   -0.0015   -0.0078    0.0300   -0.0346   -0.0151   -0.0152   -0.0052
          34    0.0289    0.0140    0.0290    0.0031   -0.0113    0.0020    0.0463   -0.0506
          35   -0.0065   -0.0050   -0.0192   -0.0077    0.0041   -0.0042   -0.0449   -0.0777
          36   -0.0262   -0.0196   -0.0315   -0.0112    0.0033   -0.0034   -0.0795   -0.1403
          37    0.0248    0.0170    0.0261    0.0018   -0.0088    0.0059    0.0463   -0.0477
          38   -0.0116   -0.0001   -0.0238    0.0073    0.0149   -0.0092   -0.0108    0.1650
          39   -0.0273   -0.0193   -0.0339    0.0021    0.0089   -0.0076   -0.0589    0.0556
          40    0.0213    0.0135    0.0219    0.0014   -0.0072    0.0053    0.0333   -0.0455
          41    0.0315    0.0369    0.0062    0.0238   -0.0040    0.0054    0.0953    0.0193
          42    0.0003    0.0172   -0.0146    0.0137   -0.0009    0.0047    0.0348   -0.0702
          43   -0.0433   -0.0092   -0.0133   -0.2073    0.1254    0.0222    0.0010   -0.0148
          44   -0.0162   -0.1850    0.0143    0.1486   -0.1147   -0.0477    0.0470    0.0069
          45    0.0309    0.0246    0.0869    0.2433   -0.1899   -0.0465   -0.0565    0.0261
          46   -0.0448   -0.0252    0.0257    0.0267    0.0019   -0.0101    0.0053    0.0029
          47    0.0337   -0.0560   -0.0500   -0.0295   -0.0295    0.0351    0.0006    0.0014
          48    0.0095   -0.0053    0.0649   -0.0486   -0.0087   -0.0876   -0.0346    0.0004
          49   -0.0700   -0.0709    0.0322    0.1883   -0.0396    0.0398   -0.0103   -0.0248
          50    0.0151   -0.0675    0.0597    0.0651   -0.0105   -0.0078   -0.0581   -0.0029
          51    0.0184   -0.0035   -0.0290   -0.0274   -0.0201    0.1741   -0.0978    0.0085


   Root No.      17        18        19        20        21        22        23        24

                17 A      18 A      19 A      20 A      21 A      22 A      23 A      24 A   

                 968.2     999.3    1044.9    1047.1    1074.0    1093.2    1140.6    1155.2
  
           1    0.0374    0.0428   -0.0046   -0.0233    0.0016    0.0429   -0.0010   -0.0006
           2    0.0050    0.0213   -0.0455   -0.0096   -0.0078   -0.0211   -0.0005   -0.0031
           3    0.0025    0.0194   -0.0058    0.0448    0.0109    0.0120   -0.0057   -0.0002
           4   -0.0193   -0.0156   -0.0021    0.0136   -0.0018   -0.0417    0.0044    0.0029
           5    0.0103   -0.0021    0.0148   -0.0030    0.0014    0.0329   -0.0068   -0.0049
           6    0.0039   -0.0052    0.0130   -0.0364   -0.0159   -0.0189    0.0096   -0.0030
           7   -0.0115   -0.0122    0.0189    0.0095    0.0009   -0.0140    0.0028    0.0057
           8   -0.0132   -0.0105    0.0223    0.0130   -0.0003   -0.0287    0.0059    0.0094
           9   -0.0018    0.0003   -0.0029    0.0061    0.0022    0.0017   -0.0012    0.0008
          10    0.0332   -0.0153    0.0018   -0.0007   -0.0113    0.0073   -0.0329   -0.0268
          11    0.0028    0.0046   -0.0020   -0.0078   -0.0052    0.0138    0.0006   -0.0107
          12   -0.0371    0.0207   -0.0047   -0.0009    0.0168   -0.0001    0.0035    0.0117
          13   -0.0276    0.0065   -0.0113    0.0141   -0.0063   -0.0070    0.0446    0.0427
          14   -0.0063    0.0022   -0.0014   -0.0038    0.0087   -0.0111   -0.0410    0.0881
          15    0.0173   -0.0049    0.0054   -0.0079   -0.0249    0.0269   -0.0043    0.0651
          16   -0.0321    0.0175    0.0094   -0.0146    0.0103    0.0037   -0.0230   -0.0312
          17   -0.0071    0.0004    0.0008    0.0048   -0.0055    0.0050    0.0375   -0.0813
          18    0.0299   -0.0125   -0.0044    0.0099    0.0161   -0.0188    0.0047   -0.0693
          19    0.0268    0.1044   -0.0045    0.1938    0.0592    0.1004   -0.0204    0.0019
          20   -0.0050   -0.0434    0.0682    0.0175    0.0102    0.0407   -0.0080   -0.0016
          21    0.0012   -0.0238    0.0068   -0.0600   -0.0172   -0.0206    0.0052   -0.0011
          22    0.0492    0.1035   -0.1745   -0.1334   -0.0438   -0.0640    0.0087   -0.0093
          23   -0.0077   -0.0406    0.0618    0.0111    0.0068    0.0235   -0.0015    0.0006
          24    0.0013   -0.0309    0.0213   -0.0602   -0.0156   -0.0102    0.0046   -0.0031
          25    0.0080   -0.1051    0.1740   -0.1031    0.0038    0.0792    0.0168    0.0082
          26   -0.0024   -0.0299    0.0546    0.0188    0.0130    0.0387   -0.0038    0.0008
          27    0.0012   -0.0228    0.0033   -0.0683   -0.0179   -0.0234    0.0100   -0.0014
          28    0.0333   -0.0017    0.0019   -0.0160    0.1064   -0.0861   -0.0600    0.0170
          29   -0.0121    0.0016    0.0016   -0.0017    0.0099   -0.0099   -0.0653    0.0380
          30   -0.0253    0.0023    0.0070    0.0026   -0.0458    0.0457   -0.0364    0.0056
          31    0.0006   -0.0163   -0.0230    0.0329   -0.0632    0.0265    0.0917    0.0029
          32   -0.0057    0.0003   -0.0013   -0.0007   -0.0288    0.0164    0.0593    0.1544
          33   -0.0116    0.0242    0.0237   -0.0354    0.0707   -0.0289   -0.0984    0.0747
          34    0.0436   -0.0238   -0.0189    0.0263   -0.0135   -0.0049    0.0481    0.0486
          35   -0.0638    0.0180    0.0096   -0.0061   -0.0412    0.0406    0.0602   -0.0458
          36   -0.0956    0.0265    0.0146   -0.0103   -0.0622    0.0611    0.0725   -0.0361
          37    0.0477   -0.0251   -0.0187    0.0260   -0.0113   -0.0103    0.0314    0.0536
          38   -0.0029    0.0173    0.0162   -0.0260    0.0757   -0.0398   -0.0711   -0.1485
          39   -0.0614    0.0337    0.0263   -0.0350    0.0266    0.0062   -0.0483   -0.1309
          40    0.0315   -0.0179   -0.0118    0.0172   -0.0175    0.0026    0.0280    0.0278
          41    0.2058   -0.0912   -0.0430    0.0619    0.0131   -0.0638    0.0160    0.0371
          42    0.1091   -0.0567   -0.0274    0.0444   -0.0280   -0.0102    0.0590    0.0288
          43    0.0292    0.0182    0.0236   -0.0261    0.0422   -0.0186    0.0424    0.0221
          44    0.0791    0.1951    0.1779    0.0502   -0.1373   -0.1202   -0.0257   -0.0208
          45   -0.0845   -0.1374   -0.1222    0.0136   -0.0256    0.0637   -0.0617   -0.0343
          46   -0.0115   -0.0151   -0.0133    0.0025   -0.0080    0.0069   -0.0109   -0.0060
          47   -0.0059   -0.0123   -0.0197   -0.0017    0.0078    0.0126   -0.0013   -0.0007
          48    0.0096   -0.0068    0.0035    0.0020    0.0005   -0.0056   -0.0006   -0.0003
          49    0.0635    0.0303    0.0366   -0.0748    0.1842   -0.0039    0.1664    0.0925
          50    0.0504    0.0016    0.0190   -0.0412    0.0811    0.0415    0.0839    0.0302
          51   -0.0092   -0.0022    0.0122   -0.0288   -0.0299   -0.0336    0.0156   -0.0072


   Root No.      25        26        27        28        29        30        31        32

                25 A      26 A      27 A      28 A      29 A      30 A      31 A      32 A   

                1169.1    1183.3    1223.2    1229.8    1259.4    1266.5    1308.5    1321.3
  
           1   -0.0072   -0.0303   -0.0015   -0.0033    0.0010   -0.0018    0.0003    0.0009
           2    0.0034    0.0135   -0.0253    0.0247   -0.0007    0.0014    0.0009   -0.0002
           3    0.0039    0.0109   -0.0252   -0.0262   -0.0001    0.0004    0.0015   -0.0013
           4    0.0061    0.0353    0.0034   -0.0036   -0.0017    0.0021    0.0018   -0.0031
           5   -0.0032   -0.0284   -0.0031    0.0016    0.0014   -0.0012    0.0002    0.0008
           6   -0.0057   -0.0180   -0.0026   -0.0045    0.0012   -0.0010   -0.0041    0.0043
           7   -0.0003    0.0048   -0.0005    0.0002   -0.0001   -0.0001   -0.0011    0.0001
           8   -0.0004    0.0112   -0.0004    0.0004   -0.0003   -0.0001   -0.0007   -0.0006
           9    0.0006    0.0004    0.0006   -0.0005    0.0000   -0.0001    0.0009   -0.0008
          10    0.0253    0.0218   -0.0012    0.0020    0.0004    0.0061   -0.0038    0.0058
          11    0.0015    0.0177    0.0004    0.0006   -0.0012    0.0019   -0.0032    0.0074
          12   -0.0032   -0.0318   -0.0004   -0.0008    0.0008   -0.0051    0.0041   -0.0032
          13   -0.0092   -0.0417   -0.0006   -0.0020   -0.0027   -0.0074   -0.0389    0.0192
          14   -0.0253   -0.0126   -0.0003   -0.0002    0.0047   -0.0020   -0.0270   -0.0232
          15    0.0121    0.0459    0.0013    0.0018   -0.0046    0.0059    0.0137   -0.0335
          16   -0.0157    0.0160    0.0002    0.0006   -0.0263   -0.0213    0.0076   -0.0112
          17    0.0289   -0.0029   -0.0004    0.0000    0.0084   -0.0171    0.0038    0.0108
          18   -0.0213   -0.0169   -0.0004   -0.0013   -0.0168    0.0188   -0.0034    0.0204
          19    0.0060    0.0034    0.0940    0.1605   -0.0020    0.0017    0.0004   -0.0014
          20   -0.0004   -0.0204    0.3244   -0.2189    0.0028   -0.0066   -0.0037    0.0012
          21   -0.0024   -0.0055   -0.0145   -0.1039    0.0013   -0.0016    0.0002    0.0003
          22    0.0005    0.0113    0.0920   -0.1328    0.0014   -0.0015   -0.0078    0.0049
          23   -0.0027   -0.0197    0.1091    0.1312   -0.0009   -0.0001    0.0020   -0.0007
          24   -0.0037   -0.0252    0.3554    0.1219   -0.0005   -0.0023   -0.0044    0.0027
          25   -0.0260   -0.0841   -0.1748    0.0271    0.0035   -0.0027   -0.0093    0.0064
          26   -0.0021   -0.0097   -0.0909   -0.2193    0.0030   -0.0026   -0.0026    0.0013
          27   -0.0056   -0.0162   -0.0201    0.3297   -0.0025    0.0041   -0.0011    0.0018
          28    0.0886   -0.1102   -0.0009   -0.0047    0.0167   -0.0239    0.3710   -0.0838
          29   -0.1021    0.0169    0.0009    0.0006    0.0102   -0.0019    0.0872    0.1169
          30   -0.1822    0.1086    0.0031    0.0029   -0.0017    0.0117    0.0757    0.2483
          31   -0.1748    0.0100    0.0025   -0.0020   -0.0091   -0.0162    0.0911   -0.1147
          32    0.1095   -0.0139    0.0013   -0.0011    0.0087   -0.0076    0.3083    0.1482
          33    0.2278   -0.0206   -0.0035    0.0023    0.0011    0.0194   -0.2017    0.1387
          34    0.0030   -0.0275    0.0022   -0.0015    0.3017    0.2334   -0.0042    0.0075
          35    0.0792    0.0139    0.0007   -0.0008   -0.0560    0.0595    0.0061   -0.0740
          36    0.0973    0.0258    0.0017   -0.0019   -0.1129    0.1343    0.0079   -0.1239
          37   -0.0024   -0.0412    0.0010   -0.0053   -0.1111    0.1748    0.0085    0.0465
          38   -0.0957   -0.0048    0.0025   -0.0024    0.1246    0.2362   -0.0085   -0.1100
          39   -0.0262    0.0529   -0.0012    0.0061    0.1128   -0.2232   -0.0092   -0.0567
          40    0.0131   -0.0001   -0.0012    0.0035    0.1538   -0.1243   -0.0197   -0.0304
          41   -0.0343   -0.0814   -0.0034   -0.0035   -0.2301   -0.0847   -0.0480   -0.0613
          42    0.0238   -0.0185   -0.0024    0.0043    0.2291   -0.1637   -0.0400   -0.0297
          43   -0.0049    0.0389    0.0029    0.0008   -0.0032    0.0003   -0.0053    0.0017
          44    0.0000   -0.0308   -0.0012   -0.0041    0.0043    0.0015    0.0040   -0.0008
          45    0.0114   -0.0382   -0.0045    0.0017    0.0039    0.0013    0.0066   -0.0009
          46    0.0017   -0.0087   -0.0011    0.0011    0.0007   -0.0001    0.0013   -0.0002
          47    0.0001   -0.0005   -0.0000   -0.0008    0.0000   -0.0001    0.0004    0.0000
          48    0.0031    0.0143    0.0002    0.0015   -0.0005    0.0011    0.0004   -0.0009
          49   -0.0162    0.1618    0.0108    0.0020   -0.0150    0.0026   -0.0213    0.0028
          50   -0.0181    0.0601    0.0022    0.0029   -0.0061    0.0034   -0.0237    0.0137
          51   -0.0189   -0.0539   -0.0007   -0.0067    0.0045   -0.0034   -0.0124    0.0179


   Root No.      33        34        35        36        37        38        39        40

                33 A      34 A      35 A      36 A      37 A      38 A      39 A      40 A   

                1338.7    1377.5    1707.6    2056.5    2639.6    2644.6    2648.1    2659.4
  
           1   -0.0639    0.0011   -0.0335   -0.0009   -0.0001   -0.0003   -0.0003    0.0001
           2    0.0009    0.0000   -0.0091    0.0026    0.0018    0.0227   -0.0410    0.0005
           3    0.0010   -0.0003   -0.0026    0.0001    0.0004   -0.0445   -0.0209    0.0009
           4    0.0023   -0.0003    0.1987    0.0047   -0.0000    0.0001   -0.0008    0.0001
           5    0.0098   -0.0006    0.1499   -0.0421    0.0001    0.0017   -0.0037    0.0000
           6    0.0020    0.0006    0.0071    0.0001   -0.0001   -0.0027   -0.0012   -0.0000
           7   -0.0035   -0.0001   -0.0942    0.0067   -0.0000   -0.0002    0.0010   -0.0000
           8   -0.0069   -0.0002   -0.1214    0.0105   -0.0000   -0.0002    0.0008   -0.0000
           9   -0.0004   -0.0002   -0.0024    0.0000    0.0001    0.0000   -0.0001   -0.0000
          10    0.0008   -0.0007   -0.0104    0.0082    0.0006   -0.0001   -0.0001    0.0006
          11   -0.0008    0.0040   -0.0023   -0.0133   -0.0005    0.0001    0.0002   -0.0000
          12   -0.0002    0.0024    0.0126    0.0184    0.0007    0.0000    0.0003   -0.0005
          13   -0.0003    0.0106    0.0067   -0.0059    0.0207   -0.0004    0.0010   -0.0011
          14    0.0003   -0.0201    0.0086    0.0018   -0.0158    0.0003   -0.0004    0.0024
          15    0.0003   -0.0240   -0.0019    0.0029    0.0222   -0.0003    0.0010    0.0011
          16    0.0001   -0.0011   -0.0026    0.0014   -0.0104   -0.0003   -0.0015   -0.0357
          17   -0.0012   -0.0348   -0.0016   -0.0004    0.0078   -0.0005    0.0004   -0.0173
          18   -0.0009   -0.0240    0.0006   -0.0009   -0.0101    0.0006   -0.0005    0.0201
          19    0.2385   -0.0037   -0.0577   -0.0001    0.0000    0.1915    0.0655   -0.0039
          20    0.0164   -0.0000   -0.0002   -0.0017    0.0009   -0.0344   -0.0371    0.0011
          21   -0.1149    0.0016    0.0420   -0.0032    0.0001    0.4167    0.1395   -0.0084
          22    0.2792   -0.0024   -0.1017    0.0095   -0.0059   -0.1618    0.1174   -0.0005
          23   -0.1295    0.0013    0.0688   -0.0117   -0.0112   -0.3197    0.2196   -0.0008
          24    0.0432   -0.0004   -0.0245    0.0037    0.0055    0.1239   -0.1178    0.0009
          25    0.2601   -0.0033   -0.0356   -0.0054    0.0066   -0.0288   -0.1777    0.0031
          26    0.1107   -0.0015   -0.0229   -0.0023   -0.0120    0.0692    0.3299   -0.0059
          27    0.0519   -0.0007   -0.0036   -0.0002   -0.0093    0.0169    0.2415   -0.0039
          28    0.0077   -0.0199   -0.0012    0.0159   -0.0308    0.0003   -0.0006    0.0065
          29    0.0018    0.0542    0.0085   -0.0005    0.2488   -0.0037    0.0076   -0.0420
          30    0.0004    0.1252    0.0028   -0.0089   -0.1249    0.0019   -0.0040    0.0242
          31    0.0021   -0.0568   -0.0006    0.0011   -0.2451    0.0044   -0.0135   -0.0245
          32    0.0056    0.0890    0.0037    0.0019   -0.0383    0.0007   -0.0019   -0.0005
          33   -0.0037    0.0528    0.0078    0.0017   -0.1695    0.0031   -0.0093   -0.0156
          34   -0.0012   -0.0130    0.0016   -0.0034   -0.0066   -0.0001   -0.0009   -0.0181
          35    0.0021    0.0852   -0.0050   -0.0044   -0.1188    0.0066   -0.0064    0.2312
          36    0.0046    0.1907   -0.0095   -0.0012    0.0604   -0.0032    0.0033   -0.1145
          37   -0.0018   -0.0833    0.0029   -0.0020    0.1287   -0.0024    0.0120    0.1048
          38    0.0035    0.1745   -0.0045   -0.0001    0.0073   -0.0003    0.0005   -0.0052
          39    0.0016    0.0759   -0.0025   -0.0001    0.1045   -0.0013    0.0103    0.1138
          40    0.0015    0.0700   -0.0005    0.0010    0.0213    0.0055    0.0083    0.3607
          41    0.0051    0.1917    0.0048   -0.0027    0.0049   -0.0002    0.0003   -0.0057
          42    0.0018    0.0930    0.0045   -0.0032   -0.0245   -0.0036   -0.0066   -0.2498
          43    0.0018    0.0009    0.0026    0.0240   -0.0000   -0.0005   -0.0037   -0.0007
          44    0.0127    0.0003    0.0952    0.0184   -0.0001   -0.0004   -0.0012   -0.0002
          45   -0.0076   -0.0008   -0.0701    0.0125   -0.0000   -0.0004   -0.0023   -0.0006
          46   -0.0003   -0.0001   -0.0097    0.0039    0.0001    0.0004    0.0000    0.0000
          47   -0.0014   -0.0001   -0.0040   -0.0140   -0.0000   -0.0001    0.0001   -0.0000
          48    0.0000   -0.0005   -0.0096   -0.0174   -0.0001    0.0003    0.0000    0.0000
          49   -0.0045    0.0027   -0.0130   -0.3309    0.0010    0.0007   -0.0008   -0.0001
          50    0.0006    0.0068    0.1184    0.7231    0.0010   -0.0012    0.0018    0.0008
          51    0.0024    0.0034    0.0065   -0.0434   -0.0014   -0.0008   -0.0000   -0.0008


   Root No.      41        42        43        44        45

                41 A      42 A      43 A      44 A      45 A   

                2670.4    2718.1    2764.7    2773.2    2779.3
  
           1   -0.0001   -0.0004   -0.0127    0.0142   -0.0024
           2   -0.0005   -0.0004   -0.0008   -0.0001    0.0000
           3   -0.0001   -0.0001    0.0003    0.0001   -0.0000
           4   -0.0000   -0.0005   -0.0069    0.0039   -0.0007
           5   -0.0001    0.0001    0.0032    0.0026   -0.0009
           6    0.0000    0.0008   -0.0039   -0.0023    0.0001
           7    0.0000    0.0000    0.0002   -0.0011    0.0002
           8    0.0000    0.0000   -0.0003   -0.0012    0.0004
           9    0.0000    0.0000    0.0003    0.0001    0.0000
          10    0.0003   -0.0022    0.0000   -0.0006   -0.0003
          11   -0.0003   -0.0011   -0.0002    0.0001    0.0000
          12    0.0004    0.0011    0.0006    0.0007    0.0004
          13    0.0122   -0.0177   -0.0000   -0.0000   -0.0005
          14   -0.0091   -0.0276   -0.0003   -0.0014   -0.0053
          15    0.0128   -0.0016   -0.0001   -0.0006   -0.0036
          16    0.0208   -0.0037   -0.0001   -0.0001   -0.0003
          17   -0.0172   -0.0041   -0.0001   -0.0023   -0.0158
          18    0.0227    0.0012    0.0002   -0.0014   -0.0120
          19    0.0005    0.0021    0.0678   -0.0688    0.0118
          20   -0.0004   -0.0007   -0.0178    0.0186   -0.0032
          21    0.0014    0.0061    0.1641   -0.1706    0.0287
          22    0.0022    0.0037    0.0693   -0.0736    0.0123
          23    0.0043    0.0081    0.1543   -0.1598    0.0264
          24   -0.0021   -0.0036   -0.0692    0.0712   -0.0119
          25   -0.0016    0.0015    0.0619   -0.0666    0.0105
          26    0.0029   -0.0025   -0.1300    0.1406   -0.0226
          27    0.0021   -0.0019   -0.0944    0.1010   -0.0162
          28   -0.0154   -0.0677   -0.0010   -0.0025   -0.0038
          29    0.1269    0.3670    0.0042    0.0134    0.0195
          30   -0.0607   -0.2007   -0.0023   -0.0071   -0.0087
          31   -0.1297    0.3204    0.0042    0.0097    0.0180
          32   -0.0221    0.0254    0.0003    0.0008    0.0029
          33   -0.0914    0.2267    0.0028    0.0071    0.0142
          34    0.0118   -0.0019   -0.0005   -0.0001    0.0003
          35    0.2417    0.0034    0.0014    0.0328    0.2345
          36   -0.1184    0.0026   -0.0012   -0.0186   -0.1299
          37   -0.2383   -0.0155   -0.0001    0.0272    0.2078
          38   -0.0190    0.0003   -0.0000    0.0001    0.0017
          39   -0.1960   -0.0082    0.0000    0.0218    0.1685
          40   -0.0276    0.0602    0.0014   -0.0272   -0.2064
          41   -0.0098   -0.0012    0.0001   -0.0010   -0.0079
          42    0.0389   -0.0415   -0.0010    0.0182    0.1368
          43   -0.0018   -0.0160    0.3164    0.2054   -0.0346
          44   -0.0007   -0.0040    0.0748    0.0499   -0.0084
          45   -0.0014   -0.0104    0.2071    0.1338   -0.0225
          46    0.0001    0.0009   -0.0182   -0.0122    0.0021
          47    0.0000    0.0003   -0.0055   -0.0032    0.0005
          48   -0.0000    0.0003   -0.0102   -0.0069    0.0012
          49    0.0003    0.0003    0.0007    0.0023   -0.0008
          50    0.0015   -0.0017   -0.0157   -0.0129    0.0040
          51   -0.0005    0.0043   -0.0167   -0.0101   -0.0006


           MASS-WEIGHTED COORDINATE ANALYSIS (NORMAL COORDINATES)


   Root No.       1         2         3         4         5         6         7         8

                 1 A       2 A       3 A       4 A       5 A       6 A       7 A       8 A   

               -1225.2     -72.6      50.2     123.4     162.7     169.8     290.2     316.5
  
           1    0.0008    0.0047   -0.0100   -0.0613   -0.0228   -0.0014    0.0305    0.0453
           2    0.0024   -0.0333    0.1349   -0.0031    0.1145   -0.1828   -0.0049   -0.1751
           3    0.0199   -0.0253    0.2139    0.3015    0.1073   -0.1018   -0.4212   -0.1298
           4    0.0046    0.0010   -0.0119   -0.0611   -0.0246    0.0075    0.0179    0.0585
           5    0.0019    0.0077    0.0332    0.0516   -0.0216    0.1442    0.0162   -0.1254
           6   -0.3361   -0.0026    0.0208   -0.0449   -0.0436    0.0396    0.0972   -0.0792
           7   -0.0021   -0.0064    0.0635   -0.1135    0.0519   -0.1945    0.0611    0.1940
           8    0.0024    0.0256   -0.0302    0.0746   -0.0814    0.2896   -0.0171   -0.1938
           9    0.0226   -0.0362    0.1018   -0.2153   -0.2035    0.4003    0.2123   -0.3329
          10   -0.0302    0.0139   -0.2564   -0.2701   -0.1298    0.0737   -0.3833   -0.0597
          11    0.1653   -0.0045    0.1561    0.0399   -0.0903    0.3417   -0.1318    0.1572
          12   -0.0214    0.0264   -0.2450   -0.2089   -0.0326   -0.1777    0.0148   -0.0167
          13   -0.0566   -0.0163   -0.2035    0.1950    0.0703    0.2321   -0.2724    0.0817
          14    0.0144   -0.0114    0.1537   -0.2037   -0.0757   -0.1385   -0.0679    0.3355
          15    0.0429   -0.0167   -0.1802    0.3122    0.1998   -0.0153    0.1658    0.1929
          16   -0.0051   -0.0136    0.3236    0.1107    0.1000   -0.2172    0.0378   -0.3116
          17   -0.0014   -0.0519   -0.2116    0.0600    0.1198   -0.2542    0.0930    0.1627
          18    0.0041    0.0331    0.3039   -0.0138   -0.0237    0.0735    0.0076    0.4382
          19   -0.0117    0.0187   -0.0432   -0.0954   -0.0364    0.0200    0.1438    0.0342
          20   -0.0034    0.5673    0.0542    0.0247    0.0608   -0.0920   -0.0123   -0.0680
          21    0.0065    0.0468    0.0802    0.1228    0.0466   -0.0420   -0.1834   -0.0490
          22    0.0062    0.0052   -0.0065    0.0184   -0.0207    0.0500   -0.0339    0.0272
          23   -0.0008   -0.2416    0.0454   -0.0144    0.0401   -0.0785   -0.0048   -0.0606
          24    0.0046   -0.5280    0.0728    0.0937    0.0323   -0.0354   -0.1782   -0.0439
          25    0.0059   -0.0080    0.0388    0.0204    0.0365   -0.0716   -0.0802   -0.0190
          26   -0.0014   -0.3430    0.0428   -0.0208    0.0362   -0.0758    0.0008   -0.0594
          27    0.0066    0.4501    0.0849    0.1419    0.0558   -0.0446   -0.1864   -0.0542
          28    0.0335   -0.0148   -0.1467    0.2397    0.0813    0.1922   -0.0711    0.0443
          29   -0.0017   -0.0107   -0.0331    0.0054    0.0120   -0.0284   -0.0067    0.0965
          30   -0.0139   -0.0157   -0.1662    0.1499    0.0978   -0.0199    0.0644    0.0510
          31   -0.0173   -0.0006   -0.0860   -0.0081   -0.0075    0.0615   -0.1044    0.0100
          32   -0.0144    0.0108    0.2141   -0.2244   -0.0892   -0.1418   -0.0190    0.0881
          33    0.0125   -0.0127   -0.0355    0.2060    0.1063    0.0164    0.0875    0.0729
          34   -0.0038    0.0013    0.1663   -0.2012    0.5292    0.0545    0.0479   -0.1509
          35    0.0061   -0.0085   -0.0004   -0.0297    0.0115   -0.0557    0.0025    0.0804
          36    0.0066    0.0213    0.1987   -0.0914   -0.0469    0.0535   -0.0430    0.1932
          37    0.0005   -0.0058    0.1222    0.1440   -0.2276   -0.1865    0.0368   -0.1336
          38   -0.0002   -0.0267   -0.2249    0.2103   -0.1988   -0.1162    0.0119    0.0713
          39    0.0039    0.0121    0.0551   -0.1449    0.3119    0.1738   -0.0290    0.1757
          40   -0.0015   -0.0059    0.1139    0.1357   -0.2081   -0.1713    0.0305   -0.1204
          41    0.0055   -0.0194   -0.0438   -0.0676    0.3517   -0.0675    0.1072   -0.0792
          42    0.0068    0.0063    0.1192    0.1463   -0.3464   -0.1391    0.0342    0.0805
          43    0.0393   -0.0012    0.0510    0.1145    0.0077    0.0639    0.2279    0.0003
          44   -0.0484    0.0278   -0.1005   -0.0549   -0.0207   -0.0718    0.0041   -0.0263
          45    0.0152    0.0085   -0.0891   -0.1400   -0.0305   -0.0808   -0.1641   -0.0115
          46    0.0636    0.0128    0.0695    0.1657   -0.0511    0.1101    0.4531    0.0563
          47   -0.1827    0.0645   -0.2054    0.0201    0.0088   -0.0784    0.1048   -0.1356
          48   -0.0053    0.0186   -0.2227   -0.1620   -0.0281   -0.1692    0.0482   -0.0965
          49    0.0183    0.0137   -0.0569   -0.1321   -0.0644   -0.0427   -0.0760   -0.0158
          50    0.0587    0.0092   -0.0179   -0.0360   -0.0274    0.0140   -0.0337   -0.0387
          51    0.8968    0.0161   -0.0998   -0.0645   -0.0019   -0.0808    0.0208   -0.0947


   Root No.       9        10        11        12        13        14        15        16

                 9 A      10 A      11 A      12 A      13 A      14 A      15 A      16 A   

                 361.4     471.2     548.9     590.7     610.8     638.4     726.1     857.9
  
           1    0.0902    0.3081   -0.1843   -0.0440   -0.2599   -0.1391   -0.0788   -0.0153
           2   -0.4287   -0.0178    0.0425    0.0270    0.0576   -0.0125   -0.0513   -0.0046
           3    0.0587   -0.0363   -0.0486   -0.0103    0.0010    0.0993   -0.0692    0.0143
           4    0.1039    0.2857   -0.1884   -0.0680   -0.2620   -0.0426    0.0472    0.0027
           5    0.2282    0.0678    0.1401    0.2569    0.4760   -0.0926   -0.1994   -0.0077
           6    0.0118    0.1507    0.2621   -0.0362   -0.1141    0.6050   -0.2649    0.0258
           7    0.4531   -0.2059    0.0682    0.1108    0.2346    0.0678    0.0327   -0.0054
           8    0.0013    0.4875   -0.1234    0.1238    0.0419   -0.1112   -0.0956   -0.0097
           9    0.0206   -0.2959   -0.3348    0.0511   -0.0265   -0.1359    0.0227   -0.0048
          10   -0.2212   -0.0290   -0.0629   -0.0800    0.2770    0.1857    0.0539   -0.0614
          11    0.1463   -0.0372    0.4353   -0.1707   -0.2385    0.0718    0.4912    0.0640
          12   -0.0853    0.1975    0.0065    0.0558    0.2195    0.0490    0.5560   -0.0990
          13   -0.1375   -0.1686    0.0533   -0.1048    0.0087   -0.0565   -0.1424    0.1833
          14   -0.0680   -0.0619   -0.0569   -0.0746    0.0012   -0.0175   -0.1608   -0.1369
          15   -0.0136    0.0770   -0.1074    0.1341    0.0496    0.0518    0.0779    0.1884
          16    0.0808    0.0077    0.0868   -0.0144   -0.0221    0.0057    0.0006    0.0876
          17   -0.0013    0.0288   -0.0922    0.0141    0.0259   -0.0426   -0.0461   -0.0816
          18   -0.0853   -0.0036   -0.1294    0.0482    0.0163   -0.0342   -0.0215    0.0657
          19   -0.0111    0.1691    0.0705   -0.0479   -0.1503    0.1918   -0.1408    0.0256
          20   -0.2291   -0.0083    0.0045   -0.0371   -0.0533   -0.0033    0.0120    0.0045
          21    0.0230   -0.0458   -0.0759    0.0065    0.0210   -0.0711    0.0417   -0.0093
          22    0.1963    0.0753   -0.0786    0.0759    0.0751   -0.1430   -0.0166   -0.0238
          23   -0.2051   -0.0120   -0.0036   -0.0354   -0.0609    0.0092    0.0136    0.0042
          24    0.0297   -0.0456   -0.0784    0.0037    0.0045   -0.0623    0.0444   -0.0085
          25   -0.1181    0.0446   -0.1719   -0.0817   -0.2068   -0.1547    0.1150   -0.0107
          26   -0.2033   -0.0045    0.0030   -0.0322   -0.0596    0.0056    0.0060    0.0044
          27    0.0207   -0.0450   -0.0833    0.0071    0.0205   -0.0761    0.0409   -0.0095
          28   -0.0073   -0.0970    0.1045   -0.0013   -0.1161    0.0145   -0.0599   -0.2903
          29   -0.0171   -0.0214   -0.0150   -0.0070   -0.0152   -0.0086   -0.0601   -0.2434
          30   -0.0145    0.0222   -0.0527    0.0570    0.0171    0.0007   -0.0119   -0.2877
          31   -0.0557   -0.0332    0.0105   -0.0355    0.0462    0.0120    0.0002    0.0043
          32   -0.0273    0.0190   -0.0777   -0.0405    0.0800   -0.0206   -0.0369    0.4924
          33    0.0224   -0.0024   -0.0131    0.0558   -0.0625   -0.0227   -0.0271   -0.0126
          34    0.0541    0.0230    0.0486    0.0057   -0.0203    0.0030    0.0823   -0.1215
          35   -0.0122   -0.0082   -0.0322   -0.0143    0.0075   -0.0063   -0.0798   -0.1865
          36   -0.0491   -0.0322   -0.0528   -0.0208    0.0060   -0.0052   -0.1412   -0.3369
          37    0.0464    0.0279    0.0439    0.0034   -0.0159    0.0089    0.0823   -0.1146
          38   -0.0217   -0.0002   -0.0400    0.0136    0.0268   -0.0139   -0.0192    0.3963
          39   -0.0512   -0.0317   -0.0569    0.0039    0.0160   -0.0114   -0.1047    0.1336
          40    0.0399    0.0223    0.0368    0.0026   -0.0129    0.0080    0.0592   -0.1093
          41    0.0590    0.0608    0.0104    0.0443   -0.0072    0.0081    0.1694    0.0463
          42    0.0006    0.0283   -0.0246    0.0255   -0.0017    0.0071    0.0619   -0.1686
          43   -0.0810   -0.0152   -0.0223   -0.3860    0.2263    0.0335    0.0017   -0.0355
          44   -0.0303   -0.3044    0.0240    0.2766   -0.2069   -0.0720    0.0835    0.0166
          45    0.0578    0.0404    0.1458    0.4529   -0.3426   -0.0701   -0.1004    0.0626
          46   -0.3340   -0.1653    0.1721    0.1982    0.0139   -0.0607    0.0372    0.0276
          47    0.2515   -0.3670   -0.3342   -0.2192   -0.2119    0.2111    0.0045    0.0132
          48    0.0708   -0.0349    0.4340   -0.3602   -0.0622   -0.5265   -0.2452    0.0036
          49   -0.1311   -0.1167    0.0540    0.3505   -0.0715    0.0601   -0.0183   -0.0596
          50    0.0282   -0.1111    0.1002    0.1212   -0.0189   -0.0117   -0.1031   -0.0069
          51    0.0345   -0.0057   -0.0487   -0.0511   -0.0363    0.2628   -0.1737    0.0204


   Root No.      17        18        19        20        21        22        23        24

                17 A      18 A      19 A      20 A      21 A      22 A      23 A      24 A   

                 968.2     999.3    1044.9    1047.1    1074.0    1093.2    1140.6    1155.2
  
           1    0.2814    0.3517   -0.0369   -0.1978    0.0155    0.3534   -0.0082   -0.0034
           2    0.0379    0.1752   -0.3664   -0.0820   -0.0732   -0.1736   -0.0038   -0.0163
           3    0.0190    0.1590   -0.0467    0.3809    0.1027    0.0986   -0.0455   -0.0009
           4   -0.1455   -0.1284   -0.0167    0.1152   -0.0170   -0.3430    0.0353    0.0155
           5    0.0776   -0.0172    0.1190   -0.0256    0.0130    0.2709   -0.0546   -0.0259
           6    0.0293   -0.0430    0.1050   -0.3095   -0.1495   -0.1560    0.0765   -0.0158
           7   -0.0996   -0.1159    0.1753    0.0933    0.0102   -0.1328    0.0258    0.0348
           8   -0.1150   -0.0996    0.2073    0.1271   -0.0036   -0.2732    0.0545    0.0576
           9   -0.0156    0.0026   -0.0269    0.0596    0.0240    0.0160   -0.0111    0.0048
          10    0.2878   -0.1449    0.0167   -0.0066   -0.1235    0.0694   -0.3038   -0.1637
          11    0.0243    0.0435   -0.0189   -0.0763   -0.0565    0.1313    0.0058   -0.0651
          12   -0.3217    0.1966   -0.0432   -0.0089    0.1828   -0.0007    0.0322    0.0715
          13   -0.2074    0.0533   -0.0905    0.1196   -0.0597   -0.0579    0.3561    0.2264
          14   -0.0472    0.0184   -0.0109   -0.0327    0.0817   -0.0910   -0.3272    0.4668
          15    0.1299   -0.0403    0.0438   -0.0670   -0.2346    0.2213   -0.0340    0.3448
          16   -0.2414    0.1434    0.0755   -0.1245    0.0969    0.0308   -0.1836   -0.1651
          17   -0.0537    0.0030    0.0061    0.0408   -0.0521    0.0411    0.2999   -0.4308
          18    0.2251   -0.1027   -0.0353    0.0841    0.1515   -0.1547    0.0374   -0.3672
          19    0.0585    0.2482   -0.0104    0.4772    0.1619    0.2395   -0.0472    0.0030
          20   -0.0110   -0.1033    0.1588    0.0430    0.0279    0.0971   -0.0185   -0.0024
          21    0.0026   -0.0566    0.0158   -0.1478   -0.0470   -0.0491    0.0121   -0.0016
          22    0.1072    0.2460   -0.4067   -0.3283   -0.1197   -0.1527    0.0201   -0.0143
          23   -0.0168   -0.0964    0.1440    0.0272    0.0185    0.0560   -0.0036    0.0010
          24    0.0027   -0.0734    0.0496   -0.1481   -0.0427   -0.0243    0.0106   -0.0047
          25    0.0173   -0.2498    0.4055   -0.2537    0.0103    0.1891    0.0390    0.0126
          26   -0.0051   -0.0710    0.1273    0.0464    0.0354    0.0924   -0.0089    0.0013
          27    0.0026   -0.0541    0.0077   -0.1680   -0.0489   -0.0558    0.0232   -0.0021
          28    0.0725   -0.0040    0.0043   -0.0393    0.2907   -0.2054   -0.1389    0.0260
          29   -0.0264    0.0039    0.0038   -0.0041    0.0271   -0.0237   -0.1511    0.0582
          30   -0.0551    0.0056    0.0164    0.0063   -0.1253    0.1090   -0.0843    0.0086
          31    0.0013   -0.0387   -0.0537    0.0810   -0.1728    0.0633    0.2124    0.0045
          32   -0.0124    0.0006   -0.0031   -0.0017   -0.0786    0.0392    0.1372    0.2369
          33   -0.0254    0.0575    0.0553   -0.0873    0.1932   -0.0690   -0.2278    0.1146
          34    0.0949   -0.0566   -0.0441    0.0648   -0.0369   -0.0116    0.1113    0.0746
          35   -0.1389    0.0428    0.0225   -0.0151   -0.1126    0.0969    0.1394   -0.0702
          36   -0.2083    0.0629    0.0340   -0.0254   -0.1700    0.1458    0.1677   -0.0553
          37    0.1040   -0.0597   -0.0435    0.0639   -0.0310   -0.0246    0.0728    0.0822
          38   -0.0063    0.0411    0.0378   -0.0641    0.2069   -0.0950   -0.1645   -0.2279
          39   -0.1337    0.0802    0.0612   -0.0861    0.0727    0.0147   -0.1118   -0.2008
          40    0.0686   -0.0425   -0.0274    0.0424   -0.0478    0.0062    0.0648    0.0426
          41    0.4483   -0.2168   -0.1002    0.1523    0.0359   -0.1523    0.0371    0.0569
          42    0.2377   -0.1349   -0.0638    0.1093   -0.0767   -0.0244    0.1365    0.0442
          43    0.0636    0.0433    0.0551   -0.0643    0.1154   -0.0445    0.0980    0.0339
          44    0.1724    0.4640    0.4146    0.1235   -0.3753   -0.2867   -0.0595   -0.0320
          45   -0.1841   -0.3267   -0.2848    0.0336   -0.0700    0.1520   -0.1428   -0.0526
          46   -0.0994   -0.1427   -0.1235    0.0243   -0.0866    0.0655   -0.1001   -0.0368
          47   -0.0510   -0.1165   -0.1832   -0.0162    0.0850    0.1202   -0.0117   -0.0043
          48    0.0835   -0.0641    0.0324    0.0191    0.0053   -0.0530   -0.0057   -0.0021
          49    0.1382    0.0719    0.0853   -0.1841    0.5034   -0.0093    0.3851    0.1419
          50    0.1099    0.0037    0.0443   -0.1014    0.2217    0.0989    0.1943    0.0463
          51   -0.0201   -0.0053    0.0285   -0.0709   -0.0817   -0.0801    0.0362   -0.0110


   Root No.      25        26        27        28        29        30        31        32

                25 A      26 A      27 A      28 A      29 A      30 A      31 A      32 A   

                1169.1    1183.3    1223.2    1229.8    1259.4    1266.5    1308.5    1321.3
  
           1   -0.0533   -0.2249   -0.0091   -0.0204    0.0066   -0.0121    0.0021    0.0070
           2    0.0256    0.1003   -0.1555    0.1535   -0.0045    0.0093    0.0051   -0.0016
           3    0.0287    0.0808   -0.1548   -0.1631   -0.0005    0.0028    0.0091   -0.0098
           4    0.0456    0.2620    0.0207   -0.0221   -0.0109    0.0139    0.0107   -0.0234
           5   -0.0235   -0.2110   -0.0190    0.0099    0.0087   -0.0078    0.0011    0.0060
           6   -0.0424   -0.1337   -0.0160   -0.0278    0.0080   -0.0063   -0.0247    0.0323
           7   -0.0030    0.0409   -0.0039    0.0013   -0.0005   -0.0005   -0.0078    0.0008
           8   -0.0030    0.0959   -0.0026    0.0027   -0.0025   -0.0004   -0.0049   -0.0055
           9    0.0053    0.0037    0.0041   -0.0035    0.0001   -0.0005    0.0063   -0.0073
          10    0.2168    0.1871   -0.0085    0.0142    0.0030    0.0461   -0.0261    0.0499
          11    0.0130    0.1520    0.0030    0.0046   -0.0091    0.0141   -0.0224    0.0633
          12   -0.0270   -0.2721   -0.0026   -0.0057    0.0060   -0.0384    0.0284   -0.0276
          13   -0.0682   -0.3093   -0.0038   -0.0126   -0.0175   -0.0481   -0.2329    0.1429
          14   -0.1877   -0.0938   -0.0016   -0.0011    0.0302   -0.0128   -0.1619   -0.1728
          15    0.0901    0.3409    0.0081    0.0112   -0.0292    0.0384    0.0823   -0.2494
          16   -0.1168    0.1188    0.0011    0.0035   -0.1681   -0.1395    0.0457   -0.0832
          17    0.2142   -0.0213   -0.0022    0.0003    0.0539   -0.1118    0.0227    0.0801
          18   -0.1577   -0.1253   -0.0022   -0.0081   -0.1074    0.1232   -0.0202    0.1518
          19    0.0128    0.0074    0.1671    0.2891   -0.0037    0.0032    0.0008   -0.0029
          20   -0.0008   -0.0439    0.5771   -0.3943    0.0051   -0.0125   -0.0065    0.0025
          21   -0.0052   -0.0118   -0.0258   -0.1872    0.0025   -0.0030    0.0004    0.0007
          22    0.0011    0.0244    0.1636   -0.2392    0.0026   -0.0029   -0.0135    0.0105
          23   -0.0059   -0.0423    0.1941    0.2363   -0.0017   -0.0001    0.0035   -0.0016
          24   -0.0079   -0.0541    0.6322    0.2196   -0.0008   -0.0043   -0.0077    0.0059
          25   -0.0559   -0.1809   -0.3109    0.0488    0.0066   -0.0050   -0.0161    0.0138
          26   -0.0045   -0.0209   -0.1617   -0.3949    0.0055   -0.0049   -0.0044    0.0028
          27   -0.0120   -0.0349   -0.0357    0.5939   -0.0047    0.0077   -0.0020    0.0039
          28    0.1904   -0.2371   -0.0016   -0.0085    0.0310   -0.0453    0.6438   -0.1806
          29   -0.2194    0.0364    0.0016    0.0011    0.0190   -0.0036    0.1513    0.2521
          30   -0.3917    0.2335    0.0055    0.0053   -0.0031    0.0222    0.1313    0.5352
          31   -0.3757    0.0216    0.0045   -0.0036   -0.0169   -0.0307    0.1581   -0.2472
          32    0.2354   -0.0299    0.0022   -0.0020    0.0161   -0.0145    0.5350    0.3194
          33    0.4896   -0.0443   -0.0062    0.0042    0.0020    0.0367   -0.3500    0.2990
          34    0.0065   -0.0591    0.0040   -0.0026    0.5597    0.4421   -0.0073    0.0161
          35    0.1703    0.0299    0.0013   -0.0015   -0.1038    0.1126    0.0106   -0.1595
          36    0.2092    0.0555    0.0030   -0.0034   -0.2095    0.2545    0.0136   -0.2671
          37   -0.0051   -0.0885    0.0017   -0.0096   -0.2060    0.3311    0.0148    0.1003
          38   -0.2056   -0.0103    0.0045   -0.0043    0.2311    0.4475   -0.0147   -0.2371
          39   -0.0564    0.1139   -0.0022    0.0110    0.2092   -0.4229   -0.0159   -0.1223
          40    0.0282   -0.0003   -0.0022    0.0064    0.2852   -0.2355   -0.0342   -0.0656
          41   -0.0738   -0.1751   -0.0061   -0.0062   -0.4269   -0.1604   -0.0833   -0.1321
          42    0.0512   -0.0398   -0.0042    0.0077    0.4249   -0.3101   -0.0694   -0.0639
          43   -0.0106    0.0837    0.0051    0.0014   -0.0058    0.0006   -0.0092    0.0036
          44    0.0001   -0.0661   -0.0021   -0.0074    0.0080    0.0028    0.0070   -0.0016
          45    0.0246   -0.0823   -0.0080    0.0031    0.0073    0.0024    0.0114   -0.0020
          46    0.0142   -0.0748   -0.0081    0.0077    0.0053   -0.0007    0.0092   -0.0013
          47    0.0012   -0.0039   -0.0002   -0.0056    0.0001   -0.0008    0.0027    0.0001
          48    0.0268    0.1225    0.0015    0.0107   -0.0036    0.0082    0.0027   -0.0074
          49   -0.0347    0.3480    0.0192    0.0035   -0.0277    0.0050   -0.0370    0.0060
          50   -0.0388    0.1293    0.0039    0.0051   -0.0113    0.0064   -0.0411    0.0294
          51   -0.0406   -0.1160   -0.0012   -0.0121    0.0083   -0.0065   -0.0216    0.0387


   Root No.      33        34        35        36        37        38        39        40

                33 A      34 A      35 A      36 A      37 A      38 A      39 A      40 A   

                1338.7    1377.5    1707.6    2056.5    2639.6    2644.6    2648.1    2659.4
  
           1   -0.4019    0.0087   -0.1060   -0.0038   -0.0004   -0.0019   -0.0019    0.0004
           2    0.0055    0.0002   -0.0290    0.0108    0.0127    0.1252   -0.2479    0.0029
           3    0.0065   -0.0020   -0.0083    0.0002    0.0026   -0.2456   -0.1264    0.0057
           4    0.0146   -0.0022    0.6292    0.0199   -0.0002    0.0008   -0.0046    0.0009
           5    0.0616   -0.0045    0.4746   -0.1765    0.0007    0.0093   -0.0225    0.0001
           6    0.0123    0.0050    0.0225    0.0002   -0.0008   -0.0149   -0.0072   -0.0001
           7   -0.0255   -0.0010   -0.3443    0.0323   -0.0003   -0.0015    0.0067   -0.0001
           8   -0.0504   -0.0019   -0.4437    0.0509   -0.0001   -0.0015    0.0058   -0.0001
           9   -0.0026   -0.0017   -0.0089    0.0001    0.0009    0.0001   -0.0007   -0.0000
          10    0.0056   -0.0062   -0.0379    0.0398    0.0047   -0.0007   -0.0010    0.0041
          11   -0.0056    0.0356   -0.0085   -0.0642   -0.0040    0.0006    0.0017   -0.0002
          12   -0.0014    0.0208    0.0460    0.0892    0.0059    0.0003    0.0019   -0.0039
          13   -0.0019    0.0809    0.0212   -0.0247    0.1480   -0.0023    0.0059   -0.0069
          14    0.0017   -0.1535    0.0272    0.0076   -0.1134    0.0014   -0.0023    0.0146
          15    0.0019   -0.1829   -0.0060    0.0120    0.1588   -0.0018    0.0060    0.0067
          16    0.0008   -0.0082   -0.0083    0.0057   -0.0746   -0.0015   -0.0091   -0.2214
          17   -0.0073   -0.2651   -0.0051   -0.0017    0.0556   -0.0027    0.0027   -0.1071
          18   -0.0056   -0.1828    0.0018   -0.0036   -0.0724    0.0034   -0.0030    0.1243
          19    0.4348   -0.0081   -0.0530   -0.0002    0.0000    0.3062    0.1148   -0.0069
          20    0.0299   -0.0001   -0.0001   -0.0020    0.0019   -0.0550   -0.0650    0.0021
          21   -0.2095    0.0036    0.0386   -0.0039    0.0002    0.6663    0.2443   -0.0151
[...]
 FREQ.     -1225.20        O 16 --  H 17          -55.2% (-81.0%)    83.8%
 T-DIPOLE    3.3126        O  4 --  H 17          -54.3% (-80.3%)    77.8%
 TRAVEL      0.1701        C  1 --  C  2           -1.9% (-14.9%)     0.0%
 RED. MASS   0.8474        C  2 --  O  3           -1.8% (-14.8%)     0.0%
 EFF. MASS   1.9020

 VIBRATION    2    2A       ATOM PAIR        ENERGY CONTRIBUTION    RADIAL
 FREQ.       -72.61        C  1 --  H  7          +32.6% (-99.9%)     0.1%
 T-DIPOLE    0.0701        C  1 --  H  8          +32.5% (-99.9%)     0.1%
 TRAVEL      0.3699        C  1 --  H  9          +32.2% (-99.9%)     0.2%
 RED. MASS   0.3247        C  5 --  C  6           +0.5% (-85.8%)     0.0%
 EFF. MASS   6.7870

 VIBRATION    3    3A       ATOM PAIR        ENERGY CONTRIBUTION    RADIAL
 FREQ.        50.16        C  5 --  C  6          +22.5% (999.0%)     0.0%
 T-DIPOLE    0.1481        C  6 --  H 14          +12.5% (872.5%)     4.3%
 TRAVEL      0.0382        C  6 --  H 12          +11.8% (848.2%)    68.8%
 RED. MASS   1.3963        C  6 --  H 13          +10.6% (803.4%)    95.6%
 EFF. MASS 919.3594

 VIBRATION    4    4A       ATOM PAIR        ENERGY CONTRIBUTION    RADIAL
 FREQ.       123.38        O  4 --  C  5          +16.1% (381.1%)     0.1%
 T-DIPOLE    0.2122        C  5 --  C  6          +12.9% (341.5%)     0.0%
 TRAVEL      0.0648        C  5 --  H 11          +11.6% (324.0%)    98.2%
 RED. MASS   0.8557        C  5 --  H 10          +10.7% (310.9%)    87.1%
 EFF. MASS 129.9712

 VIBRATION    5    5A       ATOM PAIR        ENERGY CONTRIBUTION    RADIAL
 FREQ.       162.73        C  6 --  H 14          +24.3% (313.4%)     2.0%
 T-DIPOLE    0.1160        C  6 --  H 12          +22.8% (303.5%)     3.4%
 TRAVEL      0.1280        C  6 --  H 13          +20.7% (289.0%)     0.7%
 RED. MASS   0.2982        C  5 --  C  6           +6.5% (161.5%)     0.1%
 EFF. MASS  25.2792

 VIBRATION    6    6A       ATOM PAIR        ENERGY CONTRIBUTION    RADIAL
 FREQ.       169.81        C  5 --  C  6          +13.7% (241.7%)     0.1%
 T-DIPOLE    0.4276        C  6 --  H 13          +10.3% (210.0%)    26.0%
 TRAVEL      0.0827        C  6 --  H 14           +9.7% (203.3%)    31.8%
 RED. MASS   1.9556        O  4 --  C  5           +9.3% (198.7%)     0.9%
 EFF. MASS  58.0005

 VIBRATION    7    7A       ATOM PAIR        ENERGY CONTRIBUTION    RADIAL
 FREQ.       290.21        O  4 --  O 16          +10.9% (143.8%)     0.2%
 T-DIPOLE    0.3286        C  1 --  C  2          +10.5% (141.0%)     0.1%
 TRAVEL      0.0787        C  1 --  H  8           +8.6% (127.5%)    21.2%
 RED. MASS   1.7688        C  1 --  H  9           +8.4% (126.1%)    43.7%
 EFF. MASS  37.5581

 VIBRATION    8    8A       ATOM PAIR        ENERGY CONTRIBUTION    RADIAL
 FREQ.       316.49        C  5 --  C  6          +18.9% (187.5%)     0.5%
 T-DIPOLE    0.8502        C  6 --  H 12          +16.0% (172.4%)     2.4%
 TRAVEL      0.0838        C  6 --  H 13          +15.6% (170.5%)     0.7%
 RED. MASS   2.1182        C  6 --  H 14          +12.2% (150.8%)    54.9%
 EFF. MASS  30.3290

 VIBRATION    9    9A       ATOM PAIR        ENERGY CONTRIBUTION    RADIAL
 FREQ.       361.39        C  1 --  C  2          +20.4% (149.8%)     0.0%
 T-DIPOLE    0.6900        C  1 --  H  8          +11.6% (113.1%)    92.9%
 TRAVEL      0.0856        C  1 --  H  7          +11.6% (112.9%)    15.8%
 RED. MASS   1.8190        C  1 --  H  9          +10.8% (109.2%)    52.9%
 EFF. MASS  25.4419        C  2 --  O 16          +10.2% (106.1%)     3.4%

 VIBRATION   10   10A       ATOM PAIR        ENERGY CONTRIBUTION    RADIAL
 FREQ.       471.19        C  2 --  O 16          +16.4% (104.6%)     0.5%
 T-DIPOLE    1.2789        C  1 --  C  2          +12.6% ( 91.8%)     1.2%
 TRAVEL      0.0893        C  2 --  O  4          +12.5% ( 91.4%)     1.2%
 RED. MASS   2.8980        C  2 --  O  3          +10.8% ( 84.9%)     0.2%
 EFF. MASS  17.9615

 VIBRATION   11   11A       ATOM PAIR        ENERGY CONTRIBUTION    RADIAL
 FREQ.       548.93        C  2 --  O 16          +13.9% ( 80.1%)    71.8%
 T-DIPOLE    1.3420        O  4 --  O 16          +11.4% ( 72.7%)    19.4%
 TRAVEL      0.0870        O 16 --  H 17          +10.7% ( 70.2%)     2.4%
 RED. MASS   2.8375        C  2 --  O  4           +9.3% ( 65.8%)     0.1%
 EFF. MASS  16.2317

 VIBRATION   12   12A       ATOM PAIR        ENERGY CONTRIBUTION    RADIAL
 FREQ.       590.67        H 15 --  O 16          +26.8% ( 94.6%)     0.1%
 T-DIPOLE    1.4450        O  4 --  H 17          +13.0% ( 65.8%)     6.6%
 TRAVEL      0.1312        O 16 --  H 17          +12.8% ( 65.5%)    67.3%
 RED. MASS   1.0761        C  2 --  O 16           +9.8% ( 57.1%)     5.9%
 EFF. MASS   6.6339

 VIBRATION   13   13A       ATOM PAIR        ENERGY CONTRIBUTION    RADIAL
 FREQ.       610.78        C  2 --  O  4          +18.2% ( 87.2%)    20.6%
 T-DIPOLE    1.9567        C  1 --  C  2          +14.6% ( 78.1%)     0.0%
 TRAVEL      0.0991        C  2 --  O 16          +14.5% ( 77.9%)    57.3%
 RED. MASS   1.8706        C  2 --  O  3          +12.8% ( 73.2%)     0.4%
 EFF. MASS  11.2437

 VIBRATION   14   14A       ATOM PAIR        ENERGY CONTRIBUTION    RADIAL
 FREQ.       638.37        C  2 --  O 16          +20.6% ( 76.8%)    73.4%
 T-DIPOLE    5.0727        O  4 --  O 16          +13.0% ( 60.9%)    78.7%
 TRAVEL      0.0978        C  2 --  O  4          +10.8% ( 55.6%)    23.7%
 RED. MASS   3.4648        C  2 --  O  3          +10.7% ( 55.3%)     0.5%
 EFF. MASS  11.0430        C  1 --  C  2          +10.5% ( 54.7%)     3.4%
                           H 15 --  O 16          +10.0% ( 53.6%)    18.5%

 VIBRATION   15   15A       ATOM PAIR        ENERGY CONTRIBUTION    RADIAL
 FREQ.       726.13        O  4 --  O 16          +17.9% ( 76.9%)    75.7%
 T-DIPOLE    3.2731        C  2 --  O  4          +17.8% ( 76.8%)    91.3%
 TRAVEL      0.0857        O  4 --  C  5          +16.4% ( 73.7%)     0.0%
 RED. MASS   5.1526        O  4 --  H 17          +15.4% ( 71.3%)    10.1%
 EFF. MASS  12.6370

 VIBRATION   16   16A       ATOM PAIR        ENERGY CONTRIBUTION    RADIAL
 FREQ.       857.85        C  5 --  H 11          +25.4% ( 73.2%)     9.7%
 T-DIPOLE    0.5436        C  5 --  H 10          +24.8% ( 72.3%)     9.0%
 TRAVEL      0.1765        C  6 --  H 13          +17.4% ( 60.5%)     4.4%
 RED. MASS   0.2771        C  6 --  H 12          +14.3% ( 54.9%)     4.8%
 EFF. MASS   2.5235

 VIBRATION   17   17A       ATOM PAIR        ENERGY CONTRIBUTION    RADIAL
 FREQ.       968.20        C  6 --  H 14          +16.8% ( 65.2%)    20.3%
 T-DIPOLE    1.2561        O  4 --  C  5          +11.7% ( 54.5%)    98.4%
 TRAVEL      0.0936        C  6 --  H 12           +9.2% ( 48.4%)     6.0%
 RED. MASS   0.9397        C  2 --  O  4           +6.9% ( 42.0%)    45.7%
 EFF. MASS   7.9508

 VIBRATION   18   18A       ATOM PAIR        ENERGY CONTRIBUTION    RADIAL
 FREQ.       999.32        H 15 --  O 16          +19.0% ( 61.0%)     6.3%
 T-DIPOLE    0.8279        C  1 --  H  9          +16.1% ( 56.1%)     1.6%
 TRAVEL      0.1110        C  1 --  C  2          +12.5% ( 49.5%)    74.8%
 RED. MASS   0.6234        C  1 --  H  8          +11.6% ( 47.6%)    23.9%
 EFF. MASS   5.4743        C  1 --  H  7          +11.0% ( 46.4%)    32.9%

 VIBRATION   19   19A       ATOM PAIR        ENERGY CONTRIBUTION    RADIAL
 FREQ.      1044.90        C  1 --  H  8          +22.2% ( 57.9%)    16.2%
 T-DIPOLE    1.2789        C  1 --  H  9          +21.7% ( 57.2%)    13.7%
 TRAVEL      0.1207        H 15 --  O 16          +19.2% ( 53.9%)     3.9%
 RED. MASS   0.5020        C  1 --  H  7          +10.5% ( 39.9%)     0.1%
 EFF. MASS   4.4319

 VIBRATION   20   20A       ATOM PAIR        ENERGY CONTRIBUTION    RADIAL
 FREQ.      1047.09        C  1 --  H  7          +28.2% ( 69.6%)     8.2%
 T-DIPOLE    1.9488        C  1 --  H  8          +16.6% ( 53.4%)    19.0%
 TRAVEL      0.1149        C  1 --  H  9          +14.5% ( 49.9%)    10.2%
 RED. MASS   0.7024        C  1 --  C  2          +13.9% ( 48.8%)    17.0%
 EFF. MASS   4.8816

 VIBRATION   21   21A       ATOM PAIR        ENERGY CONTRIBUTION    RADIAL
 FREQ.      1074.02        O  4 --  H 17          +18.6% ( 54.6%)     8.2%
 T-DIPOLE    1.5327        O 16 --  H 17          +17.1% ( 52.3%)     5.2%
 TRAVEL      0.1391        C  5 --  H 10          +10.2% ( 40.3%)    17.2%
 RED. MASS   0.2649        C  5 --  H 11           +9.6% ( 39.2%)     9.2%
 EFF. MASS   3.2447

 VIBRATION   22   22A       ATOM PAIR        ENERGY CONTRIBUTION    RADIAL
 FREQ.      1093.22        C  1 --  C  2          +18.3% ( 60.6%)    64.9%
 T-DIPOLE    2.0360        C  2 --  O  3          +10.6% ( 46.1%)    25.1%
 TRAVEL      0.0881        C  1 --  H  8           +9.7% ( 44.3%)     0.8%
 RED. MASS   1.1125        C  1 --  H  7           +8.3% ( 40.8%)    38.9%
 EFF. MASS   7.9394

 VIBRATION   23   23A       ATOM PAIR        ENERGY CONTRIBUTION    RADIAL
 FREQ.      1140.65        C  5 --  C  6          +16.9% ( 57.3%)    44.1%
 T-DIPOLE    1.5046        C  5 --  H 11          +14.1% ( 52.3%)    13.6%
 TRAVEL      0.0974        O  4 --  C  5          +13.3% ( 50.8%)    46.5%
 RED. MASS   1.0528        O  4 --  H 17          +10.6% ( 45.3%)     1.0%
 EFF. MASS   6.2281        C  5 --  H 10          +10.3% ( 44.8%)    23.4%

 VIBRATION   24   24A       ATOM PAIR        ENERGY CONTRIBUTION    RADIAL
 FREQ.      1155.21        C  5 --  C  6          +30.3% ( 88.2%)    87.0%
 T-DIPOLE    0.9130        O  4 --  C  5          +13.3% ( 58.5%)    11.6%
 TRAVEL      0.0761        C  5 --  H 10          +11.0% ( 53.3%)     8.7%
 RED. MASS   3.2969        C  6 --  H 14          +11.0% ( 53.2%)     0.4%
 EFF. MASS  10.0732        C  5 --  H 11          +10.5% ( 52.0%)    70.7%
                           C  6 --  H 13          +10.3% ( 51.4%)    68.7%

 VIBRATION   25   25A       ATOM PAIR        ENERGY CONTRIBUTION    RADIAL
 FREQ.      1169.12        C  5 --  H 11          +36.0% ( 67.8%)     0.0%
 T-DIPOLE    0.2584        C  5 --  H 10          +21.4% ( 52.3%)     8.1%
 TRAVEL      0.1390        C  6 --  H 12           +8.6% ( 33.1%)    30.6%
 RED. MASS   0.4068        C  6 --  H 13           +8.1% ( 32.2%)    10.8%
 EFF. MASS   2.9849

 VIBRATION   26   26A       ATOM PAIR        ENERGY CONTRIBUTION    RADIAL
 FREQ.      1183.26        O  4 --  C  5          +15.7% ( 54.9%)    92.2%
 T-DIPOLE    1.1083        C  5 --  H 10          +10.5% ( 45.0%)    68.4%
 TRAVEL      0.0846        C  5 --  C  6           +9.6% ( 43.1%)    16.0%
 RED. MASS   1.1833        O  4 --  H 17           +8.3% ( 40.0%)    62.5%
 EFF. MASS   7.9610

 VIBRATION   27   27A       ATOM PAIR        ENERGY CONTRIBUTION    RADIAL
 FREQ.      1223.24        C  1 --  H  8          +47.0% ( 58.5%)     0.5%
 T-DIPOLE    0.6972        C  1 --  H  7          +35.1% ( 50.6%)     2.2%
 TRAVEL      0.1967        C  1 --  H  9          +13.7% ( 31.6%)    26.8%
 RED. MASS   0.3923        C  1 --  C  2           +3.8% ( 16.7%)     2.3%
 EFF. MASS   1.4244

 VIBRATION   28   28A       ATOM PAIR        ENERGY CONTRIBUTION    RADIAL
 FREQ.      1229.76        C  1 --  H  9          +50.5% ( 60.9%)     0.1%
 T-DIPOLE    0.7625        C  1 --  H  7          +27.9% ( 45.3%)     5.4%
 TRAVEL      0.1944        C  1 --  H  8          +17.2% ( 35.5%)    12.2%
 RED. MASS   0.3960        C  1 --  C  2           +3.9% ( 17.0%)     0.0%
 EFF. MASS   1.4509

 VIBRATION   29   29A       ATOM PAIR        ENERGY CONTRIBUTION    RADIAL
 FREQ.      1259.41        C  6 --  H 14          +42.9% ( 55.6%)     0.6%
 T-DIPOLE    0.6269        C  6 --  H 12          +37.7% ( 52.1%)     1.3%
 TRAVEL      0.1973        C  6 --  H 13          +15.2% ( 33.1%)    22.2%
 RED. MASS   0.3768        C  5 --  C  6           +3.3% ( 15.3%)     2.2%
 EFF. MASS   1.3758

 VIBRATION   30   30A       ATOM PAIR        ENERGY CONTRIBUTION    RADIAL
 FREQ.      1266.54        C  6 --  H 13          +48.0% ( 59.3%)     0.1%
 T-DIPOLE    0.5870        C  6 --  H 12          +27.2% ( 44.7%)     4.5%
 TRAVEL      0.1892        C  6 --  H 14          +18.5% ( 36.9%)    12.6%
 RED. MASS   0.3746        C  5 --  C  6           +3.6% ( 16.3%)     1.5%
 EFF. MASS   1.4867

 VIBRATION   31   31A       ATOM PAIR        ENERGY CONTRIBUTION    RADIAL
 FREQ.      1308.52        C  5 --  H 10          +44.4% ( 62.5%)     1.4%
 T-DIPOLE    0.1939        C  5 --  H 11          +41.9% ( 60.7%)     1.8%
 TRAVEL      0.1708        C  5 --  C  6           +6.1% ( 23.2%)     3.7%
 RED. MASS   0.4897        O  4 --  C  5           +5.0% ( 21.0%)    74.2%
 EFF. MASS   1.7666

 VIBRATION   32   32A       ATOM PAIR        ENERGY CONTRIBUTION    RADIAL
 FREQ.      1321.27        C  5 --  H 10          +37.8% ( 66.1%)     0.3%
 T-DIPOLE    0.2212        C  5 --  H 11          +26.4% ( 55.2%)     0.2%
 TRAVEL      0.1444        C  6 --  H 12           +9.3% ( 32.8%)     0.0%
 RED. MASS   0.3974        C  5 --  C  6           +9.3% ( 32.8%)    76.0%
 EFF. MASS   2.4491

 VIBRATION   33   33A       ATOM PAIR        ENERGY CONTRIBUTION    RADIAL
 FREQ.      1338.67        C  1 --  H  8          +33.8% ( 60.4%)     1.4%
 T-DIPOLE    1.2330        C  1 --  H  9          +29.2% ( 56.2%)     1.7%
 TRAVEL      0.1423        C  1 --  H  7          +26.2% ( 53.2%)     1.7%
 RED. MASS   0.5489        C  1 --  C  2           +9.2% ( 31.5%)    98.2%
 EFF. MASS   2.4874

 VIBRATION   34   34A       ATOM PAIR        ENERGY CONTRIBUTION    RADIAL
 FREQ.      1377.45        C  6 --  H 14          +24.8% ( 50.0%)     0.5%
 T-DIPOLE    0.8832        C  6 --  H 13          +22.1% ( 47.3%)     1.4%
 TRAVEL      0.1488        C  6 --  H 12          +22.1% ( 47.2%)     1.9%
 RED. MASS   0.3426        C  5 --  H 10          +12.1% ( 34.9%)     0.6%
 EFF. MASS   2.2102

 VIBRATION   35   35A       ATOM PAIR        ENERGY CONTRIBUTION    RADIAL
 FREQ.      1707.60        C  2 --  O  3          +40.4% ( 95.6%)    97.3%
 T-DIPOLE    6.7866        C  1 --  C  2          +19.6% ( 66.5%)    68.0%
 TRAVEL      0.0558        C  2 --  O  4          +18.6% ( 64.9%)     3.6%
 RED. MASS   6.2374        C  2 --  O 16          +18.6% ( 64.9%)     2.2%
 EFF. MASS  12.7049

 VIBRATION   36   36A       ATOM PAIR        ENERGY CONTRIBUTION    RADIAL
 FREQ.      2056.52        O  4 --  H 17          +48.9% ( 95.7%)    46.8%
 T-DIPOLE    1.4905        O 16 --  H 17          +48.7% ( 95.5%)    41.4%
 TRAVEL      0.1502        C  2 --  O  3           +0.7% ( 11.2%)    68.3%
 RED. MASS   0.8997        C  2 --  O  4           +0.4% (  9.0%)    84.3%
 EFF. MASS   1.4541

 VIBRATION   37   37A       ATOM PAIR        ENERGY CONTRIBUTION    RADIAL
 FREQ.      2639.56        C  5 --  H 11          +40.9% ( 66.4%)    98.4%
 T-DIPOLE    0.2040        C  5 --  H 10          +35.9% ( 62.3%)    97.9%
 TRAVEL      0.1332        C  6 --  H 13          +12.5% ( 36.7%)    98.9%
 RED. MASS   0.3314        C  6 --  H 12           +8.1% ( 29.6%)    96.6%
 EFF. MASS   1.4402

 VIBRATION   38   38A       ATOM PAIR        ENERGY CONTRIBUTION    RADIAL
 FREQ.      2644.62        C  1 --  H  7          +57.5% ( 78.3%)    98.9%
 T-DIPOLE    1.0614        C  1 --  H  8          +39.4% ( 64.8%)    96.4%
 TRAVEL      0.1330        C  1 --  H  9           +2.2% ( 15.4%)    30.6%
 RED. MASS   0.5003        C  1 --  C  2           +0.9% (  9.6%)     0.0%
 EFF. MASS   1.4424

 VIBRATION   39   39A       ATOM PAIR        ENERGY CONTRIBUTION    RADIAL
 FREQ.      2648.10        C  1 --  H  9          +64.7% ( 83.1%)    99.5%
 T-DIPOLE    1.1664        C  1 --  H  8          +25.2% ( 51.9%)    92.2%
 TRAVEL      0.1323        C  1 --  H  7           +8.8% ( 30.7%)    73.4%
 RED. MASS   0.5071        C  1 --  C  2           +0.9% (  9.9%)     0.0%
 EFF. MASS   1.4550

 VIBRATION   40   40A       ATOM PAIR        ENERGY CONTRIBUTION    RADIAL
 FREQ.      2659.37        C  6 --  H 14          +65.7% ( 83.7%)    99.6%
 T-DIPOLE    0.8567        C  6 --  H 12          +23.5% ( 50.0%)    91.3%
 TRAVEL      0.1325        C  6 --  H 13           +8.8% ( 30.7%)    74.3%
 RED. MASS   0.5098        C  5 --  C  6           +0.9% (  9.8%)     0.2%
 EFF. MASS   1.4436

 VIBRATION   41   41A       ATOM PAIR        ENERGY CONTRIBUTION    RADIAL
 FREQ.      2670.36        C  6 --  H 13          +43.4% ( 67.8%)    98.7%
 T-DIPOLE    1.0815        C  6 --  H 12          +33.0% ( 59.1%)    96.7%
 TRAVEL      0.1310        C  5 --  H 11          +11.6% ( 35.1%)    98.3%
 RED. MASS   0.3326        C  5 --  H 10           +9.2% ( 31.3%)    97.4%
 EFF. MASS   1.4712

 VIBRATION   42   42A       ATOM PAIR        ENERGY CONTRIBUTION    RADIAL
 FREQ.      2718.05        C  5 --  H 10          +52.4% ( 71.2%)    97.0%
 T-DIPOLE    0.4832        C  5 --  H 11          +44.8% ( 65.8%)    96.1%
 TRAVEL      0.1424        C  6 --  H 14           +1.6% ( 12.4%)    98.5%
 RED. MASS   0.4682        C  5 --  C  6           +0.5% (  6.9%)    50.0%
 EFF. MASS   1.2228

 VIBRATION   43   43A       ATOM PAIR        ENERGY CONTRIBUTION    RADIAL
 FREQ.      2764.66        H 15 --  O 16          +63.1% ( 78.2%)    99.7%
 T-DIPOLE    1.5979        C  1 --  H  8          +12.8% ( 35.2%)    96.2%
 TRAVEL      0.1392        C  1 --  H  7          +12.0% ( 34.2%)    95.5%
 RED. MASS   0.4054        C  1 --  H  9          +11.2% ( 32.9%)    95.2%
 EFF. MASS   1.2590

 VIBRATION   44   44A       ATOM PAIR        ENERGY CONTRIBUTION    RADIAL
 FREQ.      2773.19        H 15 --  O 16          +38.8% ( 60.6%)    99.7%
 T-DIPOLE    0.8133        C  1 --  H  8          +20.0% ( 43.5%)    95.0%
 TRAVEL      0.1408        C  1 --  H  9          +19.1% ( 42.5%)    95.1%
 RED. MASS   0.2493        C  1 --  H  7          +19.0% ( 42.4%)    95.3%
 EFF. MASS   1.2270

 VIBRATION   45   45A       ATOM PAIR        ENERGY CONTRIBUTION    RADIAL
 FREQ.      2779.30        C  6 --  H 12          +34.1% ( 56.0%)    95.7%
 T-DIPOLE    0.5363        C  6 --  H 13          +34.0% ( 55.9%)    95.8%
 TRAVEL      0.1455        C  6 --  H 14          +28.7% ( 51.4%)    94.5%
 RED. MASS   0.3100        H 15 --  O 16           +0.9% (  9.2%)    99.7%
 EFF. MASS   1.1465

           FORCE CONSTANT IN CARTESIAN COORDINATES (Millidynes/A)

    ATOM   CHEMICAL       X               Y               Z
   NUMBER   SYMBOL  FORCE CONSTANT  FORCE CONSTANT  FORCE CONSTANT

      1       C        7.257341        6.341820        6.107184
      2       C       10.889697        7.975307        1.958739
      3       O        4.819332        8.209053        0.831761
      4       O        4.562261        2.761239        5.070677
      5       C        6.645260        7.262730        6.782260
      6       C        6.272255        6.700533        6.590349
      7       H        1.230923        0.518556        3.445470
      8       H        1.309146        2.978951        0.993018
      9       H        1.197273        2.498843        1.534993
     10       H        0.768699        3.291704        1.490801
     11       H        2.951912        0.704817        1.829487
     12       H        0.535399        3.398131        1.423519
     13       H        2.638235        0.682889        2.031849
     14       H        2.936002        0.654169        1.722112
     15       H        2.980470        0.651845        1.505572
     16       O        3.831831        1.868895        3.821322
     17       H        0.887918        2.077542       -0.644209

 **********************
 *                    *
 * JOB ENDED NORMALLY *
 *                    *
 **********************



 TOTAL JOB TIME:             1.99 SECONDS

 == MOPAC DONE ==
